 Gaussian 09, Revision D.01,
 Gaussian 09:  ES64L-G09RevD.01 24-Apr-2013

 -----------------------------
 # b3lyp 6-31G(2df,p) opt Freq
 -----------------------------

 -----
 titel
 -----
 Symbolic Z-matrix:
 Charge =  0 Multiplicity = 1

 SCF Done:  E(RB3LYP) =  -423.174902821     A.U. after   14 cycles
 Optimization completed.
    -- Stationary point found.
 Normal termination of Gaussian 09 at Tue Jan 28 00:03:28 2020.

 ----------------------------------------------------------------------
 #N Geom=AllCheck Guess=TCheck SCRF=Check GenChk RB3LYP/6-31G(2df,p) Fr
 eq
 ----------------------------------------------------------------------

 Structure from the checkpoint file:  "/scratch/puck/g09_4e46578e-eaee-4b8c-aa15-0d2234de984d/Gau-116684.chk"
 -----
 titel
 -----
 Charge =  0 Multiplicity = 1

                         Standard orientation:
 ---------------------------------------------------------------------
 Center     Atomic      Atomic             Coordinates (Angstroms)
 Number     Number       Type             X           Y           Z
 ---------------------------------------------------------------------
      1          6           0       -2.411217   -0.193451   -0.395157
      2          6           0       -1.241281    0.339243    0.437819
      3          6           0       -0.750661    1.716701    0.028401
      4          6           0        0.577279    1.800673   -0.028168
      5          6           0        1.242425    0.502977    0.383351
      6          8           0        2.333206    0.079583   -0.401095
      7          6           0        0.052133   -0.476717    0.326695
      8          6           0        0.207902   -1.905536    0.583994
      9          8           0        0.142854   -1.409173   -0.764920
     10          1           0       -2.707772   -1.196490   -0.072997
     11          1           0       -3.280958    0.461960   -0.285343
     12          1           0       -2.145293   -0.245374   -1.453230
     13          1           0       -1.549933    0.362488    1.494426
     14          1           0       -1.442971    2.528220   -0.170724
     15          1           0        1.155876    2.681439   -0.280390
     16          1           0        1.618081    0.586474    1.413902
     17          1           0        1.949793   -0.451714   -1.113660
     18          1           0        1.182416   -2.287965    0.883497
     19          1           0       -0.647191   -2.505657    0.891035
 ---------------------------------------------------------------------

 SCF Done:  E(RB3LYP) =  -423.174902821     A.U. after    1 cycles

 The electronic state is 1-A.
 Alpha  occ. eigenvalues --  -19.16209 -19.12817 -10.24414 -10.23859 -10.23434
 Alpha  occ. eigenvalues --  -10.20083 -10.18683 -10.17999 -10.17887  -1.08066
 Alpha  occ. eigenvalues --   -1.01112  -0.84169  -0.74727  -0.69673  -0.66144
 Alpha  occ. eigenvalues --   -0.64634  -0.56479  -0.55049  -0.52494  -0.49234
 Alpha  occ. eigenvalues --   -0.45968  -0.44611  -0.43291  -0.43039  -0.39449
 Alpha  occ. eigenvalues --   -0.38478  -0.38157  -0.36239  -0.34646  -0.31826
 Alpha  occ. eigenvalues --   -0.31003  -0.28083  -0.26235  -0.25371
 Alpha virt. eigenvalues --    0.01184   0.08162   0.08752   0.10402   0.12448
 Alpha virt. eigenvalues --    0.13921   0.14170   0.15441   0.15794   0.16321
 Alpha virt. eigenvalues --    0.17043   0.17370   0.19307   0.21067   0.23498

 Mulliken charges:
               1
     1  C   -0.392486
     2  C   -0.128901
     3  C   -0.067058
     4  C   -0.126081
     5  C    0.034826
     6  O   -0.439423
     7  C    0.348421
     8  C   -0.244510
     9  O   -0.266556
    10  H    0.116256
    11  H    0.112608
    12  H    0.134708
    13  H    0.090643
    14  H    0.097777
    15  H    0.103964
    16  H    0.092976
    17  H    0.290305
    18  H    0.125283
    19  H    0.117250
 Sum of Mulliken charges =   0.00000

 Dipole moment (field-independent basis, Debye):
    X=             -1.8041    Y=             -0.0322    Z=              1.3583  Tot=              2.2585
 Quadrupole moment (field-independent basis, Debye-Ang):
   XX=            -56.6373   YY=            -50.3930   ZZ=            -52.7889
   XY=             -1.0977   XZ=             -0.1315   YZ=             -2.2357

  Exact polarizability:  87.766   0.152  81.751  -0.031  -3.679  57.777
 Approx polarizability: 129.136   0.434 111.971  -2.527  -2.544  95.622

                      1                      2                      3
                      A                      A                      A
 Frequencies --     74.4916               207.8565               223.0714
 Red. masses --      4.0479                 1.1758                 2.4749
 Frc consts  --      0.0132                 0.0299                 0.0726
 IR Inten    --      0.7330                 0.6077                 1.1277

                      4                      5                      6
                      A                      A                      A
 Frequencies --    236.1535               275.5476               316.6836
 Red. masses --      3.4445                 3.1319                 2.9837
 Frc consts  --      0.1132                 0.1401                 0.1763
 IR Inten    --      0.3840                 6.5456                15.9734

                      7                      8                      9
                      A                      A                      A
 Frequencies --    323.7483               439.4511               468.4581
 Red. masses --      2.6185                 1.5410                 2.8553
 Frc consts  --      0.1617                 0.1753                 0.3692
 IR Inten    --     14.7465                57.4009                21.1659

                     10                     11                     12
                      A                      A                      A
 Frequencies --    495.1542               561.1191               619.5654
 Red. masses --      3.1867                 3.3357                 3.6974
 Frc consts  --      0.4603                 0.6188                 0.8362
 IR Inten    --      3.9783                 0.3518                 1.0974

                     13                     14                     15
                      A                      A                      A
 Frequencies --    701.2572               757.7508               792.4237
 Red. masses --      2.4151                 2.5793                 2.8165
 Frc consts  --      0.6997                 0.8726                 1.0420
 IR Inten    --      6.4871                 6.4449                45.1738

                     16                     17                     18
                      A                      A                      A
 Frequencies --    836.2737               893.3552               909.1084
 Red. masses --      1.7928                 2.7913                 1.9987
 Frc consts  --      0.7387                 1.3125                 0.9733
 IR Inten    --      5.8023                 9.5678                10.2662

                     19                     20                     21
                      A                      A                      A
 Frequencies --    967.9667               976.8048              1011.8251
 Red. masses --      5.6013                 1.2628                 2.4076
 Frc consts  --      3.0922                 0.7099                 1.4523
 IR Inten    --     38.3677                 0.1847                 7.4348

                     22                     23                     24
                      A                      A                      A
 Frequencies --   1035.3597              1082.8833              1097.7577
 Red. masses --      1.7436                 1.8409                 1.6894
 Frc consts  --      1.1012                 1.2719                 1.1995
 IR Inten    --     11.1562                24.0453                 3.0849

                     25                     26                     27
                      A                      A                      A
 Frequencies --   1120.8522              1132.3629              1152.8750
 Red. masses --      1.3729                 1.5226                 1.9086
 Frc consts  --      1.0162                 1.1503                 1.4946
 IR Inten    --      9.2906                18.7650                52.5838

                     28                     29                     30
                      A                      A                      A
 Frequencies --   1176.5788              1200.5149              1255.9929
 Red. masses --      1.3702                 1.9296                 1.6258
 Frc consts  --      1.1176                 1.6385                 1.5110
 IR Inten    --      1.4646                 2.9919                15.2914

                     31                     32                     33
                      A                      A                      A
 Frequencies --   1283.0810              1314.5884              1337.1104
 Red. masses --      1.5757                 1.2935                 1.4990
 Frc consts  --      1.5284                 1.3170                 1.5790
 IR Inten    --      4.3584                 3.0662                 3.6343

                     34                     35                     36
                      A                      A                      A
 Frequencies --   1370.8863              1404.1001              1421.8421
 Red. masses --      1.8120                 1.4694                 1.7030
 Frc consts  --      2.0063                 1.7068                 2.0285
 IR Inten    --      2.8685                 5.4233                 2.9587

                     37                     38                     39
                      A                      A                      A
 Frequencies --   1443.5407              1492.5763              1495.5894
 Red. masses --      1.3353                 1.0588                 1.0508
 Frc consts  --      1.6394                 1.3897                 1.3848
 IR Inten    --     86.7221                 3.5049                 4.8834

                     40                     41                     42
                      A                      A                      A
 Frequencies --   1524.8519              1677.6443              2983.7323
 Red. masses --      1.4762                 6.7967                 1.0814
 Frc consts  --      2.0223                11.2706                 5.6722
 IR Inten    --      3.6937                 1.9294                22.5639

                     43                     44                     45
                      A                      A                      A
 Frequencies --   2996.2172              3041.9317              3086.1007
 Red. masses --      1.0824                 1.0359                 1.0506
 Frc consts  --      5.7254                 5.6475                 5.8954
 IR Inten    --     37.2530                24.4629                22.3634

                     46                     47                     48
                      A                      A                      A
 Frequencies --   3104.8697              3130.4366              3174.8708
 Red. masses --      1.1013                 1.1011                 1.1194
 Frc consts  --      6.2552                 6.3575                 6.6482
 IR Inten    --     24.8836                16.2899                13.3444

                     49                     50                     51
                      A                      A                      A
 Frequencies --   3180.9229              3212.5133              3735.8821
 Red. masses --      1.0866                 1.1027                 1.0648
 Frc consts  --      6.4779                 6.7048                 8.7557
 IR Inten    --      9.1197                14.4585                42.5504

 - Thermochemistry -
 -------------------
 Temperature   298.150 Kelvin.  Pressure   1.00000 Atm.
 Atom     1 has atomic number  6 and mass  12.00000

 Molecular mass:   126.06808 amu.
 Principal axes and moments of inertia in atomic units:
                           1         2         3
     Eigenvalues --   777.22937 981.604191526.13630
           X            0.99993   0.00309   0.01123
           Y           -0.00285   0.99977  -0.02112
           Z           -0.01129   0.02109   0.99971
 This molecule is an asymmetric top.
 Rotational symmetry number  1.
 Warning -- assumption of classical behavior for rotation
           may cause significant error
 Rotational temperatures (Kelvin)      0.11144     0.08824     0.05675
 Rotational constants (GHZ):           2.32202     1.83856     1.18256
 Zero-point vibrational energy     417236.7 (Joules/Mol)
                                   99.72197 (Kcal/Mol)
 Warning -- explicit consideration of  12 degrees of freedom as
           vibrations may cause significant error
 Vibrational temperatures:    107.18   299.06   320.95   339.77   396.45
          (Kelvin)            455.64   465.80   632.27   674.01   712.42
                              807.32   891.42  1008.95  1090.23  1140.12
                             1203.21  1285.34  1308.00  1392.69  1405.40
                             1455.79  1489.65  1558.03  1579.43  1612.65
                             1629.22  1658.73  1692.83  1727.27  1807.09
                             1846.07  1891.40  1923.80  1972.40  2020.18
                             2045.71  2076.93  2147.48  2151.82  2193.92
                             2413.75  4292.92  4310.88  4376.66  4440.21
                             4467.21  4503.99  4567.93  4576.63  4622.08
                             5375.09

 Zero-point correction=                           0.158917 (Hartree/Particle)
 Thermal correction to Energy=                    0.167291
 Thermal correction to Enthalpy=                  0.168235
 Thermal correction to Gibbs Free Energy=         0.126248
 Sum of electronic and zero-point Energies=           -423.015986
 Sum of electronic and thermal Energies=              -423.007612
 Sum of electronic and thermal Enthalpies=            -423.006667
 Sum of electronic and thermal Free Energies=         -423.048655

                     E (Thermal)             CV                S
                      KCal/Mol        Cal/Mol-Kelvin    Cal/Mol-Kelvin
 Total                  104.977             32.759             88.371
 Electronic               0.000              0.000              0.000
 Translational            0.889              2.981             40.409
 Rotational               0.889              2.981             28.545
 Vibrational            103.199             26.798             19.417
 Vibration     1          0.599              1.966              4.031
 Vibration     2          0.641              1.829              2.062
 Vibration     3          0.649              1.806              1.934
 Vibration     4          0.655              1.785              1.832
 Vibration     5          0.677              1.719              1.561
 Vibration     6          0.704              1.642              1.327
 Vibration     7          0.708              1.628              1.291
 Vibration     8          0.799              1.384              0.828
 Vibration     9          0.826              1.320              0.742
 Vibration    10          0.851              1.261              0.670
 Vibration    11          0.917              1.115              0.522
 Vibration    12          0.980              0.991              0.417

 Optimization completed.
    -- Stationary point found.
 Normal termination of Gaussian 09 at Tue Jan 28 00:57:36 2020.
