 Gaussian 09, Revision D.01,
 Gaussian 09:  ES64L-G09RevD.01 24-Apr-2013

 -----------------------------
 # b3lyp 6-31G(2df,p) opt Freq
 -----------------------------

 -----
 titel
 -----
 Symbolic Z-matrix:
 Charge =  0 Multiplicity = 1

 SCF Done:  E(RB3LYP) =  -423.171989654     A.U. after   14 cycles
 Optimization completed.
    -- Stationary point found.
 Normal termination of Gaussian 09 at Tue Jan 28 12:35:53 2020.

 ----------------------------------------------------------------------
 #N Geom=AllCheck Guess=TCheck SCRF=Check GenChk RB3LYP/6-31G(2df,p) Fr
 eq
 ----------------------------------------------------------------------

 Structure from the checkpoint file:  "/scratch/puck/g09_cf7f8566-3e58-40b6-9392-7e252e99bb1b/Gau-141946.chk"
 -----
 titel
 -----
 Charge =  0 Multiplicity = 1

                         Standard orientation:
 ---------------------------------------------------------------------
 Center     Atomic      Atomic             Coordinates (Angstroms)
 Number     Number       Type             X           Y           Z
 ---------------------------------------------------------------------
      1          6           0       -3.198812   -0.048499    0.406356
      2          6           0       -2.125491   -0.451197   -0.621294
      3          6           0       -0.725426   -0.249834   -0.124461
      4          6           0        0.211615   -1.173892    0.113829
      5          6           0        1.537790   -0.582640    0.572345
      6          8           0        2.618444   -0.908853   -0.286666
      7          6           0        1.237787    0.921593    0.592598
      8          8           0        0.980884    1.421898   -0.727922
      9          6           0       -0.141343    1.112295    0.144407
     10          1           0       -3.115540    1.007546    0.683452
     11          1           0       -4.201943   -0.205016   -0.001250
     12          1           0       -3.105390   -0.641894    1.320997
     13          1           0       -2.261561   -1.501841   -0.899177
     14          1           0       -2.271290    0.138111   -1.536998
     15          1           0        0.108902   -2.237218   -0.074895
     16          1           0        1.829098   -0.942141    1.565928
     17          1           0        2.429600   -0.454058   -1.118342
     18          1           0        1.767818    1.596973    1.257477
     19          1           0       -0.751054    1.968226    0.416841
 ---------------------------------------------------------------------

 SCF Done:  E(RB3LYP) =  -423.171989654     A.U. after    1 cycles

 The electronic state is 1-A.
 Alpha  occ. eigenvalues --  -19.15540 -19.13226 -10.24104 -10.23703 -10.23452
 Alpha  occ. eigenvalues --  -10.19606 -10.19500 -10.18498 -10.18170  -1.07390
 Alpha  occ. eigenvalues --   -1.01280  -0.82768  -0.76725  -0.69843  -0.66670
 Alpha  occ. eigenvalues --   -0.62857  -0.59013  -0.54816  -0.52075  -0.48456
 Alpha  occ. eigenvalues --   -0.45482  -0.44177  -0.43753  -0.41322  -0.39797
 Alpha  occ. eigenvalues --   -0.39200  -0.38034  -0.36668  -0.35029  -0.33024
 Alpha  occ. eigenvalues --   -0.31625  -0.28807  -0.25428  -0.24362
 Alpha virt. eigenvalues --   -0.00622   0.08332   0.09673   0.10927   0.12211
 Alpha virt. eigenvalues --    0.13229   0.14082   0.14682   0.15948   0.16205
 Alpha virt. eigenvalues --    0.16804   0.18014   0.19789   0.20903   0.22242

 Mulliken charges:
               1
     1  C   -0.376656
     2  C   -0.296706
     3  C    0.337715
     4  C   -0.249307
     5  C    0.089717
     6  O   -0.434744
     7  C   -0.001456
     8  O   -0.270050
     9  C   -0.064583
    10  H    0.119635
    11  H    0.119183
    12  H    0.123847
    13  H    0.108117
    14  H    0.113683
    15  H    0.102040
    16  H    0.091090
    17  H    0.287558
    18  H    0.101022
    19  H    0.099893
 Sum of Mulliken charges =   0.00000

 Dipole moment (field-independent basis, Debye):
    X=             -2.2839    Y=              0.1824    Z=              0.9545  Tot=              2.4820
 Quadrupole moment (field-independent basis, Debye-Ang):
   XX=            -56.0389   YY=            -53.7012   ZZ=            -51.8546
   XY=              1.5818   XZ=              1.7841   YZ=              2.2495

  Exact polarizability:  95.373  -4.969  74.215   4.682   0.239  61.026
 Approx polarizability: 128.898 -14.144 115.221   6.603  -5.917  97.432

                      1                      2                      3
                      A                      A                      A
 Frequencies --     62.9435               116.7358               169.5296
 Red. masses --      2.5625                 3.5717                 4.0057
 Frc consts  --      0.0060                 0.0287                 0.0678
 IR Inten    --      0.1301                 0.7350                 5.0415

                      4                      5                      6
                      A                      A                      A
 Frequencies --    200.0405               243.1602               285.6512
 Red. masses --      1.4076                 4.0045                 1.9511
 Frc consts  --      0.0332                 0.1395                 0.0938
 IR Inten    --      0.2715                 1.6317                 0.9482

                      7                      8                      9
                      A                      A                      A
 Frequencies --    389.1131               454.4969               487.6970
 Red. masses --      3.2540                 1.2806                 2.4837
 Frc consts  --      0.2903                 0.1559                 0.3481
 IR Inten    --      5.1338                44.4551                37.3905

                     10                     11                     12
                      A                      A                      A
 Frequencies --    556.6557               583.7974               635.5458
 Red. masses --      4.3983                 3.9942                 4.2306
 Frc consts  --      0.8030                 0.8021                 1.0068
 IR Inten    --      7.0388                 5.8246                 5.8537

                     13                     14                     15
                      A                      A                      A
 Frequencies --    761.6213               787.8025               811.4714
 Red. masses --      3.1815                 1.3009                 2.9145
 Frc consts  --      1.0873                 0.4757                 1.1307
 IR Inten    --      1.9379                 4.7651                10.9044

                     16                     17                     18
                      A                      A                      A
 Frequencies --    856.8355               875.9630               888.9034
 Red. masses --      2.6236                 2.5255                 1.9420
 Frc consts  --      1.1349                 1.1418                 0.9041
 IR Inten    --     10.8801                 8.1689                53.9671

                     19                     20                     21
                      A                      A                      A
 Frequencies --    923.1861               966.2511               999.8976
 Red. masses --      3.5539                 2.0498                 2.0392
 Frc consts  --      1.7846                 1.1276                 1.2012
 IR Inten    --      4.9860                 5.1702                18.2498

                     22                     23                     24
                      A                      A                      A
 Frequencies --   1051.7186              1065.2168              1075.4044
 Red. masses --      1.7331                 2.8558                 2.2971
 Frc consts  --      1.1295                 1.9092                 1.5652
 IR Inten    --      9.6967                57.1684                37.3855

                     25                     26                     27
                      A                      A                      A
 Frequencies --   1095.0155              1109.5118              1185.1539
 Red. masses --      1.4990                 1.3323                 1.9581
 Frc consts  --      1.0590                 0.9663                 1.6204
 IR Inten    --      1.1247                13.8084                 5.6665

                     28                     29                     30
                      A                      A                      A
 Frequencies --   1249.7379              1255.7273              1271.0022
 Red. masses --      1.3624                 1.4917                 1.3216
 Frc consts  --      1.2537                 1.3859                 1.2579
 IR Inten    --      6.0929                 6.0303                 7.1929

                     31                     32                     33
                      A                      A                      A
 Frequencies --   1291.0862              1302.3378              1351.0919
 Red. masses --      1.2296                 1.6185                 1.5826
 Frc consts  --      1.2076                 1.6174                 1.7021
 IR Inten    --      0.0924                 7.6875                 2.2858

                     34                     35                     36
                      A                      A                      A
 Frequencies --   1362.9066              1408.9849              1419.4328
 Red. masses --      1.7042                 1.2198                 3.7505
 Frc consts  --      1.8651                 1.4267                 4.4521
 IR Inten    --      5.1376                 0.8692                 8.3391

                     37                     38                     39
                      A                      A                      A
 Frequencies --   1433.2095              1480.0464              1499.3777
 Red. masses --      1.2589                 1.0717                 1.0403
 Frc consts  --      1.5236                 1.3832                 1.3780
 IR Inten    --     93.9193                 3.0820                 5.1198

                     40                     41                     42
                      A                      A                      A
 Frequencies --   1506.3705              1700.5634              3015.1453
 Red. masses --      1.0694                 7.6618                 1.0645
 Frc consts  --      1.4297                13.0547                 5.7019
 IR Inten    --      2.4874                 3.5846                22.1504

                     43                     44                     45
                      A                      A                      A
 Frequencies --   3037.4847              3048.5778              3067.2839
 Red. masses --      1.0347                 1.0843                 1.0964
 Frc consts  --      5.6248                 5.9373                 6.0774
 IR Inten    --     25.4135                30.3141                 9.2363

                     46                     47                     48
                      A                      A                      A
 Frequencies --   3107.2128              3113.3461              3156.5353
 Red. masses --      1.1012                 1.1027                 1.0879
 Frc consts  --      6.2644                 6.2972                 6.3865
 IR Inten    --     38.8071                27.9868                17.6128

                     49                     50                     51
                      A                      A                      A
 Frequencies --   3169.5143              3191.9229              3766.6599
 Red. masses --      1.0956                 1.0942                 1.0653
 Frc consts  --      6.4848                 6.5681                 8.9046
 IR Inten    --     27.8576                 8.3869                19.4634

 - Thermochemistry -
 -------------------
 Temperature   298.150 Kelvin.  Pressure   1.00000 Atm.
 Atom     1 has atomic number  6 and mass  12.00000

 Molecular mass:   126.06808 amu.
 Principal axes and moments of inertia in atomic units:
                           1         2         3
     Eigenvalues --   524.387551613.537601881.31209
           X            0.99999   0.00363   0.00330
           Y           -0.00375   0.99921   0.03961
           Z           -0.00315  -0.03962   0.99921
 This molecule is an asymmetric top.
 Rotational symmetry number  1.
 Warning -- assumption of classical behavior for rotation
           may cause significant error
 Rotational temperatures (Kelvin)      0.16517     0.05368     0.04604
 Rotational constants (GHZ):           3.44162     1.11850     0.95930
 Zero-point vibrational energy     417765.1 (Joules/Mol)
                                   99.84826 (Kcal/Mol)
 Warning -- explicit consideration of  11 degrees of freedom as
           vibrations may cause significant error
 Vibrational temperatures:     90.56   167.96   243.91   287.81   349.85
          (Kelvin)            410.99   559.85   653.92   701.69   800.90
                              839.95   914.41  1095.80  1133.47  1167.52
                             1232.79  1260.31  1278.93  1328.26  1390.22
                             1438.63  1513.19  1532.61  1547.27  1575.48
                             1596.34  1705.17  1798.09  1806.71  1828.69
                             1857.58  1873.77  1943.92  1960.92  2027.21
                             2042.24  2062.07  2129.45  2157.27  2167.33
                             2446.73  4338.12  4370.26  4386.22  4413.13
                             4470.58  4479.40  4541.54  4560.22  4592.46
                             5419.38

 Zero-point correction=                           0.159118 (Hartree/Particle)
 Thermal correction to Energy=                    0.167703
 Thermal correction to Enthalpy=                  0.168647
 Thermal correction to Gibbs Free Energy=         0.125585
 Sum of electronic and zero-point Energies=           -423.012871
 Sum of electronic and thermal Energies=              -423.004287
 Sum of electronic and thermal Enthalpies=            -423.003343
 Sum of electronic and thermal Free Energies=         -423.046404

                     E (Thermal)             CV                S
                      KCal/Mol        Cal/Mol-Kelvin    Cal/Mol-Kelvin
 Total                  105.235             32.549             90.630
 Electronic               0.000              0.000              0.000
 Translational            0.889              2.981             40.409
 Rotational               0.889              2.981             28.856
 Vibrational            103.457             26.587             21.366
 Vibration     1          0.597              1.972              4.363
 Vibration     2          0.608              1.935              3.154
 Vibration     3          0.625              1.880              2.441
 Vibration     4          0.638              1.840              2.133
 Vibration     5          0.659              1.774              1.780
 Vibration     6          0.683              1.700              1.500
 Vibration     7          0.757              1.493              1.004
 Vibration     8          0.813              1.351              0.782
 Vibration     9          0.844              1.277              0.690
 Vibration    10          0.912              1.125              0.531
 Vibration    11          0.941              1.066              0.478

 Normal termination of Gaussian 09 at Tue Jan 28 13:17:27 2020.
