 Gaussian 09, Revision D.01,
 Gaussian 09:  ES64L-G09RevD.01 24-Apr-2013

 -----------------------------
 # b3lyp 6-31G(2df,p) opt Freq
 -----------------------------

 -----
 titel
 -----
 Symbolic Z-matrix:
 Charge =  0 Multiplicity = 1

 SCF Done:  E(RB3LYP) =  -423.150363048     A.U. after   14 cycles
 Optimization completed.
    -- Stationary point found.
 Normal termination of Gaussian 09 at Tue Jan 28 12:06:09 2020.

 ----------------------------------------------------------------------
 #N Geom=AllCheck Guess=TCheck SCRF=Check GenChk RB3LYP/6-31G(2df,p) Fr
 eq
 ----------------------------------------------------------------------

 Structure from the checkpoint file:  "/scratch/puck/g09_8de5b04e-7b5e-4871-b8dc-1fb837f12270/Gau-139677.chk"
 -----
 titel
 -----
 Charge =  0 Multiplicity = 1

                         Standard orientation:
 ---------------------------------------------------------------------
 Center     Atomic      Atomic             Coordinates (Angstroms)
 Number     Number       Type             X           Y           Z
 ---------------------------------------------------------------------
      1          6           0       -2.682641   -1.919054    0.152993
      2          8           0       -1.820291   -0.968426   -0.428152
      3          6           0       -1.719298    0.214685    0.322896
      4          6           0       -0.696901    1.137630   -0.358026
      5          6           0       -0.665987    2.522981    0.320532
      6          6           0        0.631722    0.533449   -0.356752
      7          6           0        1.740661    0.055534   -0.311729
      8          6           0        3.061242   -0.514802   -0.309922
      9          8           0        3.601346   -1.000588    0.658334
     10          1           0       -3.710533   -1.534304    0.246768
     11          1           0       -2.691062   -2.793215   -0.501823
     12          1           0       -2.336571   -2.224942    1.152267
     13          1           0       -2.692334    0.732909    0.372944
     14          1           0       -1.400603    0.002479    1.356727
     15          1           0       -1.022240    1.259777   -1.399225
     16          1           0       -1.654918    2.987963    0.269527
     17          1           0       -0.375268    2.435303    1.371276
     18          1           0        0.051042    3.180873   -0.175288
     19          1           0        3.571256   -0.477272   -1.294581
 ---------------------------------------------------------------------

 SCF Done:  E(RB3LYP) =  -423.150363048     A.U. after    1 cycles

 The electronic state is 1-A.
 Alpha  occ. eigenvalues --  -19.14982 -19.13739 -10.28325 -10.24347 -10.23085
 Alpha  occ. eigenvalues --  -10.22779 -10.20582 -10.19795 -10.18637  -1.04473
 Alpha  occ. eigenvalues --   -1.04299  -0.83242  -0.76069  -0.72016  -0.66956
 Alpha  occ. eigenvalues --   -0.64956  -0.61482  -0.52084  -0.50417  -0.49713
 Alpha  occ. eigenvalues --   -0.47632  -0.45952  -0.43977  -0.42358  -0.40969
 Alpha  occ. eigenvalues --   -0.39869  -0.39508  -0.37810  -0.36529  -0.32962
 Alpha  occ. eigenvalues --   -0.27968  -0.27707  -0.26496  -0.26050
 Alpha virt. eigenvalues --   -0.05548   0.03333   0.08408   0.08815   0.11475
 Alpha virt. eigenvalues --    0.12533   0.12883   0.13975   0.14970   0.15614
 Alpha virt. eigenvalues --    0.16326   0.17172   0.17637   0.19297   0.22070

 Mulliken charges:
               1
     1  C   -0.230997
     2  O   -0.230291
     3  C   -0.042136
     4  C   -0.175924
     5  C   -0.399109
     6  C    0.173334
     7  C   -0.040283
     8  C    0.025100
     9  O   -0.233055
    10  H    0.104818
    11  H    0.132868
    12  H    0.111783
    13  H    0.088331
    14  H    0.100029
    15  H    0.123310
    16  H    0.123963
    17  H    0.136826
    18  H    0.135856
    19  H    0.095578
 Sum of Mulliken charges =   0.00000

 Dipole moment (field-independent basis, Debye):
    X=             -3.4918    Y=              1.7538    Z=             -0.7490  Tot=              3.9786
 Quadrupole moment (field-independent basis, Debye-Ang):
   XX=            -57.5129   YY=            -50.3715   ZZ=            -53.8870
   XY=              4.2423   XZ=             -7.3330   YZ=              0.5162

  Exact polarizability: 111.179 -13.355  79.543   0.194  -1.629  63.624
 Approx polarizability: 159.945 -32.183 107.556   9.912  -7.641 100.907

                      1                      2                      3
                      A                      A                      A
 Frequencies --     22.7526                55.4192                88.9145
 Red. masses --      4.2112                 3.2009                 2.4899
 Frc consts  --      0.0013                 0.0058                 0.0116
 IR Inten    --      8.2420                 2.6772                 6.4906

                      4                      5                      6
                      A                      A                      A
 Frequencies --    105.0352               125.3877               177.1395
 Red. masses --      4.4827                 2.2216                 2.7641
 Frc consts  --      0.0291                 0.0206                 0.0511
 IR Inten    --      0.3983                 1.5802                 0.2872

                      7                      8                      9
                      A                      A                      A
 Frequencies --    218.7313               229.2793               256.8054
 Red. masses --      1.2055                 1.3788                 2.8892
 Frc consts  --      0.0340                 0.0427                 0.1123
 IR Inten    --      0.7385                 3.8411                 2.3515

                     10                     11                     12
                      A                      A                      A
 Frequencies --    267.5606               364.0637               407.0980
 Red. masses --      3.2143                 3.6551                 4.9069
 Frc consts  --      0.1356                 0.2854                 0.4791
 IR Inten    --      2.1692                 1.2520                 1.5882

                     13                     14                     15
                      A                      A                      A
 Frequencies --    492.5608               588.5897               608.1892
 Red. masses --      3.6974                 4.4331                 3.9742
 Frc consts  --      0.5285                 0.9049                 0.8661
 IR Inten    --      3.5583                 2.2234                 0.4432

                     16                     17                     18
                      A                      A                      A
 Frequencies --    777.5813               909.1102               962.4937
 Red. masses --      4.0873                 1.6377                 1.5349
 Frc consts  --      1.4560                 0.7975                 0.8378
 IR Inten    --     42.3712                27.1342                 5.4412

                     19                     20                     21
                      A                      A                      A
 Frequencies --    978.6535              1023.1554              1048.2816
 Red. masses --      4.2360                 1.7701                 2.4498
 Frc consts  --      2.3904                 1.0918                 1.5861
 IR Inten    --     10.5293                 0.7542                49.5372

                     22                     23                     24
                      A                      A                      A
 Frequencies --   1093.8475              1131.0981              1164.3639
 Red. masses --      2.3318                 2.0207                 3.5466
 Frc consts  --      1.6438                 1.5232                 2.8329
 IR Inten    --      0.1997                11.3770               141.4899

                     25                     26                     27
                      A                      A                      A
 Frequencies --   1184.8880              1188.4796              1236.8316
 Red. masses --      1.3732                 2.3250                 1.8194
 Frc consts  --      1.1359                 1.9349                 1.6398
 IR Inten    --      3.2677                49.2919                39.4936

                     28                     29                     30
                      A                      A                      A
 Frequencies --   1257.0732              1298.5145              1366.1889
 Red. masses --      1.1622                 1.3116                 1.4668
 Frc consts  --      1.0821                 1.3030                 1.6130
 IR Inten    --      2.8069                 0.5487                32.4515

                     31                     32                     33
                      A                      A                      A
 Frequencies --   1400.3544              1420.6463              1424.0475
 Red. masses --      1.2624                 1.2646                 1.1964
 Frc consts  --      1.4585                 1.5038                 1.4295
 IR Inten    --      7.2383                29.3184                13.9738

                     34                     35                     36
                      A                      A                      A
 Frequencies --   1480.0795              1486.3741              1492.3030
 Red. masses --      1.1511                 1.0467                 1.0461
 Frc consts  --      1.4857                 1.3625                 1.3726
 IR Inten    --      0.8982                 5.5791                 5.5464

                     37                     38                     39
                      A                      A                      A
 Frequencies --   1499.6360              1502.5821              1525.9921
 Red. masses --      1.0556                 1.0569                 1.0933
 Frc consts  --      1.3986                 1.4059                 1.5000
 IR Inten    --      4.5836                 8.4562                 1.3682

                     40                     41                     42
                      A                      A                      A
 Frequencies --   1765.7197              2327.9213              2912.7464
 Red. masses --     10.5175                11.9149                 1.0813
 Frc consts  --     19.3199                38.0434                 5.4051
 IR Inten    --    247.4869               173.7037               106.8335

                     43                     44                     45
                      A                      A                      A
 Frequencies --   2952.5213              2975.0346              2989.9469
 Red. masses --      1.0540                 1.0397                 1.1016
 Frc consts  --      5.4134                 5.4218                 5.8023
 IR Inten    --     40.8114                75.1939                37.5173

                     46                     47                     48
                      A                      A                      A
 Frequencies --   3020.8356              3032.1638              3046.4996
 Red. masses --      1.1028                 1.0834                 1.0348
 Frc consts  --      5.9295                 5.8690                 5.6584
 IR Inten    --     51.0586                17.1928                22.0021

                     49                     50                     51
                      A                      A                      A
 Frequencies --   3120.0073              3120.3560              3130.9833
 Red. masses --      1.1024                 1.0962                 1.1021
 Frc consts  --      6.3228                 6.2886                 6.3657
 IR Inten    --     22.0974                24.4015                15.6310

 - Thermochemistry -
 -------------------
 Temperature   298.150 Kelvin.  Pressure   1.00000 Atm.
 Atom     1 has atomic number  6 and mass  12.00000

 Molecular mass:   126.06808 amu.
 Principal axes and moments of inertia in atomic units:
                           1         2         3
     Eigenvalues --   871.303372235.746342913.15249
           X            0.99968   0.01934  -0.01632
           Y           -0.01924   0.99980   0.00573
           Z            0.01643  -0.00541   0.99985
 This molecule is an asymmetric top.
 Rotational symmetry number  1.
 Warning -- assumption of classical behavior for rotation
           may cause significant error
 Rotational temperatures (Kelvin)      0.09941     0.03874     0.02973
 Rotational constants (GHZ):           2.07131     0.80722     0.61951
 Zero-point vibrational energy     408254.6 (Joules/Mol)
                                   97.57519 (Kcal/Mol)
 Warning -- explicit consideration of  15 degrees of freedom as
           vibrations may cause significant error
 Vibrational temperatures:     32.74    79.74   127.93   151.12   180.40
          (Kelvin)            254.86   314.71   329.88   369.49   384.96
                              523.81   585.72   708.68   846.85   875.05
                             1118.76  1308.01  1384.81  1408.06  1472.09
                             1508.24  1573.80  1627.40  1675.26  1704.79
                             1709.95  1779.52  1808.65  1868.27  1965.64
                             2014.80  2043.99  2048.88  2129.50  2138.56
                             2147.09  2157.64  2161.88  2195.56  2540.47
                             3349.36  4190.79  4248.01  4280.41  4301.86
                             4346.30  4362.60  4383.23  4488.99  4489.49
                             4504.78

 Zero-point correction=                           0.155496 (Hartree/Particle)
 Thermal correction to Energy=                    0.166485
 Thermal correction to Enthalpy=                  0.167429
 Thermal correction to Gibbs Free Energy=         0.117094
 Sum of electronic and zero-point Energies=           -422.994867
 Sum of electronic and thermal Energies=              -422.983878
 Sum of electronic and thermal Enthalpies=            -422.982934
 Sum of electronic and thermal Free Energies=         -423.033269

                     E (Thermal)             CV                S
                      KCal/Mol        Cal/Mol-Kelvin    Cal/Mol-Kelvin
 Total                  104.471             36.336            105.940
 Electronic               0.000              0.000              0.000
 Translational            0.889              2.981             40.409
 Rotational               0.889              2.981             30.119
 Vibrational            102.694             30.375             35.413
 Vibration     1          0.593              1.985              6.378
 Vibration     2          0.596              1.975              4.614
 Vibration     3          0.602              1.957              3.684
 Vibration     4          0.605              1.945              3.359
 Vibration     5          0.610              1.928              3.016
 Vibration     6          0.628              1.870              2.358
 Vibration     7          0.646              1.813              1.970
 Vibration     8          0.652              1.796              1.885
 Vibration     9          0.666              1.751              1.683
 Vibration    10          0.673              1.733              1.612
 Vibration    11          0.738              1.546              1.105
 Vibration    12          0.772              1.455              0.937
 Vibration    13          0.848              1.267              0.677
 Vibration    14          0.946              1.056              0.470
 Vibration    15          0.967              1.014              0.436

 Normal termination of Gaussian 09 at Tue Jan 28 12:38:16 2020.
