 Gaussian 09, Revision D.01,
 Gaussian 09:  ES64L-G09RevD.01 24-Apr-2013

 -----------------------------
 # b3lyp 6-31G(2df,p) opt Freq
 -----------------------------

 -----
 titel
 -----
 Symbolic Z-matrix:
 Charge =  0 Multiplicity = 1

 SCF Done:  E(RB3LYP) =  -423.186126427     A.U. after   14 cycles
 Optimization completed.
    -- Stationary point found.
 Normal termination of Gaussian 09 at Wed Jan 29 10:22:12 2020.

 ----------------------------------------------------------------------
 #N Geom=AllCheck Guess=TCheck SCRF=Check GenChk RB3LYP/6-31G(2df,p) Fr
 eq
 ----------------------------------------------------------------------

 Structure from the checkpoint file:  "/scratch/puck/g09_c7ff49d2-21be-4e21-806b-8357083d588f/Gau-153436.chk"
 -----
 titel
 -----
 Charge =  0 Multiplicity = 1

                         Standard orientation:
 ---------------------------------------------------------------------
 Center     Atomic      Atomic             Coordinates (Angstroms)
 Number     Number       Type             X           Y           Z
 ---------------------------------------------------------------------
      1          6           0        2.322811   -0.830032    0.286618
      2          6           0        0.881398   -0.667389   -0.058833
      3          6           0       -0.081403   -1.581291   -0.240285
      4          6           0       -1.376016   -0.810181   -0.427912
      5          6           0       -0.885658    0.417128   -1.209816
      6          6           0        0.196410    0.699443   -0.145729
      7          8           0        0.996111    1.823645   -0.391842
      8          6           0       -0.736962    0.777951    1.109836
      9          8           0       -1.730248   -0.214820    0.864602
     10          1           0        2.548174   -0.419052    1.280782
     11          1           0        2.618075   -1.882306    0.290157
     12          1           0        2.958568   -0.292180   -0.426487
     13          1           0        0.002017   -2.656294   -0.138062
     14          1           0       -2.247079   -1.353056   -0.788492
     15          1           0       -0.458950    0.181680   -2.185148
     16          1           0       -1.636390    1.207579   -1.291314
     17          1           0        1.565191    1.970086    0.371149
     18          1           0       -0.203355    0.566536    2.046388
     19          1           0       -1.196640    1.772627    1.175663
 ---------------------------------------------------------------------

 SCF Done:  E(RB3LYP) =  -423.186126427     A.U. after    1 cycles

 The electronic state is 1-A.
 Alpha  occ. eigenvalues --  -19.14839 -19.12936 -10.24240 -10.23145 -10.22137
 Alpha  occ. eigenvalues --  -10.19047 -10.18846 -10.18013 -10.17372  -1.03942
 Alpha  occ. eigenvalues --   -1.01979  -0.83909  -0.75151  -0.72915  -0.68155
 Alpha  occ. eigenvalues --   -0.60602  -0.57751  -0.54993  -0.50613  -0.49058
 Alpha  occ. eigenvalues --   -0.45800  -0.43909  -0.41780  -0.41166  -0.40556
 Alpha  occ. eigenvalues --   -0.38650  -0.37748  -0.37010  -0.35719  -0.34247
 Alpha  occ. eigenvalues --   -0.30749  -0.26655  -0.24841  -0.23455
 Alpha virt. eigenvalues --    0.01278   0.05723   0.10848   0.12653   0.13056
 Alpha virt. eigenvalues --    0.14162   0.15060   0.15549   0.15640   0.17448
 Alpha virt. eigenvalues --    0.18031   0.19212   0.20039   0.21805   0.22333

 Mulliken charges:
               1
     1  C   -0.529291
     2  C    0.290404
     3  C   -0.195735
     4  C    0.055328
     5  C   -0.250514
     6  C    0.273555
     7  O   -0.492375
     8  C   -0.121211
     9  O   -0.275430
    10  H    0.121904
    11  H    0.132159
    12  H    0.138396
    13  H    0.096846
    14  H    0.076009
    15  H    0.107498
    16  H    0.103678
    17  H    0.282186
    18  H    0.085815
    19  H    0.100779
 Sum of Mulliken charges =   0.00000

 Dipole moment (field-independent basis, Debye):
    X=              1.7131    Y=             -0.2873    Z=              0.3060  Tot=              1.7637
 Quadrupole moment (field-independent basis, Debye-Ang):
   XX=            -52.7089   YY=            -52.3760   ZZ=            -53.6979
   XY=              0.0287   XZ=              5.3084   YZ=              3.8212

  Exact polarizability:  83.492   1.729  77.802   5.238   3.814  64.777
 Approx polarizability: 122.521  11.681 118.674   5.368   6.430  98.975

                      1                      2                      3
                      A                      A                      A
 Frequencies --    154.8248               169.1888               229.1660
 Red. masses --      2.1466                 1.1919                 1.0749
 Frc consts  --      0.0303                 0.0201                 0.0333
 IR Inten    --      0.2375                 2.8308                86.3767

                      4                      5                      6
                      A                      A                      A
 Frequencies --    239.6275               273.9823               345.0499
 Red. masses --      3.1841                 2.5698                 4.0833
 Frc consts  --      0.1077                 0.1137                 0.2864
 IR Inten    --     10.4384                 3.9197                13.2002

                      7                      8                      9
                      A                      A                      A
 Frequencies --    426.3255               451.5451               491.7377
 Red. masses --      3.0926                 3.6811                 2.1941
 Frc consts  --      0.3312                 0.4422                 0.3126
 IR Inten    --      5.1709                 7.6974                 0.5537

                     10                     11                     12
                      A                      A                      A
 Frequencies --    552.2712               594.9017               647.3697
 Red. masses --      3.3461                 3.8454                 4.7472
 Frc consts  --      0.6013                 0.8018                 1.1722
 IR Inten    --      2.0249                 2.4689                 1.0763

                     13                     14                     15
                      A                      A                      A
 Frequencies --    731.6736               791.4584               814.1927
 Red. masses --      3.4143                 3.2894                 2.1440
 Frc consts  --      1.0769                 1.2140                 0.8374
 IR Inten    --      5.9578                10.4710                 4.3883

                     16                     17                     18
                      A                      A                      A
 Frequencies --    867.7320               892.3879               920.5922
 Red. masses --      2.9526                 2.7995                 2.1016
 Frc consts  --      1.3099                 1.3135                 1.0494
 IR Inten    --     58.4470                 3.3281                 2.9954

                     19                     20                     21
                      A                      A                      A
 Frequencies --    958.0974               967.2287              1005.0246
 Red. masses --      1.8687                 2.0933                 1.6504
 Frc consts  --      1.0107                 1.1538                 0.9822
 IR Inten    --     18.3194                11.2832                14.6856

                     22                     23                     24
                      A                      A                      A
 Frequencies --   1031.3846              1050.1400              1068.4639
 Red. masses --      3.3193                 1.7352                 1.5207
 Frc consts  --      2.0804                 1.1275                 1.0228
 IR Inten    --     29.0035                 5.0170                10.9160

                     25                     26                     27
                      A                      A                      A
 Frequencies --   1086.6742              1151.4120              1169.6576
 Red. masses --      1.6452                 1.8526                 1.7584
 Frc consts  --      1.1446                 1.4471                 1.4174
 IR Inten    --      7.0898                29.1579                15.9947

                     28                     29                     30
                      A                      A                      A
 Frequencies --   1198.0933              1250.0282              1257.7026
 Red. masses --      1.3613                 2.2614                 2.0114
 Frc consts  --      1.1513                 2.0819                 1.8746
 IR Inten    --      6.2102                20.5549                51.4586

                     31                     32                     33
                      A                      A                      A
 Frequencies --   1278.9232              1288.0824              1330.7775
 Red. masses --      1.6610                 1.3427                 1.5245
 Frc consts  --      1.6007                 1.3125                 1.5907
 IR Inten    --      7.7372                 0.4668                 9.5563

                     34                     35                     36
                      A                      A                      A
 Frequencies --   1347.0747              1381.8820              1410.3539
 Red. masses --      2.0274                 1.6526                 1.2903
 Frc consts  --      2.1676                 1.8594                 1.5122
 IR Inten    --     67.2157                 0.8011                 0.5080

                     37                     38                     39
                      A                      A                      A
 Frequencies --   1477.7927              1487.5882              1489.9091
 Red. masses --      1.0444                 1.0657                 1.1301
 Frc consts  --      1.3438                 1.3895                 1.4781
 IR Inten    --      7.2335                 8.1416                 2.7131

                     40                     41                     42
                      A                      A                      A
 Frequencies --   1522.9722              1688.1037              3000.9007
 Red. masses --      1.0932                 7.1479                 1.0549
 Frc consts  --      1.4940                12.0013                 5.5974
 IR Inten    --      1.2567                 5.2283                55.1293

                     43                     44                     45
                      A                      A                      A
 Frequencies --   3010.7177              3043.9266              3063.8856
 Red. masses --      1.0442                 1.1095                 1.0914
 Frc consts  --      5.5767                 6.0567                 6.0364
 IR Inten    --     31.6202                35.9377                15.7588

                     46                     47                     48
                      A                      A                      A
 Frequencies --   3070.8618              3115.7643              3141.4003
 Red. masses --      1.0599                 1.0990                 1.1065
 Frc consts  --      5.8890                 6.2862                 6.4337
 IR Inten    --     29.4161                14.3240                20.1588

                     49                     50                     51
                      A                      A                      A
 Frequencies --   3145.7937              3203.9626              3809.4627
 Red. masses --      1.0910                 1.0964                 1.0660
 Frc consts  --      6.3614                 6.6313                 9.1148
 IR Inten    --     31.8057                12.6777                18.7661

 - Thermochemistry -
 -------------------
 Temperature   298.150 Kelvin.  Pressure   1.00000 Atm.
 Atom     1 has atomic number  6 and mass  12.00000

 Molecular mass:   126.06808 amu.
 Principal axes and moments of inertia in atomic units:
                           1         2         3
     Eigenvalues --   740.72022 989.810801263.45142
           X            0.99629  -0.07474   0.04256
           Y            0.07353   0.99686   0.02925
           Z           -0.04462  -0.02601   0.99867
 This molecule is an asymmetric top.
 Rotational symmetry number  1.
 Warning -- assumption of classical behavior for rotation
           may cause significant error
 Rotational temperatures (Kelvin)      0.11693     0.08751     0.06855
 Rotational constants (GHZ):           2.43647     1.82332     1.42842
 Zero-point vibrational energy     419279.6 (Joules/Mol)
                                  100.21022 (Kcal/Mol)
 Warning -- explicit consideration of  11 degrees of freedom as
           vibrations may cause significant error
 Vibrational temperatures:    222.76   243.42   329.72   344.77   394.20
          (Kelvin)            496.45   613.39   649.67   707.50   794.59
                              855.93   931.42  1052.71  1138.73  1171.44
                             1248.47  1283.95  1324.53  1378.49  1391.62
                             1446.00  1483.93  1510.92  1537.28  1563.48
                             1656.62  1682.87  1723.79  1798.51  1809.55
                             1840.08  1853.26  1914.69  1938.14  1988.22
                             2029.18  2126.21  2140.30  2143.64  2191.21
                             2428.80  4317.62  4331.75  4379.53  4408.24
                             4418.28  4482.88  4519.77  4526.09  4609.78
                             5480.96

 Zero-point correction=                           0.159695 (Hartree/Particle)
 Thermal correction to Energy=                    0.167700
 Thermal correction to Enthalpy=                  0.168645
 Thermal correction to Gibbs Free Energy=         0.127752
 Sum of electronic and zero-point Energies=           -423.026431
 Sum of electronic and thermal Energies=              -423.018426
 Sum of electronic and thermal Enthalpies=            -423.017482
 Sum of electronic and thermal Free Energies=         -423.058374

                     E (Thermal)             CV                S
                      KCal/Mol        Cal/Mol-Kelvin    Cal/Mol-Kelvin
 Total                  105.234             31.992             86.065
 Electronic               0.000              0.000              0.000
 Translational            0.889              2.981             40.409
 Rotational               0.889              2.981             28.318
 Vibrational            103.456             26.030             17.339
 Vibration     1          0.620              1.897              2.612
 Vibration     2          0.625              1.880              2.444
 Vibration     3          0.652              1.796              1.885
 Vibration     4          0.657              1.780              1.806
 Vibration     5          0.676              1.721              1.571
 Vibration     6          0.723              1.585              1.189
 Vibration     7          0.788              1.413              0.871
 Vibration     8          0.810              1.357              0.791
 Vibration     9          0.847              1.268              0.679
 Vibration    10          0.908              1.135              0.539
 Vibration    11          0.953              1.043              0.459

 Optimization completed.
    -- Stationary point found.
 Normal termination of Gaussian 09 at Wed Jan 29 11:07:41 2020.
