 Gaussian 09, Revision D.01,
 Gaussian 09:  ES64L-G09RevD.01 24-Apr-2013

 -----------------------------
 # b3lyp 6-31G(2df,p) opt Freq
 -----------------------------

 -----
 titel
 -----
 Symbolic Z-matrix:
 Charge =  0 Multiplicity = 1

 SCF Done:  E(RB3LYP) =  -423.124285832     A.U. after   14 cycles
 Optimization completed.
    -- Stationary point found.
 Normal termination of Gaussian 09 at Tue Jan 28 13:26:37 2020.

 ----------------------------------------------------------------------
 #N Geom=AllCheck Guess=TCheck SCRF=Check GenChk RB3LYP/6-31G(2df,p) Fr
 eq
 ----------------------------------------------------------------------

 Structure from the checkpoint file:  "/scratch/puck/g09_940c5ee7-5851-4d6a-b859-bcdb081fce7f/Gau-108948.chk"
 -----
 titel
 -----
 Charge =  0 Multiplicity = 1

                         Standard orientation:
 ---------------------------------------------------------------------
 Center     Atomic      Atomic             Coordinates (Angstroms)
 Number     Number       Type             X           Y           Z
 ---------------------------------------------------------------------
      1          6           0       -1.234640    2.132102   -0.626185
      2          8           0       -1.406519    1.288839    0.500890
      3          6           0       -1.570573   -0.040039    0.157020
      4          6           0       -1.204574   -1.058405    1.187979
      5          6           0       -0.364081   -0.930640   -0.085985
      6          8           0       -0.577945   -1.891630   -1.088691
      7          6           0        0.967319   -0.396282    0.007181
      8          6           0        2.102378    0.006305    0.062128
      9          6           0        3.466962    0.507668    0.129337
     10          1           0       -0.335403    1.861953   -1.193627
     11          1           0       -2.105860    2.085402   -1.296486
     12          1           0       -1.132225    3.151404   -0.247418
     13          1           0       -2.419830   -0.258323   -0.493309
     14          1           0       -0.765604   -0.687521    2.106650
     15          1           0       -1.826818   -1.941919    1.273331
     16          1           0       -0.031651   -2.657634   -0.877874
     17          1           0        4.107327   -0.141554    0.737046
     18          1           0        3.914450    0.577416   -0.868398
     19          1           0        3.494580    1.508854    0.573646
 ---------------------------------------------------------------------

 SCF Done:  E(RB3LYP) =  -423.124285832     A.U. after    1 cycles

 The electronic state is 1-A.
 Alpha  occ. eigenvalues --  -19.14526 -19.14502 -10.25365 -10.23607 -10.21999
 Alpha  occ. eigenvalues --  -10.20428 -10.18572 -10.17578 -10.16807  -1.04454
 Alpha  occ. eigenvalues --   -1.02763  -0.84492  -0.77411  -0.70864  -0.68493
 Alpha  occ. eigenvalues --   -0.61771  -0.59390  -0.54078  -0.50390  -0.47799
 Alpha  occ. eigenvalues --   -0.45505  -0.44779  -0.42903  -0.42676  -0.42428
 Alpha  occ. eigenvalues --   -0.42088  -0.38169  -0.35055  -0.34222  -0.30474
 Alpha  occ. eigenvalues --   -0.27509  -0.26871  -0.25462  -0.21980
 Alpha virt. eigenvalues --    0.03946   0.05418   0.09675   0.10420   0.11231
 Alpha virt. eigenvalues --    0.12820   0.14395   0.15244   0.15924   0.17221
 Alpha virt. eigenvalues --    0.17368   0.18215   0.18910   0.20264   0.21775

 Mulliken charges:
               1
     1  C   -0.240249
     2  O   -0.229964
     3  C    0.092372
     4  C   -0.380281
     5  C    0.146775
     6  O   -0.445207
     7  C    0.108989
     8  C    0.005711
     9  C   -0.500852
    10  H    0.125664
    11  H    0.107196
    12  H    0.125604
    13  H    0.098212
    14  H    0.133314
    15  H    0.119717
    16  H    0.284255
    17  H    0.146792
    18  H    0.149559
    19  H    0.152393
 Sum of Mulliken charges =   0.00000

 Dipole moment (field-independent basis, Debye):
    X=              1.3233    Y=             -0.2777    Z=              0.0364  Tot=              1.3526
 Quadrupole moment (field-independent basis, Debye-Ang):
   XX=            -47.1981   YY=            -47.4269   ZZ=            -55.1669
   XY=              0.8266   XZ=              0.7635   YZ=             -3.3131

  Exact polarizability: 105.584   8.403  78.411   0.273  -2.266  63.132
 Approx polarizability: 150.752  16.712 107.225   0.977   0.384  94.681

                      1                      2                      3
                      A                      A                      A
 Frequencies --     26.6084                72.4390               102.5606
 Red. masses --      1.0172                 3.4958                 3.1343
 Frc consts  --      0.0004                 0.0108                 0.0194
 IR Inten    --      0.0343                 0.1417                 1.6083

                      4                      5                      6
                      A                      A                      A
 Frequencies --    141.8660               175.1052               188.1501
 Red. masses --      2.5991                 2.3794                 1.6765
 Frc consts  --      0.0308                 0.0430                 0.0350
 IR Inten    --      9.0888                 4.2781                 2.0391

                      7                      8                      9
                      A                      A                      A
 Frequencies --    242.5900               284.5286               314.3378
 Red. masses --      2.8085                 1.2458                 3.3319
 Frc consts  --      0.0974                 0.0594                 0.1940
 IR Inten    --      1.2959                65.4238                 0.9087

                     10                     11                     12
                      A                      A                      A
 Frequencies --    352.6591               378.0827               440.1690
 Red. masses --      3.2048                 4.1453                 3.7598
 Frc consts  --      0.2348                 0.3491                 0.4292
 IR Inten    --     41.8395                 8.7118                 6.9898

                     13                     14                     15
                      A                      A                      A
 Frequencies --    473.0872               565.2680               586.9206
 Red. masses --      2.9466                 6.1604                 4.1047
 Frc consts  --      0.3886                 1.1598                 0.8331
 IR Inten    --      1.3229                 8.6008                 2.7060

                     16                     17                     18
                      A                      A                      A
 Frequencies --    638.2871               804.0501               884.2308
 Red. masses --      4.6193                 2.2917                 2.1455
 Frc consts  --      1.1088                 0.8729                 0.9883
 IR Inten    --      8.5157                11.4816                16.9314

                     19                     20                     21
                      A                      A                      A
 Frequencies --    895.5158               992.8147              1023.2236
 Red. masses --      2.3275                 2.8635                 1.7018
 Frc consts  --      1.0998                 1.6630                 1.0498
 IR Inten    --      6.9836                 3.5725                21.0042

                     22                     23                     24
                      A                      A                      A
 Frequencies --   1050.9830              1054.6081              1063.6157
 Red. masses --      1.4155                 1.4011                 1.9540
 Frc consts  --      0.9212                 0.9181                 1.3024
 IR Inten    --      0.7236                 2.2066                27.1847

                     25                     26                     27
                      A                      A                      A
 Frequencies --   1084.4649              1116.9413              1169.0909
 Red. masses --      2.8990                 1.9085                 2.3425
 Frc consts  --      2.0088                 1.4028                 1.8864
 IR Inten    --     21.5408                64.1063                89.1895

                     28                     29                     30
                      A                      A                      A
 Frequencies --   1183.1323              1210.4052              1259.6505
 Red. masses --      1.3018                 1.6974                 2.1498
 Frc consts  --      1.0737                 1.4652                 2.0098
 IR Inten    --      6.4496                46.1306                44.1884

                     31                     32                     33
                      A                      A                      A
 Frequencies --   1313.1947              1359.0431              1393.6331
 Red. masses --      2.1414                 1.6992                 1.4009
 Frc consts  --      2.1757                 1.8491                 1.6030
 IR Inten    --     10.6037                56.4089                23.8275

                     34                     35                     36
                      A                      A                      A
 Frequencies --   1414.5022              1459.9219              1476.1298
 Red. masses --      1.2580                 1.3802                 1.0395
 Frc consts  --      1.4830                 1.7332                 1.3346
 IR Inten    --      8.0337                17.8419                 5.4972

                     37                     38                     39
                      A                      A                      A
 Frequencies --   1479.5111              1487.2735              1492.2975
 Red. masses --      1.0403                 1.0604                 1.3252
 Frc consts  --      1.3416                 1.3819                 1.7387
 IR Inten    --      5.3915                 4.2801                 9.4611

                     40                     41                     42
                      A                      A                      A
 Frequencies --   1505.8453              2360.0107              2992.1064
 Red. masses --      1.0674                11.8687                 1.0397
 Frc consts  --      1.4261                38.9478                 5.4841
 IR Inten    --      3.3267                 3.0435                57.0469

                     43                     44                     45
                      A                      A                      A
 Frequencies --   3025.3604              3058.8683              3084.3532
 Red. masses --      1.0348                 1.0971                 1.1004
 Frc consts  --      5.5801                 6.0482                 6.1677
 IR Inten    --     35.3688                38.6671                11.0268

                     46                     47                     48
                      A                      A                      A
 Frequencies --   3088.1922              3089.2904              3123.9176
 Red. masses --      1.0997                 1.0870                 1.1000
 Frc consts  --      6.1794                 6.1121                 6.3245
 IR Inten    --      8.6648                22.1520                26.6575

                     49                     50                     51
                      A                      A                      A
 Frequencies --   3141.1410              3241.5521              3789.3187
 Red. masses --      1.0539                 1.1183                 1.0661
 Frc consts  --      6.1266                 6.9233                 9.0194
 IR Inten    --      4.6989                 3.1894                18.8567

 - Thermochemistry -
 -------------------
 Temperature   298.150 Kelvin.  Pressure   1.00000 Atm.
 Atom     1 has atomic number  6 and mass  12.00000

 Molecular mass:   126.06808 amu.
 Principal axes and moments of inertia in atomic units:
                           1         2         3
     Eigenvalues --   914.961101534.634772043.50394
           X            0.99980   0.01907   0.00679
           Y           -0.01872   0.99868  -0.04793
           Z           -0.00769   0.04779   0.99883
 This molecule is an asymmetric top.
 Rotational symmetry number  1.
 Warning -- assumption of classical behavior for rotation
           may cause significant error
 Rotational temperatures (Kelvin)      0.09466     0.05644     0.04238
 Rotational constants (GHZ):           1.97248     1.17601     0.88316
 Zero-point vibrational energy     407632.6 (Joules/Mol)
                                   97.42653 (Kcal/Mol)
 Warning -- explicit consideration of  15 degrees of freedom as
           vibrations may cause significant error
 Vibrational temperatures:     38.28   104.22   147.56   204.11   251.94
          (Kelvin)            270.71   349.03   409.37   452.26   507.40
                              543.98   633.30   680.67   813.29   844.45
                              918.35  1156.85  1272.21  1288.45  1428.44
                             1472.19  1512.13  1517.34  1530.30  1560.30
                             1607.03  1682.06  1702.26  1741.50  1812.35
                             1889.39  1955.36  2005.12  2035.15  2100.50
                             2123.82  2128.68  2139.85  2147.08  2166.57
                             3395.52  4304.97  4352.81  4401.02  4437.69
                             4443.21  4444.79  4494.61  4519.40  4663.86
                             5451.98

 Zero-point correction=                           0.155259 (Hartree/Particle)
 Thermal correction to Energy=                    0.165898
 Thermal correction to Enthalpy=                  0.166842
 Thermal correction to Gibbs Free Energy=         0.118417
 Sum of electronic and zero-point Energies=           -422.969027
 Sum of electronic and thermal Energies=              -422.958388
 Sum of electronic and thermal Enthalpies=            -422.957444
 Sum of electronic and thermal Free Energies=         -423.005869

                     E (Thermal)             CV                S
                      KCal/Mol        Cal/Mol-Kelvin    Cal/Mol-Kelvin
 Total                  104.103             37.211            101.919
 Electronic               0.000              0.000              0.000
 Translational            0.889              2.981             40.409
 Rotational               0.889              2.981             29.441
 Vibrational            102.325             31.250             32.069
 Vibration     1          0.593              1.984              6.067
 Vibration     2          0.599              1.967              4.086
 Vibration     3          0.605              1.947              3.405
 Vibration     4          0.615              1.911              2.779
 Vibration     5          0.627              1.873              2.380
 Vibration     6          0.633              1.856              2.246
 Vibration     7          0.659              1.775              1.784
 Vibration     8          0.683              1.702              1.506
 Vibration     9          0.702              1.646              1.339
 Vibration    10          0.729              1.570              1.154
 Vibration    11          0.748              1.517              1.047
 Vibration    12          0.800              1.383              0.826
 Vibration    13          0.830              1.310              0.729
 Vibration    14          0.921              1.106              0.513
 Vibration    15          0.944              1.060              0.473

 Optimization completed on the basis of negligible forces.
    -- Stationary point found.
 Normal termination of Gaussian 09 at Tue Jan 28 14:02:50 2020.
