 Gaussian 09, Revision D.01,
 Gaussian 09:  ES64L-G09RevD.01 24-Apr-2013

 -----------------------------
 # b3lyp 6-31G(2df,p) opt Freq
 -----------------------------

 -----
 titel
 -----
 Symbolic Z-matrix:
 Charge =  0 Multiplicity = 1

 SCF Done:  E(RB3LYP) =  -423.091370091     A.U. after   14 cycles
 Optimization completed.
    -- Stationary point found.
 Normal termination of Gaussian 09 at Mon Jan 27 15:27:18 2020.

 ----------------------------------------------------------------------
 #N Geom=AllCheck Guess=TCheck SCRF=Check GenChk RB3LYP/6-31G(2df,p) Fr
 eq
 ----------------------------------------------------------------------

 Structure from the checkpoint file:  "/scratch/puck/g09_49954f8c-3dad-435c-a9c5-5c7681b96115/Gau-173904.chk"
 -----
 titel
 -----
 Charge =  0 Multiplicity = 1

                         Standard orientation:
 ---------------------------------------------------------------------
 Center     Atomic      Atomic             Coordinates (Angstroms)
 Number     Number       Type             X           Y           Z
 ---------------------------------------------------------------------
      1          6           0        2.040465    1.369269    0.208105
      2          6           0        1.530122   -0.075497    0.325504
      3          6           0        2.166936   -0.993619   -0.730538
      4          6           0        0.033851   -0.133557    0.230746
      5          8           0       -0.661696   -1.283351    0.712941
      6          6           0       -1.058683    0.001554    1.197890
      7          6           0       -1.968796    0.675225    0.095137
      8          8           0       -2.090718   -0.231682   -0.997752
      9          6           0       -0.893617    0.535468   -0.884435
     10          1           0        3.127750    1.401577    0.326367
     11          1           0        1.805459    1.796729   -0.772969
     12          1           0        1.597003    2.014678    0.972753
     13          1           0        1.791765   -0.459787    1.319383
     14          1           0        1.921394   -0.657012   -1.744182
     15          1           0        3.257138   -0.996245   -0.634556
     16          1           0        1.808654   -2.020813   -0.620798
     17          1           0       -1.064702    0.172745    2.267591
     18          1           0       -2.727310    1.435941    0.229641
     19          1           0       -0.599510    1.159390   -1.719191
 ---------------------------------------------------------------------

 SCF Done:  E(RB3LYP) =  -423.091370091     A.U. after    1 cycles

 The electronic state is 1-A.
 Alpha  occ. eigenvalues --  -19.15735 -19.15466 -10.24302 -10.24261 -10.24074
 Alpha  occ. eigenvalues --  -10.23956 -10.20183 -10.18501 -10.17822  -1.10729
 Alpha  occ. eigenvalues --   -1.05122  -0.80865  -0.74619  -0.69080  -0.66155
 Alpha  occ. eigenvalues --   -0.62405  -0.59011  -0.56049  -0.51472  -0.48901
 Alpha  occ. eigenvalues --   -0.46320  -0.44843  -0.43039  -0.40957  -0.39492
 Alpha  occ. eigenvalues --   -0.39019  -0.36984  -0.36527  -0.34977  -0.34409
 Alpha  occ. eigenvalues --   -0.32970  -0.29097  -0.25044  -0.24684
 Alpha virt. eigenvalues --    0.04506   0.07356   0.09023   0.11128   0.12163
 Alpha virt. eigenvalues --    0.12879   0.14339   0.14762   0.15380   0.16224
 Alpha virt. eigenvalues --    0.17216   0.18431   0.19370   0.19658   0.20718

 Mulliken charges:
               1
     1  C   -0.397965
     2  C   -0.104874
     3  C   -0.394681
     4  C    0.443792
     5  O   -0.270585
     6  C   -0.131990
     7  C   -0.009208
     8  O   -0.211890
     9  C   -0.068518
    10  H    0.119997
    11  H    0.118325
    12  H    0.116901
    13  H    0.089538
    14  H    0.117090
    15  H    0.113043
    16  H    0.137143
    17  H    0.110146
    18  H    0.112364
    19  H    0.111373
 Sum of Mulliken charges =   0.00000

 Dipole moment (field-independent basis, Debye):
    X=              1.6202    Y=              2.7021    Z=              0.8513  Tot=              3.2636
 Quadrupole moment (field-independent basis, Debye-Ang):
   XX=            -53.2765   YY=            -55.0822   ZZ=            -51.4245
   XY=             -4.3171   XZ=             -3.0844   YZ=              0.1097

  Exact polarizability:  84.818  -3.880  66.097  -3.757  -0.366  71.060
 Approx polarizability: 114.738  -2.504 102.703  -6.490  -0.276 111.155

                      1                      2                      3
                      A                      A                      A
 Frequencies --     63.0349               134.9191               170.3449
 Red. masses --      3.0521                 3.3741                 2.6007
 Frc consts  --      0.0071                 0.0362                 0.0445
 IR Inten    --      1.8002                 2.6621                 0.3279

                      4                      5                      6
                      A                      A                      A
 Frequencies --    218.8181               247.9827               306.2328
 Red. masses --      1.0580                 1.1423                 2.7029
 Frc consts  --      0.0298                 0.0414                 0.1493
 IR Inten    --      0.0063                 0.0417                 0.2871

                      7                      8                      9
                      A                      A                      A
 Frequencies --    347.3449               419.7338               469.9205
 Red. masses --      3.4062                 7.9144                 2.8744
 Frc consts  --      0.2421                 0.8215                 0.3740
 IR Inten    --      2.1680                 0.4032                 2.5079

                     10                     11                     12
                      A                      A                      A
 Frequencies --    511.0868               576.0049               688.2494
 Red. masses --      3.6080                 3.3970                 5.2218
 Frc consts  --      0.5553                 0.6640                 1.4573
 IR Inten    --      2.7735                 3.3440                28.4717

                     13                     14                     15
                      A                      A                      A
 Frequencies --    763.9905               807.2164               823.8334
 Red. masses --      3.1999                 6.6027                 4.0728
 Frc consts  --      1.1004                 2.5348                 1.6286
 IR Inten    --      2.2616                 4.8624                 2.7715

                     16                     17                     18
                      A                      A                      A
 Frequencies --    854.4197               871.9385               891.2999
 Red. masses --      1.5103                 2.6468                 3.8632
 Frc consts  --      0.6496                 1.1856                 1.8082
 IR Inten    --     12.9289                 3.6050                 3.1894

                     19                     20                     21
                      A                      A                      A
 Frequencies --    928.0735               942.4021               972.5208
 Red. masses --      1.2583                 1.8579                 1.6279
 Frc consts  --      0.6386                 0.9722                 0.9071
 IR Inten    --      2.6554                24.6822                 1.5966

                     22                     23                     24
                      A                      A                      A
 Frequencies --    982.4371               987.8023              1028.1673
 Red. masses --      3.3961                 1.7954                 1.3368
 Frc consts  --      1.9313                 1.0322                 0.8326
 IR Inten    --     26.7552                 1.5679                 1.3295

                     25                     26                     27
                      A                      A                      A
 Frequencies --   1030.7396              1128.6388              1173.0254
 Red. masses --      2.3595                 2.2832                 1.6761
 Frc consts  --      1.4769                 1.7135                 1.3588
 IR Inten    --     16.2049                 0.1944                 1.2242

                     28                     29                     30
                      A                      A                      A
 Frequencies --   1185.4768              1203.6595              1236.7182
 Red. masses --      1.4751                 1.4124                 1.5701
 Frc consts  --      1.2214                 1.2057                 1.4149
 IR Inten    --      5.9484                 4.5672                 4.1137

                     31                     32                     33
                      A                      A                      A
 Frequencies --   1259.5041              1326.1905              1340.8574
 Red. masses --      1.9314                 1.5001                 1.3566
 Frc consts  --      1.8052                 1.5545                 1.4370
 IR Inten    --      3.3776                16.0562                 2.5217

                     34                     35                     36
                      A                      A                      A
 Frequencies --   1366.1709              1397.7453              1418.1315
 Red. masses --      4.9180                 1.2294                 1.2505
 Frc consts  --      5.4081                 1.4152                 1.4817
 IR Inten    --     14.5592                 3.7723                 2.5855

                     37                     38                     39
                      A                      A                      A
 Frequencies --   1466.4146              1487.9724              1490.9312
 Red. masses --      3.4114                 1.0465                 1.0477
 Frc consts  --      4.3221                 1.3652                 1.3722
 IR Inten    --      7.8467                 0.0328                 2.1001

                     40                     41                     42
                      A                      A                      A
 Frequencies --   1503.2777              1515.7733              3029.0897
 Red. masses --      1.0457                 1.1976                 1.0789
 Frc consts  --      1.3924                 1.6211                 5.8324
 IR Inten    --      7.5791                 6.4518                 6.1558

                     43                     44                     45
                      A                      A                      A
 Frequencies --   3031.9409              3036.1992              3097.9053
 Red. masses --      1.0354                 1.0396                 1.1009
 Frc consts  --      5.6080                 5.6466                 6.2247
 IR Inten    --     20.7591                22.1492                 4.5754

                     46                     47                     48
                      A                      A                      A
 Frequencies --   3103.2730              3108.8579              3118.2358
 Red. masses --      1.1004                 1.1018                 1.1017
 Frc consts  --      6.2436                 6.2740                 6.3117
 IR Inten    --     48.6353                29.7607                19.0525

                     49                     50                     51
                      A                      A                      A
 Frequencies --   3187.8207              3193.1919              3206.3718
 Red. masses --      1.0891                 1.0918                 1.1028
 Frc consts  --      6.5209                 6.5593                 6.6802
 IR Inten    --      4.6277                17.0363                11.4942

 - Thermochemistry -
 -------------------
 Temperature   298.150 Kelvin.  Pressure   1.00000 Atm.
 Atom     1 has atomic number  6 and mass  12.00000

 Molecular mass:   126.06808 amu.
 Principal axes and moments of inertia in atomic units:
                           1         2         3
     Eigenvalues --   586.169681429.858941482.80608
           X            0.99975  -0.00762  -0.02121
           Y            0.01072   0.98860   0.15019
           Z            0.01982  -0.15037   0.98843
 This molecule is an asymmetric top.
 Rotational symmetry number  1.
 Warning -- assumption of classical behavior for rotation
           may cause significant error
 Rotational temperatures (Kelvin)      0.14776     0.06058     0.05841
 Rotational constants (GHZ):           3.07887     1.26218     1.21711
 Zero-point vibrational energy     410629.5 (Joules/Mol)
                                   98.14280 (Kcal/Mol)
 Warning -- explicit consideration of  11 degrees of freedom as
           vibrations may cause significant error
 Vibrational temperatures:     90.69   194.12   245.09   314.83   356.79
          (Kelvin)            440.60   499.75   603.90   676.11   735.34
                              828.74   990.24  1099.21  1161.40  1185.31
                             1229.32  1254.52  1282.38  1335.29  1355.90
                             1399.24  1413.51  1421.23  1479.30  1483.00
                             1623.86  1687.72  1705.63  1731.80  1779.36
                             1812.14  1908.09  1929.19  1965.61  2011.04
                             2040.37  2109.84  2140.86  2145.11  2162.88
                             2180.86  4358.18  4362.28  4368.41  4457.19
                             4464.91  4472.95  4486.44  4586.56  4594.29
                             4613.25

 Zero-point correction=                           0.156401 (Hartree/Particle)
 Thermal correction to Energy=                    0.165030
 Thermal correction to Enthalpy=                  0.165974
 Thermal correction to Gibbs Free Energy=         0.123088
 Sum of electronic and zero-point Energies=           -422.934970
 Sum of electronic and thermal Energies=              -422.926340
 Sum of electronic and thermal Enthalpies=            -422.925396
 Sum of electronic and thermal Free Energies=         -422.968282

                     E (Thermal)             CV                S
                      KCal/Mol        Cal/Mol-Kelvin    Cal/Mol-Kelvin
 Total                  103.558             33.056             90.261
 Electronic               0.000              0.000              0.000
 Translational            0.889              2.981             40.409
 Rotational               0.889              2.981             28.610
 Vibrational            101.780             27.094             21.242
 Vibration     1          0.597              1.972              4.360
 Vibration     2          0.613              1.918              2.875
 Vibration     3          0.625              1.879              2.432
 Vibration     4          0.647              1.812              1.969
 Vibration     5          0.662              1.766              1.745
 Vibration     6          0.697              1.662              1.383
 Vibration     7          0.725              1.581              1.178
 Vibration     8          0.782              1.427              0.893
 Vibration     9          0.827              1.317              0.738
 Vibration    10          0.866              1.225              0.631
 Vibration    11          0.932              1.083              0.493

 Optimization completed.
    -- Stationary point found.
 Normal termination of Gaussian 09 at Mon Jan 27 16:07:57 2020.
