 Gaussian 09, Revision D.01,
 Gaussian 09:  ES64L-G09RevD.01 24-Apr-2013

 -----------------------------
 # b3lyp 6-31G(2df,p) opt Freq
 -----------------------------

 -----
 titel
 -----
 Symbolic Z-matrix:
 Charge =  0 Multiplicity = 1

 SCF Done:  E(RB3LYP) =  -423.151085038     A.U. after   14 cycles
 Optimization completed.
    -- Stationary point found.
 Normal termination of Gaussian 09 at Tue Jan 28 11:39:00 2020.

 ----------------------------------------------------------------------
 #N Geom=AllCheck Guess=TCheck SCRF=Check GenChk RB3LYP/6-31G(2df,p) Fr
 eq
 ----------------------------------------------------------------------

 Structure from the checkpoint file:  "/scratch/puck/g09_22569d7d-9bfe-485e-8826-f5effbfcfab3/Gau-26312.chk"
 -----
 titel
 -----
 Charge =  0 Multiplicity = 1

                         Standard orientation:
 ---------------------------------------------------------------------
 Center     Atomic      Atomic             Coordinates (Angstroms)
 Number     Number       Type             X           Y           Z
 ---------------------------------------------------------------------
      1          6           0       -3.005479   -0.403157    0.414837
      2          8           0       -1.868095    0.427433    0.567336
      3          6           0       -0.995263    0.389448   -0.523511
      4          8           0       -0.363033   -0.897843   -0.650388
      5          6           0        1.036754   -0.721963   -0.593329
      6          6           0        1.952340   -0.971142    0.668338
      7          6           0        2.558524    0.468518    0.436061
      8          6           0        1.280511    0.722407   -0.333591
      9          6           0        0.128359    1.374294   -0.242791
     10          1           0       -2.725484   -1.461982    0.366983
     11          1           0       -3.642012   -0.235171    1.286341
     12          1           0       -3.569344   -0.146775   -0.495192
     13          1           0       -1.572105    0.557431   -1.449858
     14          1           0        1.496090   -1.154823   -1.490533
     15          1           0        1.355719   -1.005711    1.581017
     16          1           0        2.642853   -1.816459    0.624859
     17          1           0        2.752365    1.094397    1.307916
     18          1           0        3.455528    0.427987   -0.188474
     19          1           0       -0.079060    2.353955    0.165273
 ---------------------------------------------------------------------

 SCF Done:  E(RB3LYP) =  -423.151085038     A.U. after    1 cycles

 The electronic state is 1-A.
 Alpha  occ. eigenvalues --  -19.13849 -19.13741 -10.27476 -10.22988 -10.21826
 Alpha  occ. eigenvalues --  -10.20229 -10.19372 -10.19047 -10.17970  -1.06174
 Alpha  occ. eigenvalues --   -1.00668  -0.85272  -0.76302  -0.69622  -0.66253
 Alpha  occ. eigenvalues --   -0.62651  -0.58040  -0.55011  -0.50007  -0.48960
 Alpha  occ. eigenvalues --   -0.47592  -0.46263  -0.43214  -0.41745  -0.40188
 Alpha  occ. eigenvalues --   -0.37778  -0.36879  -0.35206  -0.34235  -0.32237
 Alpha  occ. eigenvalues --   -0.30664  -0.26823  -0.25828  -0.23855
 Alpha virt. eigenvalues --    0.00410   0.09851   0.11319   0.11668   0.12944
 Alpha virt. eigenvalues --    0.13760   0.14355   0.15872   0.16401   0.17603
 Alpha virt. eigenvalues --    0.17762   0.17989   0.18599   0.19649   0.21464

 Mulliken charges:
               1
     1  C   -0.238766
     2  O   -0.233312
     3  C    0.192254
     4  O   -0.290409
     5  C    0.090590
     6  C   -0.256736
     7  C   -0.307717
     8  C    0.219554
     9  C   -0.265638
    10  H    0.127452
    11  H    0.124526
    12  H    0.104075
    13  H    0.067562
    14  H    0.085974
    15  H    0.127744
    16  H    0.103599
    17  H    0.120255
    18  H    0.117536
    19  H    0.111455
 Sum of Mulliken charges =   0.00000

 Dipole moment (field-independent basis, Debye):
    X=              0.8832    Y=              0.1289    Z=             -0.0341  Tot=              0.8932
 Quadrupole moment (field-independent basis, Debye-Ang):
   XX=            -46.4739   YY=            -53.5815   ZZ=            -53.5403
   XY=             -0.1390   XZ=              0.6783   YZ=             -0.4628

  Exact polarizability: 103.809  -7.067  71.969   1.910   0.710  62.534
 Approx polarizability: 138.058 -15.746 110.949   0.545   3.255  95.024

                      1                      2                      3
                      A                      A                      A
 Frequencies --     64.7933               115.0260               171.1413
 Red. masses --      4.0076                 2.5136                 1.5870
 Frc consts  --      0.0099                 0.0196                 0.0274
 IR Inten    --      1.9174                 4.0692                 1.5526

                      4                      5                      6
                      A                      A                      A
 Frequencies --    194.3147               296.1329               328.6093
 Red. masses --      1.5733                 2.8412                 2.9632
 Frc consts  --      0.0350                 0.1468                 0.1885
 IR Inten    --      0.2774                 0.7833                 3.5106

                      7                      8                      9
                      A                      A                      A
 Frequencies --    379.3796               437.5312               536.9194
 Red. masses --      3.2825                 3.8852                 4.6995
 Frc consts  --      0.2784                 0.4382                 0.7982
 IR Inten    --      3.3211                 0.9239                 4.8489

                     10                     11                     12
                      A                      A                      A
 Frequencies --    674.3950               694.1565               748.2394
 Red. masses --      3.3937                 2.3811                 2.8332
 Frc consts  --      0.9094                 0.6760                 0.9346
 IR Inten    --      3.4138                 7.3263                11.9571

                     13                     14                     15
                      A                      A                      A
 Frequencies --    791.2744               812.2788               834.8929
 Red. masses --      1.9742                 3.0695                 1.4374
 Frc consts  --      0.7283                 1.1932                 0.5903
 IR Inten    --      3.3564                24.9600                14.4974

                     16                     17                     18
                      A                      A                      A
 Frequencies --    910.8364               934.9579               949.7631
 Red. masses --      3.3693                 3.9168                 2.3309
 Frc consts  --      1.6469                 2.0173                 1.2388
 IR Inten    --      4.2714                82.6760                 0.3122

                     19                     20                     21
                      A                      A                      A
 Frequencies --    987.6629              1015.8875              1020.8047
 Red. masses --      4.5616                 2.6229                 2.1539
 Frc consts  --      2.6217                 1.5949                 1.3224
 IR Inten    --     28.1156                22.6777                 8.0935

                     22                     23                     24
                      A                      A                      A
 Frequencies --   1071.0454              1106.7000              1116.2115
 Red. masses --      1.5694                 3.5003                 2.2674
 Frc consts  --      1.0607                 2.5259                 1.6644
 IR Inten    --     32.8425               196.6640                52.9216

                     25                     26                     27
                      A                      A                      A
 Frequencies --   1145.6816              1167.4096              1178.9433
 Red. masses --      3.1135                 1.3916                 1.2953
 Frc consts  --      2.4079                 1.1174                 1.0607
 IR Inten    --     51.2589                 6.3722                 3.1742

                     28                     29                     30
                      A                      A                      A
 Frequencies --   1210.0096              1217.2430              1235.6206
 Red. masses --      1.2258                 1.4672                 1.4980
 Frc consts  --      1.0574                 1.2808                 1.3475
 IR Inten    --     10.8900                32.7919                16.5867

                     31                     32                     33
                      A                      A                      A
 Frequencies --   1243.6498              1302.1235              1337.1379
 Red. masses --      1.4601                 1.8038                 1.5274
 Frc consts  --      1.3305                 1.8019                 1.6090
 IR Inten    --      5.7863                 0.1479                32.6196

                     34                     35                     36
                      A                      A                      A
 Frequencies --   1371.8938              1397.6995              1469.3908
 Red. masses --      1.4353                 1.2054                 1.0943
 Frc consts  --      1.5916                 1.3874                 1.3921
 IR Inten    --     23.8505                53.2062                 2.2506

                     37                     38                     39
                      A                      A                      A
 Frequencies --   1476.9346              1483.9063              1485.4814
 Red. masses --      1.1595                 1.0581                 1.1182
 Frc consts  --      1.4903                 1.3728                 1.4538
 IR Inten    --      3.3922                 2.9514                 0.6814

                     40                     41                     42
                      A                      A                      A
 Frequencies --   1512.9349              1728.4619              2945.4753
 Red. masses --      1.0535                 8.5634                 1.0816
 Frc consts  --      1.4208                15.0735                 5.5288
 IR Inten    --      4.8119                13.2005                81.1301

                     43                     44                     45
                      A                      A                      A
 Frequencies --   2989.4503              3028.4279              3063.5114
 Red. masses --      1.0433                 1.0844                 1.0853
 Frc consts  --      5.4934                 5.8598                 6.0013
 IR Inten    --     71.5707                44.1070                45.5742

                     46                     47                     48
                      A                      A                      A
 Frequencies --   3063.6484              3070.6755              3123.1354
 Red. masses --      1.0672                 1.0591                 1.1007
 Frc consts  --      5.9017                 5.8837                 6.3254
 IR Inten    --     17.9747                49.3340                26.4239

                     49                     50                     51
                      A                      A                      A
 Frequencies --   3126.4300              3147.0700              3230.5145
 Red. masses --      1.1049                 1.1086                 1.0964
 Frc consts  --      6.3631                 6.4688                 6.7415
 IR Inten    --     11.5840                25.5924                 2.6949

 - Thermochemistry -
 -------------------
 Temperature   298.150 Kelvin.  Pressure   1.00000 Atm.
 Atom     1 has atomic number  6 and mass  12.00000

 Molecular mass:   126.06808 amu.
 Principal axes and moments of inertia in atomic units:
                           1         2         3
     Eigenvalues --   450.496071587.441131736.37288
           X            0.99996   0.00298   0.00783
           Y           -0.00282   0.99979  -0.02013
           Z           -0.00789   0.02011   0.99977
 This molecule is an asymmetric top.
 Rotational symmetry number  1.
 Warning -- assumption of classical behavior for rotation
           may cause significant error
 Rotational temperatures (Kelvin)      0.19226     0.05456     0.04988
 Rotational constants (GHZ):           4.00612     1.13689     1.03937
 Zero-point vibrational energy     418368.9 (Joules/Mol)
                                   99.99256 (Kcal/Mol)
 Warning -- explicit consideration of   9 degrees of freedom as
           vibrations may cause significant error
 Vibrational temperatures:     93.22   165.50   246.23   279.58   426.07
          (Kelvin)            472.79   545.84   629.51   772.51   970.30
                              998.74  1076.55  1138.47  1168.69  1201.22
                             1310.49  1345.19  1366.50  1421.02  1461.63
                             1468.71  1540.99  1592.29  1605.98  1648.38
                             1679.64  1696.23  1740.93  1751.34  1777.78
                             1789.33  1873.46  1923.84  1973.85  2010.98
                             2114.12  2124.98  2135.01  2137.27  2176.77
                             2486.87  4237.88  4301.15  4357.23  4407.70
                             4407.90  4418.01  4493.49  4498.23  4527.93
                             4647.98

 Zero-point correction=                           0.159348 (Hartree/Particle)
 Thermal correction to Energy=                    0.167549
 Thermal correction to Enthalpy=                  0.168494
 Thermal correction to Gibbs Free Energy=         0.126186
 Sum of electronic and zero-point Energies=           -422.991737
 Sum of electronic and thermal Energies=              -422.983536
 Sum of electronic and thermal Enthalpies=            -422.982591
 Sum of electronic and thermal Free Energies=         -423.024899

                     E (Thermal)             CV                S
                      KCal/Mol        Cal/Mol-Kelvin    Cal/Mol-Kelvin
 Total                  105.139             31.015             89.045
 Electronic               0.000              0.000              0.000
 Translational            0.889              2.981             40.409
 Rotational               0.889              2.981             28.609
 Vibrational            103.361             25.054             20.028
 Vibration     1          0.597              1.971              4.306
 Vibration     2          0.608              1.937              3.182
 Vibration     3          0.626              1.878              2.423
 Vibration     4          0.635              1.848              2.186
 Vibration     5          0.690              1.681              1.439
 Vibration     6          0.712              1.618              1.267
 Vibration     7          0.749              1.514              1.042
 Vibration     8          0.798              1.388              0.834
 Vibration     9          0.892              1.168              0.572

 Normal termination of Gaussian 09 at Tue Jan 28 12:20:12 2020.
