 Gaussian 09, Revision D.01,
 Gaussian 09:  ES64L-G09RevD.01 24-Apr-2013

 -----------------------------
 # b3lyp 6-31G(2df,p) opt Freq
 -----------------------------

 -----
 titel
 -----
 Symbolic Z-matrix:
 Charge =  0 Multiplicity = 1

 SCF Done:  E(RB3LYP) =  -423.146011624     A.U. after   14 cycles
 Optimization completed.
    -- Stationary point found.
 Normal termination of Gaussian 09 at Tue Jan 28 13:32:08 2020.

 ----------------------------------------------------------------------
 #N Geom=AllCheck Guess=TCheck SCRF=Check GenChk RB3LYP/6-31G(2df,p) Fr
 eq
 ----------------------------------------------------------------------

 Structure from the checkpoint file:  "/scratch/puck/g09_d79802df-bcc3-4c04-8261-1e34698e1576/Gau-32462.chk"
 -----
 titel
 -----
 Charge =  0 Multiplicity = 1

                         Standard orientation:
 ---------------------------------------------------------------------
 Center     Atomic      Atomic             Coordinates (Angstroms)
 Number     Number       Type             X           Y           Z
 ---------------------------------------------------------------------
      1          8           0       -2.858150   -0.392189   -0.525673
      2          6           0       -1.544818   -0.831127   -0.198702
      3          6           0       -0.949687    0.177162    0.762482
      4          6           0       -0.637771    1.581072    0.104183
      5          6           0        0.773404    1.057175   -0.054370
      6          6           0        1.660969    0.658549   -0.957520
      7          6           0        2.246263   -0.659717   -0.467026
      8          8           0        1.355945   -1.112668    0.575109
      9          6           0        0.606339    0.011391    0.997736
     10          1           0       -3.235789   -1.021035   -1.147415
     11          1           0       -1.557625   -1.823523    0.276367
     12          1           0       -0.914198   -0.906363   -1.096963
     13          1           0       -1.550682    0.223578    1.674082
     14          1           0       -1.186273    1.836451   -0.803603
     15          1           0       -0.737379    2.395115    0.827386
     16          1           0        1.860838    1.063597   -1.941412
     17          1           0        2.266934   -1.415720   -1.262338
     18          1           0        3.270034   -0.570418   -0.069053
     19          1           0        0.873581    0.290150    2.026760
 ---------------------------------------------------------------------

 SCF Done:  E(RB3LYP) =  -423.146011624     A.U. after    1 cycles

 The electronic state is 1-A.
 Alpha  occ. eigenvalues --  -19.13546 -19.13219 -10.23084 -10.22547 -10.22370
 Alpha  occ. eigenvalues --  -10.19379 -10.19249 -10.18522 -10.18252  -1.03118
 Alpha  occ. eigenvalues --   -1.01222  -0.85009  -0.76512  -0.70295  -0.67101
 Alpha  occ. eigenvalues --   -0.61781  -0.56067  -0.53221  -0.51380  -0.48364
 Alpha  occ. eigenvalues --   -0.47791  -0.44873  -0.43675  -0.42338  -0.40141
 Alpha  occ. eigenvalues --   -0.37856  -0.35270  -0.34232  -0.33497  -0.32390
 Alpha  occ. eigenvalues --   -0.30292  -0.26501  -0.25811  -0.22762
 Alpha virt. eigenvalues --    0.00847   0.07697   0.09978   0.10885   0.11858
 Alpha virt. eigenvalues --    0.14272   0.15041   0.15818   0.16502   0.17167
 Alpha virt. eigenvalues --    0.17768   0.18491   0.19324   0.19978   0.21239

 Mulliken charges:
               1
     1  O   -0.427594
     2  C   -0.072151
     3  C   -0.046299
     4  C   -0.322898
     5  C    0.231931
     6  C   -0.238991
     7  C   -0.107129
     8  O   -0.280247
     9  C    0.073910
    10  H    0.285891
    11  H    0.096775
    12  H    0.089914
    13  H    0.079917
    14  H    0.125904
    15  H    0.113456
    16  H    0.103070
    17  H    0.110536
    18  H    0.104238
    19  H    0.079767
 Sum of Mulliken charges =   0.00000

 Dipole moment (field-independent basis, Debye):
    X=              0.0276    Y=              0.0272    Z=             -1.1926  Tot=              1.1932
 Quadrupole moment (field-independent basis, Debye-Ang):
   XX=            -53.5481   YY=            -53.2215   ZZ=            -49.4535
   XY=              3.6910   XZ=              0.0697   YZ=              3.2363

  Exact polarizability:  90.183  -6.061  69.667  -8.905   2.769  72.982
 Approx polarizability: 123.349 -11.934 104.280 -18.707   5.938 116.137

                      1                      2                      3
                      A                      A                      A
 Frequencies --     88.0766               120.4135               167.4594
 Red. masses --      4.1208                 3.0974                 4.0037
 Frc consts  --      0.0188                 0.0265                 0.0661
 IR Inten    --      1.0756                 2.0498                 6.9139

                      4                      5                      6
                      A                      A                      A
 Frequencies --    218.8407               262.7527               289.3995
 Red. masses --      2.1664                 1.1438                 3.3287
 Frc consts  --      0.0611                 0.0465                 0.1643
 IR Inten    --     12.4277                87.7492                10.2534

                      7                      8                      9
                      A                      A                      A
 Frequencies --    351.0580               423.4734               528.3336
 Red. masses --      2.4993                 2.3526                 4.6166
 Frc consts  --      0.1815                 0.2486                 0.7592
 IR Inten    --      0.1288                 3.9037                12.4030

                     10                     11                     12
                      A                      A                      A
 Frequencies --    657.0948               732.1058               756.9141
 Red. masses --      4.2253                 5.4883                 2.1735
 Frc consts  --      1.0749                 1.7332                 0.7337
 IR Inten    --      2.9479                 5.4784                 3.9222

                     13                     14                     15
                      A                      A                      A
 Frequencies --    791.6443               824.0191               844.3641
 Red. masses --      2.3662                 1.8246                 4.1196
 Frc consts  --      0.8737                 0.7300                 1.7305
 IR Inten    --      3.9872                15.8308                 9.5739

                     16                     17                     18
                      A                      A                      A
 Frequencies --    889.5092               925.9566               954.2621
 Red. masses --      1.5370                 1.9988                 2.6064
 Frc consts  --      0.7165                 1.0097                 1.3984
 IR Inten    --      5.1945                 6.7144                 5.8771

                     19                     20                     21
                      A                      A                      A
 Frequencies --    972.6116              1027.5416              1034.4006
 Red. masses --      3.6487                 1.9852                 1.9732
 Frc consts  --      2.0336                 1.2350                 1.2439
 IR Inten    --     37.7910                 4.7376                 2.0012

                     22                     23                     24
                      A                      A                      A
 Frequencies --   1047.9313              1074.3257              1111.2494
 Red. masses --      1.5484                 5.0991                 2.9806
 Frc consts  --      1.0018                 3.4675                 2.1686
 IR Inten    --      7.7277                59.5576                59.3698

                     25                     26                     27
                      A                      A                      A
 Frequencies --   1137.2825              1147.9861              1165.6287
 Red. masses --      2.6064                 1.6164                 1.4028
 Frc consts  --      1.9863                 1.2551                 1.1229
 IR Inten    --     21.3223                 9.4768                22.3868

                     28                     29                     30
                      A                      A                      A
 Frequencies --   1195.7747              1224.9881              1238.1138
 Red. masses --      1.0903                 1.4862                 1.2580
 Frc consts  --      0.9185                 1.3140                 1.1362
 IR Inten    --      0.6467                 0.9315                13.7760

                     31                     32                     33
                      A                      A                      A
 Frequencies --   1259.6123              1266.4165              1306.3232
 Red. masses --      1.2702                 1.2887                 1.7415
 Frc consts  --      1.1874                 1.2178                 1.7510
 IR Inten    --      5.8987                36.9465                 0.4834

                     34                     35                     36
                      A                      A                      A
 Frequencies --   1338.0012              1354.8617              1378.5629
 Red. masses --      1.3687                 1.3348                 1.4125
 Frc consts  --      1.4437                 1.4437                 1.5816
 IR Inten    --      2.8389                 3.4526                15.8647

                     37                     38                     39
                      A                      A                      A
 Frequencies --   1462.2218              1481.5221              1516.3388
 Red. masses --      1.4894                 1.1151                 1.0887
 Frc consts  --      1.8762                 1.4421                 1.4749
 IR Inten    --      4.6822                 3.8713                 1.2949

                     40                     41                     42
                      A                      A                      A
 Frequencies --   1517.8090              1726.2429              2971.5723
 Red. masses --      1.0828                 8.3067                 1.0696
 Frc consts  --      1.4698                14.5842                 5.5646
 IR Inten    --      3.9328                 4.6499                95.4630

                     43                     44                     45
                      A                      A                      A
 Frequencies --   2984.5704              2999.2869              3015.1193
 Red. masses --      1.0550                 1.0839                 1.1051
 Frc consts  --      5.5371                 5.7449                 5.9194
 IR Inten    --     40.3677                57.7164                34.5289

                     46                     47                     48
                      A                      A                      A
 Frequencies --   3034.8303              3063.8035              3080.6798
 Red. masses --      1.0924                 1.0632                 1.0854
 Frc consts  --      5.9278                 5.8804                 6.0691
 IR Inten    --     38.2156                22.6511                56.9876

                     49                     50                     51
                      A                      A                      A
 Frequencies --   3128.3104              3213.8260              3828.7361
 Red. masses --      1.1042                 1.0959                 1.0664
 Frc consts  --      6.3668                 6.6689                 9.2102
 IR Inten    --     12.7352                 6.4430                19.3907

 - Thermochemistry -
 -------------------
 Temperature   298.150 Kelvin.  Pressure   1.00000 Atm.
 Atom     1 has atomic number  8 and mass  15.99491

 Molecular mass:   126.06808 amu.
 Principal axes and moments of inertia in atomic units:
                           1         2         3
     Eigenvalues --   578.425061453.819321610.93880
           X            0.99995   0.00010  -0.00988
           Y            0.00054   0.99786   0.06532
           Z            0.00987  -0.06532   0.99782
 This molecule is an asymmetric top.
 Rotational symmetry number  1.
 Warning -- assumption of classical behavior for rotation
           may cause significant error
 Rotational temperatures (Kelvin)      0.14974     0.05958     0.05377
 Rotational constants (GHZ):           3.12010     1.24138     1.12030
 Zero-point vibrational energy     419483.5 (Joules/Mol)
                                  100.25895 (Kcal/Mol)
 Warning -- explicit consideration of   9 degrees of freedom as
           vibrations may cause significant error
 Vibrational temperatures:    126.72   173.25   240.94   314.86   378.04
          (Kelvin)            416.38   505.09   609.28   760.15   945.41
                             1053.34  1089.03  1139.00  1185.58  1214.85
                             1279.80  1332.24  1372.97  1399.37  1478.40
                             1488.27  1507.74  1545.71  1598.84  1636.29
                             1651.69  1677.08  1720.45  1762.48  1781.37
                             1812.30  1822.09  1879.51  1925.08  1949.34
                             1983.44  2103.81  2131.58  2181.67  2183.79
                             2483.68  4275.42  4294.13  4315.30  4338.08
                             4366.44  4408.12  4432.41  4500.94  4623.97
                             5508.69

 Zero-point correction=                           0.159773 (Hartree/Particle)
 Thermal correction to Energy=                    0.168032
 Thermal correction to Enthalpy=                  0.168976
 Thermal correction to Gibbs Free Energy=         0.126749
 Sum of electronic and zero-point Energies=           -422.986239
 Sum of electronic and thermal Energies=              -422.977980
 Sum of electronic and thermal Enthalpies=            -422.977036
 Sum of electronic and thermal Free Energies=         -423.019262

                     E (Thermal)             CV                S
                      KCal/Mol        Cal/Mol-Kelvin    Cal/Mol-Kelvin
 Total                  105.442             31.318             88.874
 Electronic               0.000              0.000              0.000
 Translational            0.889              2.981             40.409
 Rotational               0.889              2.981             28.695
 Vibrational            103.664             25.356             19.770
 Vibration     1          0.601              1.958              3.702
 Vibration     2          0.609              1.932              3.094
 Vibration     3          0.624              1.883              2.464
 Vibration     4          0.647              1.812              1.969
 Vibration     5          0.670              1.741              1.643
 Vibration     6          0.686              1.693              1.477
 Vibration     7          0.728              1.573              1.161
 Vibration     8          0.786              1.419              0.880
 Vibration     9          0.883              1.187              0.591

 Normal termination of Gaussian 09 at Tue Jan 28 14:15:14 2020.
