 Gaussian 09, Revision D.01,
 Gaussian 09:  ES64L-G09RevD.01 24-Apr-2013

 -----------------------------
 # b3lyp 6-31G(2df,p) opt Freq
 -----------------------------

 -----
 titel
 -----
 Symbolic Z-matrix:
 Charge =  0 Multiplicity = 1

 SCF Done:  E(RB3LYP) =  -423.112621626     A.U. after   13 cycles
 Optimization completed.
    -- Stationary point found.
 Normal termination of Gaussian 09 at Tue Jan 28 02:13:52 2020.

 ----------------------------------------------------------------------
 #N Geom=AllCheck Guess=TCheck SCRF=Check GenChk RB3LYP/6-31G(2df,p) Fr
 eq
 ----------------------------------------------------------------------

 Structure from the checkpoint file:  "/scratch/puck/g09_ca5bb90f-e535-41a8-b1d8-493cb3b187da/Gau-112113.chk"
 -----
 titel
 -----
 Charge =  0 Multiplicity = 1

                         Standard orientation:
 ---------------------------------------------------------------------
 Center     Atomic      Atomic             Coordinates (Angstroms)
 Number     Number       Type             X           Y           Z
 ---------------------------------------------------------------------
      1          8           0        3.097465   -0.783236    0.064887
      2          6           0        1.965970   -0.044831    0.419404
      3          6           0        1.702358    1.183060   -0.386760
      4          6           0        0.769477   -0.009057   -0.514243
      5          6           0       -0.618272   -0.014524    0.009043
      6          6           0       -1.282070    1.085716    0.820875
      7          6           0       -1.918020    0.621141   -0.451843
      8          8           0       -2.679991   -0.566741   -0.233257
      9          6           0       -1.474843   -1.276840    0.157076
     10          1           0        2.914228   -1.712205    0.240508
     11          1           0        1.756780    0.006881    1.487999
     12          1           0        1.360083    2.073010    0.128367
     13          1           0        2.371460    1.365347   -1.219624
     14          1           0        0.913356   -0.587409   -1.424571
     15          1           0       -1.765177    0.865230    1.769670
     16          1           0       -0.792663    2.053096    0.767177
     17          1           0       -2.176427    1.247342   -1.298035
     18          1           0       -1.557121   -1.727321    1.154061
     19          1           0       -1.231901   -2.052153   -0.579899
 ---------------------------------------------------------------------

 SCF Done:  E(RB3LYP) =  -423.112621625     A.U. after    1 cycles

 The electronic state is 1-A.
 Alpha  occ. eigenvalues --  -19.14530 -19.13532 -10.23735 -10.23690 -10.23325
 Alpha  occ. eigenvalues --  -10.20425 -10.19675 -10.19022 -10.18855  -1.04943
 Alpha  occ. eigenvalues --   -1.03028  -0.86192  -0.82087  -0.70538  -0.63404
 Alpha  occ. eigenvalues --   -0.59843  -0.59170  -0.54473  -0.53276  -0.51272
 Alpha  occ. eigenvalues --   -0.48167  -0.45765  -0.44790  -0.40364  -0.39829
 Alpha  occ. eigenvalues --   -0.39277  -0.38145  -0.35196  -0.33759  -0.31716
 Alpha  occ. eigenvalues --   -0.29779  -0.27449  -0.25694  -0.22443
 Alpha virt. eigenvalues --    0.07370   0.08262   0.09944   0.10496   0.11435
 Alpha virt. eigenvalues --    0.12110   0.12773   0.14343   0.15087   0.16618
 Alpha virt. eigenvalues --    0.18586   0.18856   0.19149   0.21056   0.22838

 Mulliken charges:
               1
     1  O   -0.420898
     2  C    0.109987
     3  C   -0.309476
     4  C   -0.199286
     5  C    0.298044
     6  C   -0.353820
     7  C    0.051227
     8  O   -0.286802
     9  C   -0.132929
    10  H    0.285239
    11  H    0.088330
    12  H    0.114664
    13  H    0.126045
    14  H    0.089697
    15  H    0.112241
    16  H    0.116689
    17  H    0.106093
    18  H    0.101703
    19  H    0.103252
 Sum of Mulliken charges =   0.00000

 Dipole moment (field-independent basis, Debye):
    X=              0.7507    Y=             -0.2932    Z=              0.4481  Tot=              0.9221
 Quadrupole moment (field-independent basis, Debye-Ang):
   XX=            -66.7705   YY=            -47.2667   ZZ=            -51.4226
   XY=             -3.7227   XZ=             -0.0333   YZ=             -1.3232

  Exact polarizability:  83.625  -1.027  77.633  -0.575  -0.235  65.493
 Approx polarizability: 113.569  -2.130 114.718   2.135   0.363 100.308

                      1                      2                      3
                      A                      A                      A
 Frequencies --     44.2611               124.8944               176.0835
 Red. masses --      3.1870                 4.2095                 3.8218
 Frc consts  --      0.0037                 0.0387                 0.0698
 IR Inten    --      0.6342                 2.6344                 4.7618

                      4                      5                      6
                      A                      A                      A
 Frequencies --    280.9505               306.3470               338.8312
 Red. masses --      2.2602                 1.8878                 1.8972
 Frc consts  --      0.1051                 0.1044                 0.1283
 IR Inten    --     19.4448                33.9369                56.1468

                      7                      8                      9
                      A                      A                      A
 Frequencies --    360.6236               402.3385               455.8967
 Red. masses --      3.1599                 2.7936                 2.2176
 Frc consts  --      0.2421                 0.2664                 0.2716
 IR Inten    --      1.3954                10.5347                 3.2975

                     10                     11                     12
                      A                      A                      A
 Frequencies --    475.1138               670.2346               761.5859
 Red. masses --      2.3038                 2.2950                 3.1618
 Frc consts  --      0.3064                 0.6074                 1.0805
 IR Inten    --      4.6171                 1.7362                 9.0136

                     13                     14                     15
                      A                      A                      A
 Frequencies --    827.6407               838.4815               882.2821
 Red. masses --      3.2604                 1.9576                 1.7314
 Frc consts  --      1.3159                 0.8109                 0.7941
 IR Inten    --      1.6983                14.5920                13.1466

                     16                     17                     18
                      A                      A                      A
 Frequencies --    913.2430               925.3965               930.9980
 Red. masses --      2.7908                 2.5436                 1.8525
 Frc consts  --      1.3713                 1.2834                 0.9460
 IR Inten    --      0.2811                13.0828                12.8468

                     19                     20                     21
                      A                      A                      A
 Frequencies --    982.4449               986.7780               997.4970
 Red. masses --      2.4872                 2.8768                 1.4791
 Frc consts  --      1.4144                 1.6504                 0.8671
 IR Inten    --     24.0519                20.6399                 3.3545

                     22                     23                     24
                      A                      A                      A
 Frequencies --   1032.4072              1060.3078              1063.2207
 Red. masses --      1.6152                 1.7916                 1.4309
 Frc consts  --      1.0143                 1.1868                 0.9531
 IR Inten    --     40.5690                 6.9442                 5.4118

                     25                     26                     27
                      A                      A                      A
 Frequencies --   1083.8502              1090.5998              1114.1015
 Red. masses --      1.7269                 1.6795                 1.2256
 Frc consts  --      1.1952                 1.1770                 0.8963
 IR Inten    --     21.7186                 4.9470                 5.6705

                     28                     29                     30
                      A                      A                      A
 Frequencies --   1143.2011              1155.2219              1184.0806
 Red. masses --      1.9883                 1.2305                 2.1238
 Frc consts  --      1.5310                 0.9675                 1.7544
 IR Inten    --      0.7111                 1.7073                12.2994

                     31                     32                     33
                      A                      A                      A
 Frequencies --   1207.9080              1219.8316              1273.2000
 Red. masses --      2.0509                 2.0515                 1.5162
 Frc consts  --      1.7630                 1.7986                 1.4481
 IR Inten    --      2.4384                70.8562                19.6728

                     34                     35                     36
                      A                      A                      A
 Frequencies --   1295.9688              1306.8879              1355.3127
 Red. masses --      1.1948                 1.6183                 1.4900
 Frc consts  --      1.1824                 1.6284                 1.6126
 IR Inten    --     84.7059                 2.0846                 7.6788

                     37                     38                     39
                      A                      A                      A
 Frequencies --   1406.9611              1442.1837              1478.0637
 Red. masses --      1.5703                 1.3352                 1.5227
 Frc consts  --      1.8314                 1.6362                 1.9599
 IR Inten    --      0.4263                 2.0843                 5.6249

                     40                     41                     42
                      A                      A                      A
 Frequencies --   1500.4703              1516.0032              3013.2312
 Red. masses --      2.1111                 1.1285                 1.0543
 Frc consts  --      2.8003                 1.5281                 5.6398
 IR Inten    --     12.3824                 1.1329                65.1861

                     43                     44                     45
                      A                      A                      A
 Frequencies --   3062.3402              3100.1058              3109.5993
 Red. masses --      1.1113                 1.0874                 1.0549
 Frc consts  --      6.1404                 6.1571                 6.0097
 IR Inten    --     36.5811                23.6716                13.9448

                     46                     47                     48
                      A                      A                      A
 Frequencies --   3128.8055              3143.9334              3180.6096
 Red. masses --      1.0862                 1.0554                 1.0948
 Frc consts  --      6.2648                 6.1460                 6.5252
 IR Inten    --     16.8299                 7.5039                15.4309

                     49                     50                     51
                      A                      A                      A
 Frequencies --   3205.2786              3233.5617              3804.0616
 Red. masses --      1.1138                 1.1165                 1.0661
 Frc consts  --      6.7421                 6.8781                 9.0898
 IR Inten    --     11.7335                 5.5909                18.6460

 - Thermochemistry -
 -------------------
 Temperature   298.150 Kelvin.  Pressure   1.00000 Atm.
 Atom     1 has atomic number  8 and mass  15.99491

 Molecular mass:   126.06808 amu.
 Principal axes and moments of inertia in atomic units:
                           1         2         3
     Eigenvalues --   447.216101840.953982061.01957
           X            0.99998  -0.00026  -0.00587
           Y            0.00024   0.99999  -0.00430
           Z            0.00587   0.00429   0.99997
 This molecule is an asymmetric top.
 Rotational symmetry number  1.
 Warning -- assumption of classical behavior for rotation
           may cause significant error
 Rotational temperatures (Kelvin)      0.19367     0.04705     0.04202
 Rotational constants (GHZ):           4.03550     0.98033     0.87565
 Zero-point vibrational energy     416260.0 (Joules/Mol)
                                   99.48852 (Kcal/Mol)
 Warning -- explicit consideration of  10 degrees of freedom as
           vibrations may cause significant error
 Vibrational temperatures:     63.68   179.70   253.34   404.22   440.76
          (Kelvin)            487.50   518.86   578.87   655.93   683.58
                              964.32  1095.75  1190.79  1206.39  1269.41
                             1313.95  1331.44  1339.50  1413.52  1419.75
                             1435.17  1485.40  1525.54  1529.74  1559.42
                             1569.13  1602.94  1644.81  1662.10  1703.63
                             1737.91  1755.06  1831.85  1864.61  1880.32
                             1949.99  2024.30  2074.98  2126.60  2158.84
                             2181.19  4335.36  4406.02  4460.36  4474.01
                             4501.65  4523.41  4576.18  4611.68  4652.37
                             5473.19

 Zero-point correction=                           0.158545 (Hartree/Particle)
 Thermal correction to Energy=                    0.166906
 Thermal correction to Enthalpy=                  0.167850
 Thermal correction to Gibbs Free Energy=         0.125054
 Sum of electronic and zero-point Energies=           -422.954077
 Sum of electronic and thermal Energies=              -422.945716
 Sum of electronic and thermal Enthalpies=            -422.944771
 Sum of electronic and thermal Free Energies=         -422.987568

                     E (Thermal)             CV                S
                      KCal/Mol        Cal/Mol-Kelvin    Cal/Mol-Kelvin
 Total                  104.735             32.194             90.072
 Electronic               0.000              0.000              0.000
 Translational            0.889              2.981             40.409
 Rotational               0.889              2.981             28.919
 Vibrational            102.958             26.232             20.745
 Vibration     1          0.595              1.980              5.059
 Vibration     2          0.610              1.928              3.023
 Vibration     3          0.628              1.872              2.370
 Vibration     4          0.681              1.709              1.528
 Vibration     5          0.697              1.662              1.382
 Vibration     6          0.719              1.598              1.218
 Vibration     7          0.735              1.553              1.119
 Vibration     8          0.768              1.465              0.954
 Vibration     9          0.814              1.348              0.778
 Vibration    10          0.832              1.305              0.723

 Optimization completed.
    -- Stationary point found.
 Normal termination of Gaussian 09 at Tue Jan 28 02:54:26 2020.
