 Gaussian 09, Revision D.01,
 Gaussian 09:  ES64L-G09RevD.01 24-Apr-2013

 -----------------------------
 # b3lyp 6-31G(2df,p) opt Freq
 -----------------------------

 -----
 titel
 -----
 Symbolic Z-matrix:
 Charge =  0 Multiplicity = 1

 SCF Done:  E(RB3LYP) =  -423.151058252     A.U. after   14 cycles
 Optimization completed.
    -- Stationary point found.
 Normal termination of Gaussian 09 at Tue Jan 28 13:31:14 2020.

 ----------------------------------------------------------------------
 #N Geom=AllCheck Guess=TCheck SCRF=Check GenChk RB3LYP/6-31G(2df,p) Fr
 eq
 ----------------------------------------------------------------------

 Structure from the checkpoint file:  "/scratch/puck/g09_4551df4e-7aef-4081-8080-935a7104f05f/Gau-32465.chk"
 -----
 titel
 -----
 Charge =  0 Multiplicity = 1

                         Standard orientation:
 ---------------------------------------------------------------------
 Center     Atomic      Atomic             Coordinates (Angstroms)
 Number     Number       Type             X           Y           Z
 ---------------------------------------------------------------------
      1          6           0       -3.426552   -0.360432    0.239259
      2          8           0       -2.202765   -0.625648   -0.412031
      3          6           0       -1.083190   -0.206169    0.320980
      4          6           0       -0.765658    1.330418    0.203897
      5          6           0        0.516585    0.971921   -0.557243
      6          6           0        1.378269    0.070458    0.313975
      7          6           0        2.715592   -0.261751   -0.226348
      8          8           0        3.703868   -0.439155    0.441588
      9          6           0        0.199396   -0.501472   -0.457550
     10          1           0       -3.590379    0.717074    0.389730
     11          1           0       -4.222822   -0.750808   -0.398219
     12          1           0       -3.476905   -0.857467    1.220286
     13          1           0       -1.123249   -0.609511    1.345309
     14          1           0       -1.508055    1.809827   -0.437871
     15          1           0       -0.645946    1.908557    1.124998
     16          1           0        0.950959    1.527664   -1.379619
     17          1           0        1.336623    0.153129    1.397518
     18          1           0        2.749972   -0.338172   -1.339854
     19          1           0        0.314326   -1.299702   -1.180563
 ---------------------------------------------------------------------

 SCF Done:  E(RB3LYP) =  -423.151058252     A.U. after    1 cycles

 The electronic state is 1-A.
 Alpha  occ. eigenvalues --  -19.15119 -19.13166 -10.26884 -10.24804 -10.23234
 Alpha  occ. eigenvalues --  -10.21440 -10.21068 -10.20810 -10.19683  -1.04658
 Alpha  occ. eigenvalues --   -1.03985  -0.91415  -0.75754  -0.70505  -0.65199
 Alpha  occ. eigenvalues --   -0.63219  -0.57999  -0.55145  -0.51582  -0.50063
 Alpha  occ. eigenvalues --   -0.48271  -0.45636  -0.43971  -0.43493  -0.42048
 Alpha  occ. eigenvalues --   -0.40370  -0.39148  -0.37012  -0.34977  -0.31941
 Alpha  occ. eigenvalues --   -0.29945  -0.29481  -0.25965  -0.24770
 Alpha virt. eigenvalues --   -0.01902   0.08249   0.09705   0.10410   0.10796
 Alpha virt. eigenvalues --    0.11980   0.13391   0.14080   0.15065   0.15753
 Alpha virt. eigenvalues --    0.16062   0.17114   0.18759   0.19241   0.21359

 Mulliken charges:
               1
     1  C   -0.242508
     2  O   -0.249524
     3  C    0.147008
     4  C   -0.282496
     5  C   -0.063562
     6  C   -0.113703
     7  C    0.153520
     8  O   -0.270531
     9  C   -0.094918
    10  H    0.109387
    11  H    0.132087
    12  H    0.109613
    13  H    0.069029
    14  H    0.120799
    15  H    0.101816
    16  H    0.099787
    17  H    0.100280
    18  H    0.066872
    19  H    0.107046
 Sum of Mulliken charges =   0.00000

 Dipole moment (field-independent basis, Debye):
    X=             -3.3060    Y=              1.0828    Z=             -0.3042  Tot=              3.4921
 Quadrupole moment (field-independent basis, Debye-Ang):
   XX=            -63.6211   YY=            -52.9039   ZZ=            -52.4451
   XY=              1.0823   XZ=             -6.2157   YZ=             -0.1786

  Exact polarizability: 105.148  -2.645  65.113   0.723  -0.215  67.169
 Approx polarizability: 133.777  -4.517 100.179   9.496  -0.790 106.810

                      1                      2                      3
                      A                      A                      A
 Frequencies --     78.1445               109.5313               130.8852
 Red. masses --      4.2523                 4.3632                 2.6903
 Frc consts  --      0.0153                 0.0308                 0.0272
 IR Inten    --      0.7955                 3.8619                 5.9225

                      4                      5                      6
                      A                      A                      A
 Frequencies --    189.1663               220.6868               268.2537
 Red. masses --      1.3873                 2.1941                 2.4208
 Frc consts  --      0.0292                 0.0630                 0.1026
 IR Inten    --      1.2231                 2.6489                 1.0807

                      7                      8                      9
                      A                      A                      A
 Frequencies --    288.7649               352.5402               435.1158
 Red. masses --      2.7648                 5.1690                 2.8711
 Frc consts  --      0.1358                 0.3785                 0.3203
 IR Inten    --      4.8431                 0.2764                 5.0766

                     10                     11                     12
                      A                      A                      A
 Frequencies --    483.1091               519.2150               742.9008
 Red. masses --      2.5719                 4.8292                 2.5041
 Frc consts  --      0.3537                 0.7670                 0.8142
 IR Inten    --      5.5679                24.9857                 1.3731

                     13                     14                     15
                      A                      A                      A
 Frequencies --    825.5919               848.8140               864.7517
 Red. masses --      2.4220                 3.2634                 1.9164
 Frc consts  --      0.9726                 1.3853                 0.8444
 IR Inten    --      5.6625                 5.7757                16.3277

                     16                     17                     18
                      A                      A                      A
 Frequencies --    951.4837               959.7536               982.2772
 Red. masses --      2.1363                 1.7525                 2.7706
 Frc consts  --      1.1395                 0.9511                 1.5750
 IR Inten    --      0.8118                 3.9341                27.1376

                     19                     20                     21
                      A                      A                      A
 Frequencies --   1002.2941              1046.1336              1057.4259
 Red. masses --      1.6732                 2.2966                 1.6936
 Frc consts  --      0.9903                 1.4808                 1.1158
 IR Inten    --     11.0457                 1.6713                 0.4978

                     22                     23                     24
                      A                      A                      A
 Frequencies --   1067.7897              1092.9930              1113.7320
 Red. masses --      1.4767                 1.7736                 1.9405
 Frc consts  --      0.9920                 1.2484                 1.4182
 IR Inten    --      6.4193                36.9885                33.2950

                     25                     26                     27
                      A                      A                      A
 Frequencies --   1141.8554              1175.7323              1183.3130
 Red. masses --      1.9660                 1.6603                 1.3003
 Frc consts  --      1.5103                 1.3522                 1.0728
 IR Inten    --     69.7704               105.0771                 2.5253

                     28                     29                     30
                      A                      A                      A
 Frequencies --   1205.0709              1223.7854              1229.3834
 Red. masses --      1.9690                 1.7060                 1.5600
 Frc consts  --      1.6847                 1.5054                 1.3892
 IR Inten    --      6.8767                39.2231                 6.1211

                     31                     32                     33
                      A                      A                      A
 Frequencies --   1251.3525              1274.2013              1296.3106
 Red. masses --      1.5360                 1.5836                 1.6895
 Frc consts  --      1.4171                 1.5149                 1.6727
 IR Inten    --     23.8969                14.7915                 1.5765

                     34                     35                     36
                      A                      A                      A
 Frequencies --   1369.7840              1392.5771              1444.5390
 Red. masses --      1.9354                 1.4458                 1.3698
 Frc consts  --      2.1395                 1.6519                 1.6841
 IR Inten    --     18.7782                45.6248                 4.6264

                     37                     38                     39
                      A                      A                      A
 Frequencies --   1473.0881              1481.3837              1489.7154
 Red. masses --      1.1109                 1.1269                 1.0802
 Frc consts  --      1.4204                 1.4570                 1.4124
 IR Inten    --      1.8309                 4.2186                 2.7172

                     40                     41                     42
                      A                      A                      A
 Frequencies --   1508.6781              1823.6817              2842.5209
 Red. masses --      1.0600                10.0309                 1.0810
 Frc consts  --      1.4215                19.6556                 5.1464
 IR Inten    --      5.6618               285.4089                97.7372

                     43                     44                     45
                      A                      A                      A
 Frequencies --   2970.7000              2980.9593              3027.3773
 Red. masses --      1.0741                 1.0459                 1.1028
 Frc consts  --      5.5850                 5.4760                 5.9552
 IR Inten    --     32.8995                79.1328                46.3074

                     46                     47                     48
                      A                      A                      A
 Frequencies --   3055.0925              3120.2406              3121.2972
 Red. masses --      1.0604                 1.1055                 1.0965
 Frc consts  --      5.8316                 6.3415                 6.2942
 IR Inten    --     38.5438                16.0491                26.3782

                     49                     50                     51
                      A                      A                      A
 Frequencies --   3140.6121              3181.0504              3195.4256
 Red. masses --      1.0897                 1.0892                 1.0964
 Frc consts  --      6.3326                 6.4935                 6.5961
 IR Inten    --      9.8223                14.2532                 5.8853

 - Thermochemistry -
 -------------------
 Temperature   298.150 Kelvin.  Pressure   1.00000 Atm.
 Atom     1 has atomic number  6 and mass  12.00000

 Molecular mass:   126.06808 amu.
 Principal axes and moments of inertia in atomic units:
                           1         2         3
     Eigenvalues --   319.888372354.807512472.14538
           X            0.99989   0.00087  -0.01494
           Y           -0.00079   0.99999   0.00505
           Z            0.01495  -0.00504   0.99988
 This molecule is an asymmetric top.
 Rotational symmetry number  1.
 Rotational temperatures (Kelvin)      0.27076     0.03678     0.03504
 Rotational constants (GHZ):           5.64178     0.76641     0.73003
 Zero-point vibrational energy     414093.8 (Joules/Mol)
                                   98.97080 (Kcal/Mol)
 Warning -- explicit consideration of  11 degrees of freedom as
           vibrations may cause significant error
 Vibrational temperatures:    112.43   157.59   188.31   272.17   317.52
          (Kelvin)            385.96   415.47   507.23   626.03   695.09
                              747.03  1068.87  1187.84  1221.25  1244.18
                             1368.97  1380.87  1413.28  1442.08  1505.15
                             1521.40  1536.31  1572.57  1602.41  1642.87
                             1691.61  1702.52  1733.83  1760.75  1768.81
                             1800.41  1833.29  1865.10  1970.81  2003.61
                             2078.37  2119.44  2131.38  2143.37  2170.65
                             2623.87  4089.75  4274.17  4288.93  4355.72
                             4395.59  4489.32  4490.84  4518.63  4576.82
                             4597.50

 Zero-point correction=                           0.157720 (Hartree/Particle)
 Thermal correction to Energy=                    0.166591
 Thermal correction to Enthalpy=                  0.167535
 Thermal correction to Gibbs Free Energy=         0.123750
 Sum of electronic and zero-point Energies=           -422.993338
 Sum of electronic and thermal Energies=              -422.984468
 Sum of electronic and thermal Enthalpies=            -422.983523
 Sum of electronic and thermal Free Energies=         -423.027308

                     E (Thermal)             CV                S
                      KCal/Mol        Cal/Mol-Kelvin    Cal/Mol-Kelvin
 Total                  104.537             32.361             92.152
 Electronic               0.000              0.000              0.000
 Translational            0.889              2.981             40.409
 Rotational               0.889              2.981             29.011
 Vibrational            102.760             26.399             22.732
 Vibration     1          0.599              1.964              3.937
 Vibration     2          0.606              1.942              3.277
 Vibration     3          0.612              1.922              2.933
 Vibration     4          0.633              1.855              2.236
 Vibration     5          0.647              1.810              1.953
 Vibration     6          0.673              1.731              1.607
 Vibration     7          0.685              1.695              1.481
 Vibration     8          0.729              1.570              1.155
 Vibration     9          0.796              1.394              0.842
 Vibration    10          0.839              1.288              0.702
 Vibration    11          0.874              1.207              0.612

 Optimization completed.
    -- Stationary point found.
 Normal termination of Gaussian 09 at Tue Jan 28 14:09:16 2020.
