 Gaussian 09, Revision D.01,
 Gaussian 09:  ES64L-G09RevD.01 24-Apr-2013

 -----------------------------
 # b3lyp 6-31G(2df,p) opt Freq
 -----------------------------

 -----
 titel
 -----
 Symbolic Z-matrix:
 Charge =  0 Multiplicity = 1

 SCF Done:  E(RB3LYP) =  -423.121382814     A.U. after   14 cycles
 Optimization completed.
    -- Stationary point found.
 Normal termination of Gaussian 09 at Mon Jan 27 18:49:09 2020.

 ----------------------------------------------------------------------
 #N Geom=AllCheck Guess=TCheck SCRF=Check GenChk RB3LYP/6-31G(2df,p) Fr
 eq
 ----------------------------------------------------------------------

 Structure from the checkpoint file:  "/scratch/puck/g09_ff22c15a-d0a2-4525-9ec8-fd1ca171c780/Gau-19358.chk"
 -----
 titel
 -----
 Charge =  0 Multiplicity = 1

                         Standard orientation:
 ---------------------------------------------------------------------
 Center     Atomic      Atomic             Coordinates (Angstroms)
 Number     Number       Type             X           Y           Z
 ---------------------------------------------------------------------
      1          8           0        1.096388    1.544062    0.539714
      2          6           0        0.557423    0.555044   -0.322575
      3          6           0        1.667512   -0.471433   -0.697382
      4          8           0        1.265400   -1.288455    0.465104
      5          6           0       -0.027503   -0.654031    0.395735
      6          6           0       -1.147790   -1.168163   -0.536111
      7          6           0       -1.731706    0.221517   -0.170031
      8          6           0       -1.120045   -0.021545    1.280693
      9          6           0       -0.727012    1.140466   -0.948964
     10          1           0        1.676411    1.096070    1.168837
     11          1           0        1.533256   -1.023548   -1.632791
     12          1           0        2.697587   -0.117349   -0.605283
     13          1           0       -0.918704   -1.366109   -1.586527
     14          1           0       -1.697850   -2.004427   -0.099615
     15          1           0       -2.795056    0.432154   -0.270730
     16          1           0       -0.838710    0.842934    1.881722
     17          1           0       -1.738468   -0.722500    1.844387
     18          1           0       -0.831371    1.002805   -2.028107
     19          1           0       -0.806679    2.203976   -0.718624
 ---------------------------------------------------------------------

 SCF Done:  E(RB3LYP) =  -423.121382814     A.U. after    1 cycles

 The electronic state is 1-A.
 Alpha  occ. eigenvalues --  -19.14323 -19.14076 -10.23632 -10.23441 -10.23193
 Alpha  occ. eigenvalues --  -10.20378 -10.19073 -10.18854 -10.18398  -1.05516
 Alpha  occ. eigenvalues --   -1.00816  -0.88262  -0.73707  -0.68578  -0.66982
 Alpha  occ. eigenvalues --   -0.65191  -0.56352  -0.54649  -0.51409  -0.48415
 Alpha  occ. eigenvalues --   -0.47431  -0.45186  -0.43443  -0.40210  -0.39030
 Alpha  occ. eigenvalues --   -0.36851  -0.36700  -0.34857  -0.34460  -0.32539
 Alpha  occ. eigenvalues --   -0.31583  -0.29403  -0.25329  -0.24848
 Alpha virt. eigenvalues --    0.07971   0.08515   0.10490   0.11699   0.12342
 Alpha virt. eigenvalues --    0.12771   0.14142   0.14663   0.16119   0.16526
 Alpha virt. eigenvalues --    0.17052   0.17922   0.19628   0.21031   0.21827

 Mulliken charges:
               1
     1  O   -0.484870
     2  C    0.415898
     3  C   -0.222041
     4  O   -0.376294
     5  C    0.399450
     6  C   -0.286513
     7  C   -0.033729
     8  C   -0.318646
     9  C   -0.305487
    10  H    0.283535
    11  H    0.111163
    12  H    0.109461
    13  H    0.091981
    14  H    0.101412
    15  H    0.074657
    16  H    0.113752
    17  H    0.104150
    18  H    0.105370
    19  H    0.116752
 Sum of Mulliken charges =   0.00000

 Dipole moment (field-independent basis, Debye):
    X=             -0.7462    Y=              0.0039    Z=             -0.7673  Tot=              1.0704
 Quadrupole moment (field-independent basis, Debye-Ang):
   XX=            -50.5404   YY=            -58.5378   ZZ=            -50.9144
   XY=              1.3523   XZ=             -0.7209   YZ=              1.2456

  Exact polarizability:  82.142   0.483  70.052  -2.473   1.753  70.702
 Approx polarizability: 116.687  -1.188 107.827  -0.934   1.370 108.487

                      1                      2                      3
                      A                      A                      A
 Frequencies --    221.4570               272.7024               335.8428
 Red. masses --      3.2393                 3.5464                 3.8187
 Frc consts  --      0.0936                 0.1554                 0.2538
 IR Inten    --      4.2031                 8.0460                 4.4656

                      4                      5                      6
                      A                      A                      A
 Frequencies --    389.9311               430.6848               440.8217
 Red. masses --      2.1927                 1.7743                 1.5586
 Frc consts  --      0.1964                 0.1939                 0.1784
 IR Inten    --      1.1785                49.0384                26.4061

                      7                      8                      9
                      A                      A                      A
 Frequencies --    493.5055               513.8506               559.3992
 Red. masses --      2.2574                 2.8418                 2.4083
 Frc consts  --      0.3239                 0.4421                 0.4440
 IR Inten    --     11.5982                 2.4915                 8.0424

                     10                     11                     12
                      A                      A                      A
 Frequencies --    598.3200               719.4199               790.4286
 Red. masses --      3.7871                 4.4541                 3.6371
 Frc consts  --      0.7988                 1.3583                 1.3389
 IR Inten    --      1.3596                18.0898                 5.1961

                     13                     14                     15
                      A                      A                      A
 Frequencies --    805.9985               859.8520               864.8997
 Red. masses --      3.4790                 2.8517                 1.9571
 Frc consts  --      1.3316                 1.2422                 0.8626
 IR Inten    --      2.5836                 3.3914                 4.4607

                     16                     17                     18
                      A                      A                      A
 Frequencies --    910.2815               910.7928               940.0788
 Red. masses --      2.9326                 2.8243                 2.0004
 Frc consts  --      1.4317                 1.3804                 1.0416
 IR Inten    --     38.9891                27.3743                 4.3275

                     19                     20                     21
                      A                      A                      A
 Frequencies --    959.9703               964.5373               997.6529
 Red. masses --      2.0132                 2.4072                 1.2482
 Frc consts  --      1.0931                 1.3195                 0.7320
 IR Inten    --     25.7348                 8.6562                 2.8680

                     22                     23                     24
                      A                      A                      A
 Frequencies --   1032.5110              1049.4183              1091.2245
 Red. masses --      1.5687                 1.7888                 1.4562
 Frc consts  --      0.9853                 1.1607                 1.0216
 IR Inten    --      7.5494                 1.6900                 7.4490

                     25                     26                     27
                      A                      A                      A
 Frequencies --   1108.4950              1125.7392              1138.5706
 Red. masses --      1.9879                 1.5831                 1.4403
 Frc consts  --      1.4392                 1.1820                 1.1001
 IR Inten    --     19.2507                12.7771                 2.5950

                     28                     29                     30
                      A                      A                      A
 Frequencies --   1167.5066              1177.4324              1209.5329
 Red. masses --      1.7403                 2.0865                 1.8504
 Frc consts  --      1.3976                 1.7042                 1.5950
 IR Inten    --      5.3513                60.6996                 8.3966

                     31                     32                     33
                      A                      A                      A
 Frequencies --   1218.6380              1258.9425              1261.0238
 Red. masses --      1.7591                 1.7167                 1.9029
 Frc consts  --      1.5392                 1.6031                 1.7828
 IR Inten    --     20.6213                17.4422                17.6815

                     34                     35                     36
                      A                      A                      A
 Frequencies --   1274.0789              1301.1220              1322.0332
 Red. masses --      1.5598                 1.5936                 1.7269
 Frc consts  --      1.4918                 1.5895                 1.7783
 IR Inten    --      3.9627                17.2471                 9.2274

                     37                     38                     39
                      A                      A                      A
 Frequencies --   1394.5165              1480.0095              1482.6006
 Red. masses --      1.9273                 1.1026                 1.0935
 Frc consts  --      2.2082                 1.4230                 1.4162
 IR Inten    --     57.6923                 2.4261                 3.0363

                     40                     41                     42
                      A                      A                      A
 Frequencies --   1506.6026              1523.2984              3044.4918
 Red. masses --      1.1133                 1.1314                 1.0561
 Frc consts  --      1.4889                 1.5468                 5.7675
 IR Inten    --      1.1899                 5.5534                36.1630

                     43                     44                     45
                      A                      A                      A
 Frequencies --   3060.3586              3071.2340              3082.1106
 Red. masses --      1.0572                 1.0605                 1.0568
 Frc consts  --      5.8340                 5.8939                 5.9151
 IR Inten    --     36.9730                30.9744                18.8966

                     46                     47                     48
                      A                      A                      A
 Frequencies --   3110.5329              3122.1858              3128.6677
 Red. masses --      1.1115                 1.1080                 1.1046
 Frc consts  --      6.3362                 6.3639                 6.3708
 IR Inten    --     28.0512                25.4421                17.6566

                     49                     50                     51
                      A                      A                      A
 Frequencies --   3134.2264              3152.9910              3773.2347
 Red. masses --      1.0917                 1.1100                 1.0652
 Frc consts  --      6.3184                 6.5014                 8.9354
 IR Inten    --     38.5725                17.1151                18.3952

 - Thermochemistry -
 -------------------
 Temperature   298.150 Kelvin.  Pressure   1.00000 Atm.
 Atom     1 has atomic number  8 and mass  15.99491

 Molecular mass:   126.06808 amu.
 Principal axes and moments of inertia in atomic units:
                           1         2         3
     Eigenvalues --   693.81620 908.185461102.45170
           X            0.99955   0.02324  -0.01908
           Y           -0.02258   0.99916   0.03428
           Z            0.01986  -0.03383   0.99923
 This molecule is an asymmetric top.
 Rotational symmetry number  1.
 Warning -- assumption of classical behavior for rotation
           may cause significant error
 Rotational temperatures (Kelvin)      0.12484     0.09537     0.07856
 Rotational constants (GHZ):           2.60118     1.98719     1.63703
 Zero-point vibrational energy     423380.9 (Joules/Mol)
                                  101.19046 (Kcal/Mol)
 Warning -- explicit consideration of  10 degrees of freedom as
           vibrations may cause significant error
 Vibrational temperatures:    318.63   392.36   483.20   561.02   619.66
          (Kelvin)            634.24   710.04   739.32   804.85   860.85
                             1035.08  1137.25  1159.65  1237.13  1244.40
                             1309.69  1310.43  1352.56  1381.18  1387.75
                             1435.40  1485.55  1509.88  1570.03  1594.88
                             1619.69  1638.15  1679.78  1694.06  1740.25
                             1753.35  1811.34  1814.33  1833.11  1872.02
                             1902.11  2006.40  2129.40  2133.13  2167.66
                             2191.68  4380.34  4403.17  4418.82  4434.46
                             4475.36  4492.12  4501.45  4509.45  4536.45
                             5428.84

 Zero-point correction=                           0.161257 (Hartree/Particle)
 Thermal correction to Energy=                    0.168083
 Thermal correction to Enthalpy=                  0.169027
 Thermal correction to Gibbs Free Energy=         0.130704
 Sum of electronic and zero-point Energies=           -422.960126
 Sum of electronic and thermal Energies=              -422.953300
 Sum of electronic and thermal Enthalpies=            -422.952356
 Sum of electronic and thermal Free Energies=         -422.990678

                     E (Thermal)             CV                S
                      KCal/Mol        Cal/Mol-Kelvin    Cal/Mol-Kelvin
 Total                  105.474             29.630             80.657
 Electronic               0.000              0.000              0.000
 Translational            0.889              2.981             40.409
 Rotational               0.889              2.981             28.032
 Vibrational            103.696             23.668             12.217
 Vibration     1          0.648              1.808              1.947
 Vibration     2          0.676              1.724              1.579
 Vibration     3          0.717              1.604              1.232
 Vibration     4          0.758              1.492              1.000
 Vibration     5          0.792              1.403              0.856
 Vibration     6          0.801              1.381              0.824
 Vibration     7          0.849              1.264              0.675
 Vibration     8          0.869              1.219              0.624
 Vibration     9          0.915              1.119              0.525
 Vibration    10          0.956              1.035              0.453

 Normal termination of Gaussian 09 at Mon Jan 27 20:36:55 2020.
