 Gaussian 09, Revision D.01,
 Gaussian 09:  ES64L-G09RevD.01 24-Apr-2013

 -----------------------------
 # b3lyp 6-31G(2df,p) opt Freq
 -----------------------------

 -----
 titel
 -----
 Symbolic Z-matrix:
 Charge =  0 Multiplicity = 1

 SCF Done:  E(RB3LYP) =  -423.176373442     A.U. after   14 cycles
 Optimization completed.
    -- Stationary point found.
 Normal termination of Gaussian 09 at Tue Jan 28 09:14:46 2020.

 ----------------------------------------------------------------------
 #N Geom=AllCheck Guess=TCheck SCRF=Check GenChk RB3LYP/6-31G(2df,p) Fr
 eq
 ----------------------------------------------------------------------

 Structure from the checkpoint file:  "/scratch/puck/g09_4cbe8802-f9a3-41a2-97da-f15fd02f677b/Gau-130452.chk"
 -----
 titel
 -----
 Charge =  0 Multiplicity = 1

                         Standard orientation:
 ---------------------------------------------------------------------
 Center     Atomic      Atomic             Coordinates (Angstroms)
 Number     Number       Type             X           Y           Z
 ---------------------------------------------------------------------
      1          6           0       -2.865822   -0.190644    0.141873
      2          6           0       -1.683235    0.723599   -0.203457
      3          6           0       -0.327625    0.078412   -0.036262
      4          6           0        0.274231   -0.427807    1.333000
      5          6           0        1.619450   -0.367370    0.557272
      6          8           0        1.447792   -1.355283   -0.468120
      7          6           0        0.097164   -1.095763   -0.939415
      8          6           0        0.997333    0.889114   -0.091696
      9          8           0        1.299025    2.017321   -0.336540
     10          1           0       -3.813551    0.342143    0.021547
     11          1           0       -2.898992   -1.073286   -0.505041
     12          1           0       -2.809340   -0.539408    1.178257
     13          1           0       -1.776618    1.074689   -1.239060
     14          1           0       -1.717805    1.624656    0.420776
     15          1           0        0.189596    0.303644    2.139546
     16          1           0       -0.024291   -1.426236    1.659205
     17          1           0        2.607096   -0.435910    1.004616
     18          1           0        0.114307   -0.827863   -2.002798
     19          1           0       -0.513913   -1.995980   -0.807664
 ---------------------------------------------------------------------

 SCF Done:  E(RB3LYP) =  -423.176373442     A.U. after    1 cycles

 The electronic state is 1-A.
 Alpha  occ. eigenvalues --  -19.15018 -19.14674 -10.27307 -10.24683 -10.24052
 Alpha  occ. eigenvalues --  -10.21293 -10.20489 -10.19595 -10.18619  -1.06427
 Alpha  occ. eigenvalues --   -1.04375  -0.85022  -0.77932  -0.72750  -0.65164
 Alpha  occ. eigenvalues --   -0.63674  -0.58305  -0.54000  -0.49843  -0.47597
 Alpha  occ. eigenvalues --   -0.46552  -0.45052  -0.44672  -0.41652  -0.40061
 Alpha  occ. eigenvalues --   -0.38967  -0.38257  -0.37553  -0.36403  -0.35686
 Alpha  occ. eigenvalues --   -0.33633  -0.31996  -0.28071  -0.22483
 Alpha virt. eigenvalues --   -0.01771   0.07037   0.10582   0.11645   0.12193
 Alpha virt. eigenvalues --    0.13019   0.13395   0.15086   0.15482   0.16474
 Alpha virt. eigenvalues --    0.16835   0.17481   0.18187   0.19253   0.20449

 Mulliken charges:
               1
     1  C   -0.391067
     2  C   -0.291809
     3  C    0.148312
     4  C   -0.293849
     5  C   -0.023814
     6  O   -0.279869
     7  C   -0.113390
     8  C    0.415278
     9  O   -0.321985
    10  H    0.121248
    11  H    0.120620
    12  H    0.121765
    13  H    0.112207
    14  H    0.112732
    15  H    0.120777
    16  H    0.118759
    17  H    0.101715
    18  H    0.113613
    19  H    0.108755
 Sum of Mulliken charges =   0.00000

 Dipole moment (field-independent basis, Debye):
    X=             -2.1602    Y=             -1.3214    Z=              1.1010  Tot=              2.7613
 Quadrupole moment (field-independent basis, Debye-Ang):
   XX=            -54.2464   YY=            -60.3111   ZZ=            -50.7390
   XY=             -1.1643   XZ=              2.9190   YZ=              0.7470

  Exact polarizability:  81.884   2.139  74.149   2.802  -1.144  68.762
 Approx polarizability: 109.419   4.542 119.255   1.876  -3.306 105.492

                      1                      2                      3
                      A                      A                      A
 Frequencies --     69.9224               139.3459               163.6775
 Red. masses --      2.1399                 4.1165                 4.8027
 Frc consts  --      0.0062                 0.0471                 0.0758
 IR Inten    --      0.5720                 1.9185                 1.7296

                      4                      5                      6
                      A                      A                      A
 Frequencies --    202.1311               279.6887               306.8987
 Red. masses --      1.2221                 3.2030                 2.9120
 Frc consts  --      0.0294                 0.1476                 0.1616
 IR Inten    --      0.3440                 3.0466                 2.7537

                      7                      8                      9
                      A                      A                      A
 Frequencies --    329.2150               452.8843               526.3568
 Red. masses --      2.0364                 2.2442                 3.2915
 Frc consts  --      0.1300                 0.2712                 0.5373
 IR Inten    --      1.6633                 1.0873                 2.4798

                     10                     11                     12
                      A                      A                      A
 Frequencies --    564.4749               685.8255               693.3863
 Red. masses --      4.2373                 6.0818                 3.3087
 Frc consts  --      0.7955                 1.6854                 0.9373
 IR Inten    --      3.5985                 4.3019                 1.7583

                     13                     14                     15
                      A                      A                      A
 Frequencies --    761.5153               797.9329               834.6396
 Red. masses --      1.7885                 1.7267                 4.0157
 Frc consts  --      0.6111                 0.6477                 1.6482
 IR Inten    --      5.9046                 4.7907                 6.7627

                     16                     17                     18
                      A                      A                      A
 Frequencies --    873.1188               910.8906               948.2236
 Red. masses --      2.9269                 3.7119                 2.3008
 Frc consts  --      1.3147                 1.8146                 1.2188
 IR Inten    --      2.4897                32.8953                13.4368

                     19                     20                     21
                      A                      A                      A
 Frequencies --    974.2693               995.1156              1011.5764
 Red. masses --      2.4357                 2.4800                 1.4592
 Frc consts  --      1.3622                 1.4469                 0.8798
 IR Inten    --     12.6987                13.1861                 4.7524

                     22                     23                     24
                      A                      A                      A
 Frequencies --   1025.2986              1051.9400              1080.9952
 Red. masses --      2.0384                 1.9069                 1.8070
 Frc consts  --      1.2626                 1.2433                 1.2441
 IR Inten    --     11.9423                21.2323                13.2322

                     25                     26                     27
                      A                      A                      A
 Frequencies --   1135.7379              1166.8987              1194.0055
 Red. masses --      1.6848                 1.6985                 1.6324
 Frc consts  --      1.2804                 1.3626                 1.3711
 IR Inten    --      8.9054                 2.8737                 3.0695

                     28                     29                     30
                      A                      A                      A
 Frequencies --   1197.4140              1219.9954              1260.8570
 Red. masses --      1.7226                 1.6472                 1.4895
 Frc consts  --      1.4552                 1.4445                 1.3951
 IR Inten    --      0.0850                 2.1734                 3.4544

                     31                     32                     33
                      A                      A                      A
 Frequencies --   1290.6104              1317.0301              1362.9596
 Red. masses --      1.7150                 1.3255                 1.4019
 Frc consts  --      1.6831                 1.3547                 1.5343
 IR Inten    --      7.6722                 0.6167                 2.9527

                     34                     35                     36
                      A                      A                      A
 Frequencies --   1393.6571              1414.8038              1472.7284
 Red. masses --      2.1312                 1.2277                 1.1230
 Frc consts  --      2.4388                 1.4479                 1.4351
 IR Inten    --      4.0316                 1.7921                 2.8957

                     37                     38                     39
                      A                      A                      A
 Frequencies --   1484.3275              1500.3746              1506.8214
 Red. masses --      1.0639                 1.0398                 1.0746
 Frc consts  --      1.3811                 1.3791                 1.4376
 IR Inten    --      2.0383                 5.8041                 3.1529

                     40                     41                     42
                      A                      A                      A
 Frequencies --   1530.5687              1903.7864              3020.1286
 Red. masses --      1.0930                12.5171                 1.0553
 Frc consts  --      1.5086                26.7295                 5.6710
 IR Inten    --      0.5374               278.1990                46.9957

                     43                     44                     45
                      A                      A                      A
 Frequencies --   3027.1921              3037.5394              3057.6684
 Red. masses --      1.0601                 1.0360                 1.1018
 Frc consts  --      5.7240                 5.6321                 6.0692
 IR Inten    --     20.6046                22.3932                 7.4000

                     46                     47                     48
                      A                      A                      A
 Frequencies --   3062.7894              3069.5019              3105.2386
 Red. masses --      1.1098                 1.0555                 1.1019
 Frc consts  --      6.1338                 5.8595                 6.2602
 IR Inten    --     31.8360                11.4000                35.2539

                     49                     50                     51
                      A                      A                      A
 Frequencies --   3109.9819              3140.3316              3171.1172
 Red. masses --      1.1012                 1.1112                 1.0929
 Frc consts  --      6.2753                 6.4565                 6.4755
 IR Inten    --     30.1171                10.6802                20.9237

 - Thermochemistry -
 -------------------
 Temperature   298.150 Kelvin.  Pressure   1.00000 Atm.
 Atom     1 has atomic number  6 and mass  12.00000

 Molecular mass:   126.06808 amu.
 Principal axes and moments of inertia in atomic units:
                           1         2         3
     Eigenvalues --   712.698031216.249881512.98141
           X            0.99990  -0.00880   0.01131
           Y            0.00876   0.99995   0.00387
           Z           -0.01134  -0.00377   0.99993
 This molecule is an asymmetric top.
 Rotational symmetry number  1.
 Warning -- assumption of classical behavior for rotation
           may cause significant error
 Rotational temperatures (Kelvin)      0.12153     0.07121     0.05725
 Rotational constants (GHZ):           2.53227     1.48386     1.19284
 Zero-point vibrational energy     417696.4 (Joules/Mol)
                                   99.83184 (Kcal/Mol)
 Warning -- explicit consideration of  10 degrees of freedom as
           vibrations may cause significant error
 Vibrational temperatures:    100.60   200.49   235.50   290.82   402.41
          (Kelvin)            441.56   473.67   651.60   757.31   812.15
                              986.75   997.63  1095.65  1148.05  1200.86
                             1256.22  1310.57  1364.28  1401.75  1431.75
                             1455.43  1475.17  1513.51  1555.31  1634.07
                             1678.90  1717.91  1722.81  1755.30  1814.09
                             1856.90  1894.91  1960.99  2005.16  2035.58
                             2118.93  2135.61  2158.70  2167.98  2202.14
                             2739.12  4345.29  4355.45  4370.34  4399.30
                             4406.67  4416.32  4467.74  4474.56  4518.23
                             4562.52

 Zero-point correction=                           0.159092 (Hartree/Particle)
 Thermal correction to Energy=                    0.167455
 Thermal correction to Enthalpy=                  0.168399
 Thermal correction to Gibbs Free Energy=         0.125945
 Sum of electronic and zero-point Energies=           -423.017281
 Sum of electronic and thermal Energies=              -423.008919
 Sum of electronic and thermal Enthalpies=            -423.007974
 Sum of electronic and thermal Free Energies=         -423.050429

                     E (Thermal)             CV                S
                      KCal/Mol        Cal/Mol-Kelvin    Cal/Mol-Kelvin
 Total                  105.079             31.731             89.352
 Electronic               0.000              0.000              0.000
 Translational            0.889              2.981             40.409
 Rotational               0.889              2.981             28.663
 Vibrational            103.302             25.770             20.281
 Vibration     1          0.598              1.968              4.156
 Vibration     2          0.615              1.914              2.813
 Vibration     3          0.623              1.887              2.507
 Vibration     4          0.639              1.837              2.114
 Vibration     5          0.680              1.711              1.536
 Vibration     6          0.697              1.661              1.379
 Vibration     7          0.712              1.617              1.264
 Vibration     8          0.811              1.355              0.787
 Vibration     9          0.881              1.192              0.595
 Vibration    10          0.920              1.108              0.515

 Optimization completed.
    -- Stationary point found.
 Normal termination of Gaussian 09 at Tue Jan 28 09:56:12 2020.
