 Gaussian 09, Revision D.01,
 Gaussian 09:  ES64L-G09RevD.01 24-Apr-2013

 -----------------------------
 # b3lyp 6-31G(2df,p) opt Freq
 -----------------------------

 -----
 titel
 -----
 Symbolic Z-matrix:
 Charge =  0 Multiplicity = 1

 SCF Done:  E(RB3LYP) =  -423.149464022     A.U. after   12 cycles
 Optimization completed.
    -- Stationary point found.
 Normal termination of Gaussian 09 at Tue Jan 28 00:04:47 2020.

 ----------------------------------------------------------------------
 #N Geom=AllCheck Guess=TCheck SCRF=Check GenChk RB3LYP/6-31G(2df,p) Fr
 eq
 ----------------------------------------------------------------------

 Structure from the checkpoint file:  "/scratch/puck/g09_fc4f5e48-85bd-4696-a7b9-e4f58f56885e/Gau-2901.chk"
 -----
 titel
 -----
 Charge =  0 Multiplicity = 1

                         Standard orientation:
 ---------------------------------------------------------------------
 Center     Atomic      Atomic             Coordinates (Angstroms)
 Number     Number       Type             X           Y           Z
 ---------------------------------------------------------------------
      1          8           0       -2.729400   -1.023388   -0.210601
      2          6           0       -1.533500   -0.323503   -0.392922
      3          6           0       -1.134412    0.789458    0.537512
      4          6           0       -0.159158    1.819747   -0.005151
      5          8           0        0.857873    1.068014   -0.670734
      6          6           0        0.991079   -0.176658   -0.013537
      7          6           0        1.974972   -1.127569   -0.607665
      8          6           0        2.267458   -0.467083    0.732906
      9          6           0       -0.361590   -0.527234    0.534310
     10          1           0       -2.909015   -1.091718    0.732649
     11          1           0       -1.332562   -0.208701   -1.453547
     12          1           0       -1.794528    1.062541    1.354318
     13          1           0       -0.587387    2.503483   -0.745212
     14          1           0        0.262543    2.415015    0.819860
     15          1           0        1.725437   -2.182863   -0.624019
     16          1           0        2.536519   -0.778912   -1.467048
     17          1           0        2.226013   -1.074248    1.631594
     18          1           0        3.015290    0.317941    0.743333
     19          1           0       -0.439187   -1.242497    1.346036
 ---------------------------------------------------------------------

 SCF Done:  E(RB3LYP) =  -423.149464022     A.U. after    1 cycles

 The electronic state is 1-A.
 Alpha  occ. eigenvalues --  -19.14578 -19.14212 -10.23971 -10.23681 -10.23143
 Alpha  occ. eigenvalues --  -10.19296 -10.19273 -10.18172 -10.18071  -1.04488
 Alpha  occ. eigenvalues --   -1.02894  -0.85249  -0.84538  -0.70165  -0.63317
 Alpha  occ. eigenvalues --   -0.60182  -0.59200  -0.56568  -0.52086  -0.49624
 Alpha  occ. eigenvalues --   -0.48153  -0.45445  -0.43399  -0.42018  -0.39178
 Alpha  occ. eigenvalues --   -0.38178  -0.37677  -0.36578  -0.34007  -0.32253
 Alpha  occ. eigenvalues --   -0.30306  -0.27895  -0.24282  -0.22778
 Alpha virt. eigenvalues --    0.07517   0.07923   0.10657   0.11468   0.12835
 Alpha virt. eigenvalues --    0.13248   0.14417   0.15429   0.16214   0.16849
 Alpha virt. eigenvalues --    0.17989   0.19355   0.20195   0.21923   0.22844

 Mulliken charges:
               1
     1  O   -0.441241
     2  C    0.142791
     3  C   -0.133124
     4  C   -0.109412
     5  O   -0.296621
     6  C    0.472647
     7  C   -0.334542
     8  C   -0.339681
     9  C   -0.213574
    10  H    0.282549
    11  H    0.120881
    12  H    0.086173
    13  H    0.110592
    14  H    0.094856
    15  H    0.117240
    16  H    0.125070
    17  H    0.107956
    18  H    0.120111
    19  H    0.087332
 Sum of Mulliken charges =   0.00000

 Dipole moment (field-independent basis, Debye):
    X=             -0.1494    Y=              0.0789    Z=              2.1622  Tot=              2.1687
 Quadrupole moment (field-independent basis, Debye-Ang):
   XX=            -55.7498   YY=            -52.1500   ZZ=            -51.3847
   XY=             -2.3753   XZ=             -3.9714   YZ=             -1.0857

  Exact polarizability:  84.496  -3.107  75.770  -0.188   0.816  66.912
 Approx polarizability: 111.090  -2.650 109.406   0.638   0.858 104.581

                      1                      2                      3
                      A                      A                      A
 Frequencies --    117.4074               153.2837               168.7540
 Red. masses --      3.8292                 1.0701                 3.0919
 Frc consts  --      0.0311                 0.0148                 0.0519
 IR Inten    --      1.8561                82.7222                 5.3114

                      4                      5                      6
                      A                      A                      A
 Frequencies --    248.6732               283.3953               322.1199
 Red. masses --      3.2116                 2.3094                 2.4384
 Frc consts  --      0.1170                 0.1093                 0.1491
 IR Inten    --      4.4340                 3.8365                 1.4828

                      7                      8                      9
                      A                      A                      A
 Frequencies --    364.6551               419.8330               477.0787
 Red. masses --      3.4391                 3.6912                 3.9840
 Frc consts  --      0.2694                 0.3833                 0.5343
 IR Inten    --      5.4347                 4.6048                 4.4203

                     10                     11                     12
                      A                      A                      A
 Frequencies --    555.6618               707.1503               765.1048
 Red. masses --      3.7384                 4.2523                 1.0807
 Frc consts  --      0.6801                 1.2529                 0.3727
 IR Inten    --      0.7761                10.4497                 2.0103

                     13                     14                     15
                      A                      A                      A
 Frequencies --    796.8944               846.3282               852.1676
 Red. masses --      1.9764                 1.9433                 2.9236
 Frc consts  --      0.7395                 0.8201                 1.2509
 IR Inten    --      3.4634                 7.8311                28.8445

                     16                     17                     18
                      A                      A                      A
 Frequencies --    897.6910               905.2269               939.0000
 Red. masses --      2.7141                 1.7708                 1.8616
 Frc consts  --      1.2886                 0.8549                 0.9671
 IR Inten    --      2.4519                 4.0001                 4.9911

                     19                     20                     21
                      A                      A                      A
 Frequencies --    954.7220               980.3613               995.9927
 Red. masses --      2.8436                 2.7104                 1.8584
 Frc consts  --      1.5271                 1.5348                 1.0862
 IR Inten    --     17.2600                17.2480                25.2320

                     22                     23                     24
                      A                      A                      A
 Frequencies --   1040.9187              1045.1539              1069.3121
 Red. masses --      1.9805                 1.4956                 2.9390
 Frc consts  --      1.2643                 0.9626                 1.9799
 IR Inten    --     12.7938                 1.2221                47.6319

                     25                     26                     27
                      A                      A                      A
 Frequencies --   1073.1220              1096.5644              1114.1518
 Red. masses --      1.4709                 1.5196                 1.6101
 Frc consts  --      0.9980                 1.0766                 1.1776
 IR Inten    --      3.9210                 9.2172                55.9237

                     28                     29                     30
                      A                      A                      A
 Frequencies --   1116.7563              1158.9678              1188.4895
 Red. masses --      1.8263                 1.9182                 1.2680
 Frc consts  --      1.3419                 1.5181                 1.0553
 IR Inten    --     16.0005                58.5649                 0.0225

                     31                     32                     33
                      A                      A                      A
 Frequencies --   1222.2790              1250.2019              1260.9479
 Red. masses --      1.2900                 1.5705                 2.0855
 Frc consts  --      1.1355                 1.4462                 1.9537
 IR Inten    --      4.6599                 7.1434                47.2235

                     34                     35                     36
                      A                      A                      A
 Frequencies --   1284.9799              1350.0704              1382.3069
 Red. masses --      1.6978                 1.9228                 1.3790
 Frc consts  --      1.6517                 2.0649                 1.5524
 IR Inten    --      7.4992                 7.7354                35.8236

                     37                     38                     39
                      A                      A                      A
 Frequencies --   1396.4592              1450.8292              1458.6933
 Red. masses --      1.7741                 1.0933                 1.9100
 Frc consts  --      2.0384                 1.3559                 2.3945
 IR Inten    --      6.6821                 2.7732                69.6896

                     40                     41                     42
                      A                      A                      A
 Frequencies --   1500.8689              1516.9273              2981.0280
 Red. masses --      1.6697                 1.1354                 1.0695
 Frc consts  --      2.2160                 1.5393                 5.5996
 IR Inten    --     27.1295                 0.3805                77.4721

                     43                     44                     45
                      A                      A                      A
 Frequencies --   3071.4486              3127.4260              3135.9284
 Red. masses --      1.0939                 1.0530                 1.0558
 Frc consts  --      6.0800                 6.0683                 6.1172
 IR Inten    --     36.8306                13.2505                 7.6752

                     46                     47                     48
                      A                      A                      A
 Frequencies --   3163.5185              3165.5751              3174.5391
 Red. masses --      1.0896                 1.0911                 1.0906
 Frc consts  --      6.4249                 6.4419                 6.4753
 IR Inten    --      8.0792                 4.4989                15.8594

                     49                     50                     51
                      A                      A                      A
 Frequencies --   3215.0612              3229.8129              3818.1643
 Red. masses --      1.1182                 1.1157                 1.0659
 Frc consts  --      6.8098                 6.8572                 9.1552
 IR Inten    --      0.9394                10.3792                19.4066

 - Thermochemistry -
 -------------------
 Temperature   298.150 Kelvin.  Pressure   1.00000 Atm.
 Atom     1 has atomic number  8 and mass  15.99491

 Molecular mass:   126.06808 amu.
 Principal axes and moments of inertia in atomic units:
                           1         2         3
     Eigenvalues --   601.951071341.104541651.21204
           X            0.99959  -0.02829  -0.00495
           Y            0.02831   0.99959   0.00450
           Z            0.00482  -0.00464   0.99998
 This molecule is an asymmetric top.
 Rotational symmetry number  1.
 Warning -- assumption of classical behavior for rotation
           may cause significant error
 Rotational temperatures (Kelvin)      0.14389     0.06458     0.05245
 Rotational constants (GHZ):           2.99815     1.34571     1.09298
 Zero-point vibrational energy     417568.5 (Joules/Mol)
                                   99.80127 (Kcal/Mol)
 Warning -- explicit consideration of  10 degrees of freedom as
           vibrations may cause significant error
 Vibrational temperatures:    168.92   220.54   242.80   357.78   407.74
          (Kelvin)            463.46   524.66   604.05   686.41   799.47
                             1017.43  1100.81  1146.55  1217.68  1226.08
                             1291.58  1302.42  1351.01  1373.63  1410.52
                             1433.01  1497.65  1503.74  1538.50  1543.98
                             1577.71  1603.01  1606.76  1667.49  1709.97
                             1758.58  1798.76  1814.22  1848.80  1942.45
                             1988.83  2009.19  2087.42  2098.73  2159.41
                             2182.52  4289.03  4419.12  4499.66  4511.90
                             4551.59  4554.55  4567.45  4625.75  4646.97
                             5493.48

 Zero-point correction=                           0.159043 (Hartree/Particle)
 Thermal correction to Energy=                    0.167225
 Thermal correction to Enthalpy=                  0.168169
 Thermal correction to Gibbs Free Energy=         0.126493
 Sum of electronic and zero-point Energies=           -422.990421
 Sum of electronic and thermal Energies=              -422.982239
 Sum of electronic and thermal Enthalpies=            -422.981295
 Sum of electronic and thermal Free Energies=         -423.022971

                     E (Thermal)             CV                S
                      KCal/Mol        Cal/Mol-Kelvin    Cal/Mol-Kelvin
 Total                  104.935             32.054             87.714
 Electronic               0.000              0.000              0.000
 Translational            0.889              2.981             40.409
 Rotational               0.889              2.981             28.679
 Vibrational            103.158             26.093             18.627
 Vibration     1          0.608              1.935              3.143
 Vibration     2          0.619              1.899              2.631
 Vibration     3          0.625              1.881              2.449
 Vibration     4          0.662              1.765              1.740
 Vibration     5          0.682              1.704              1.513
 Vibration     6          0.707              1.631              1.299
 Vibration     7          0.738              1.545              1.102
 Vibration     8          0.783              1.427              0.893
 Vibration     9          0.834              1.301              0.718
 Vibration    10          0.911              1.127              0.533

 Optimization completed.
    -- Stationary point found.
 Normal termination of Gaussian 09 at Tue Jan 28 00:51:25 2020.
