 Gaussian 09, Revision D.01,
 Gaussian 09:  ES64L-G09RevD.01 24-Apr-2013

 -----------------------------
 # b3lyp 6-31G(2df,p) opt Freq
 -----------------------------

 -----
 titel
 -----
 Symbolic Z-matrix:
 Charge =  0 Multiplicity = 1

 SCF Done:  E(RB3LYP) =  -423.117788460     A.U. after   12 cycles
 Optimization completed.
    -- Stationary point found.
 Normal termination of Gaussian 09 at Mon Jan 27 18:09:09 2020.

 ----------------------------------------------------------------------
 #N Geom=AllCheck Guess=TCheck SCRF=Check GenChk RB3LYP/6-31G(2df,p) Fr
 eq
 ----------------------------------------------------------------------

 Structure from the checkpoint file:  "/scratch/puck/g09_05714a95-12c4-4670-808e-dc810bd3ddf5/Gau-41305.chk"
 -----
 titel
 -----
 Charge =  0 Multiplicity = 1

                         Standard orientation:
 ---------------------------------------------------------------------
 Center     Atomic      Atomic             Coordinates (Angstroms)
 Number     Number       Type             X           Y           Z
 ---------------------------------------------------------------------
      1          8           0       -2.467562   -0.879857   -0.040060
      2          6           0       -1.311644   -0.129268    0.014650
      3          6           0       -0.494818    0.317677    1.248402
      4          6           0        0.292837    0.835702   -0.008319
      5          6           0       -1.056047    1.326206   -0.591590
      6          6           0        1.793354    0.967774   -0.024805
      7          6           0        2.178872   -0.553156    0.121658
      8          8           0        1.013617   -1.371285   -0.159499
      9          6           0        0.022740   -0.513888   -0.675601
     10          1           0       -3.129861   -0.467685    0.525363
     11          1           0       -0.939098    1.091784    1.880558
     12          1           0       -0.026396   -0.474771    1.831339
     13          1           0       -1.555801    2.149240   -0.075735
     14          1           0       -1.122155    1.425367   -1.678098
     15          1           0        2.151347    1.369961   -0.977720
     16          1           0        2.218395    1.568353    0.783181
     17          1           0        2.986669   -0.827273   -0.566919
     18          1           0        2.506476   -0.785556    1.140505
     19          1           0       -0.009783   -0.546566   -1.772374
 ---------------------------------------------------------------------

 SCF Done:  E(RB3LYP) =  -423.117788460     A.U. after    1 cycles

 The electronic state is 1-A.
 Alpha  occ. eigenvalues --  -19.14623 -19.13461 -10.25167 -10.23019 -10.22185
 Alpha  occ. eigenvalues --  -10.20268 -10.19394 -10.19315 -10.18183  -1.03944
 Alpha  occ. eigenvalues --   -1.02616  -0.90062  -0.76299  -0.67928  -0.67082
 Alpha  occ. eigenvalues --   -0.62646  -0.58292  -0.53504  -0.50856  -0.48492
 Alpha  occ. eigenvalues --   -0.46743  -0.45704  -0.43922  -0.40542  -0.39020
 Alpha  occ. eigenvalues --   -0.38817  -0.36992  -0.34663  -0.33387  -0.31751
 Alpha  occ. eigenvalues --   -0.30550  -0.27562  -0.25935  -0.24747
 Alpha virt. eigenvalues --    0.07793   0.08979   0.09622   0.11441   0.12361
 Alpha virt. eigenvalues --    0.14176   0.14993   0.15360   0.16250   0.17421
 Alpha virt. eigenvalues --    0.17600   0.17827   0.20821   0.21556   0.21954

 Mulliken charges:
               1
     1  O   -0.468954
     2  C    0.353665
     3  C   -0.331754
     4  C    0.317580
     5  C   -0.392752
     6  C   -0.386864
     7  C   -0.069741
     8  O   -0.291276
     9  C    0.094575
    10  H    0.283677
    11  H    0.080500
    12  H    0.114444
    13  H    0.093535
    14  H    0.100642
    15  H    0.112290
    16  H    0.109435
    17  H    0.106241
    18  H    0.110483
    19  H    0.064276
 Sum of Mulliken charges =   0.00000

 Dipole moment (field-independent basis, Debye):
    X=              0.2111    Y=              2.4656    Z=              0.7706  Tot=              2.5918
 Quadrupole moment (field-independent basis, Debye-Ang):
   XX=            -47.6034   YY=            -58.1797   ZZ=            -51.4024
   XY=             -1.6194   XZ=             -2.7550   YZ=             -0.5187

  Exact polarizability:  88.209  -3.078  67.498  -0.332  -0.418  70.142
 Approx polarizability: 118.866  -1.888 105.299   0.158   0.602 107.509

                      1                      2                      3
                      A                      A                      A
 Frequencies --    103.5196               216.3862               241.4629
 Red. masses --      2.0973                 1.3552                 5.4800
 Frc consts  --      0.0132                 0.0374                 0.1882
 IR Inten    --      2.3684                49.8256                 5.7855

                      4                      5                      6
                      A                      A                      A
 Frequencies --    255.1783               345.4387               412.5846
 Red. masses --      1.9057                 3.3872                 3.2426
 Frc consts  --      0.0731                 0.2381                 0.3252
 IR Inten    --     39.1500                 4.1777                11.7550

                      7                      8                      9
                      A                      A                      A
 Frequencies --    489.6898               510.1187               578.9981
 Red. masses --      3.0352                 2.3573                 3.2882
 Frc consts  --      0.4288                 0.3614                 0.6495
 IR Inten    --      4.4941                 2.2805                 0.5856

                     10                     11                     12
                      A                      A                      A
 Frequencies --    645.8538               689.0448               734.2373
 Red. masses --      3.9350                 2.8338                 4.2978
 Frc consts  --      0.9671                 0.7927                 1.3651
 IR Inten    --     14.8015                 2.5115                 6.8332

                     13                     14                     15
                      A                      A                      A
 Frequencies --    787.3840               834.9791               846.0078
 Red. masses --      3.2621                 1.4289                 2.5168
 Frc consts  --      1.1916                 0.5870                 1.0613
 IR Inten    --      2.6233                 2.6031                 1.2012

                     16                     17                     18
                      A                      A                      A
 Frequencies --    904.4863               918.8295               959.7606
 Red. masses --      3.2437                 2.7158                 3.1449
 Frc consts  --      1.5635                 1.3509                 1.7068
 IR Inten    --     10.9688                 5.7205                46.5166

                     19                     20                     21
                      A                      A                      A
 Frequencies --    969.9287              1012.5940              1034.5486
 Red. masses --      2.1936                 1.6992                 2.2749
 Frc consts  --      1.2159                 1.0265                 1.4345
 IR Inten    --      1.5632                 3.3075                 9.4460

                     22                     23                     24
                      A                      A                      A
 Frequencies --   1055.7199              1093.6666              1098.8462
 Red. masses --      1.5656                 1.7236                 2.5631
 Frc consts  --      1.0281                 1.2147                 1.8235
 IR Inten    --      1.4713               106.4852                43.8095

                     25                     26                     27
                      A                      A                      A
 Frequencies --   1120.2354              1129.0888              1142.5638
 Red. masses --      2.1455                 1.3765                 1.6767
 Frc consts  --      1.5864                 1.0339                 1.2896
 IR Inten    --     30.8808                 3.6010                 1.4076

                     28                     29                     30
                      A                      A                      A
 Frequencies --   1158.6256              1172.1104              1223.2812
 Red. masses --      1.6436                 1.6153                 1.2548
 Frc consts  --      1.2999                 1.3075                 1.1063
 IR Inten    --      4.2116                 4.1684                 0.9797

                     31                     32                     33
                      A                      A                      A
 Frequencies --   1236.5848              1275.5416              1291.5260
 Red. masses --      1.3466                 1.7706                 1.8270
 Frc consts  --      1.2132                 1.6973                 1.7955
 IR Inten    --      6.5470               109.9350               137.4319

                     34                     35                     36
                      A                      A                      A
 Frequencies --   1327.4714              1358.6203              1382.9677
 Red. masses --      2.4244                 1.3649                 1.6855
 Frc consts  --      2.5171                 1.4844                 1.8993
 IR Inten    --      8.4448                 1.5360                 4.8909

                     37                     38                     39
                      A                      A                      A
 Frequencies --   1406.1412              1486.2554              1491.5783
 Red. masses --      1.5037                 1.1030                 1.0999
 Frc consts  --      1.7517                 1.4355                 1.4418
 IR Inten    --     16.2931                 0.7261                 1.3998

                     40                     41                     42
                      A                      A                      A
 Frequencies --   1519.6630              1535.7725              3019.3525
 Red. masses --      1.0899                 1.2936                 1.0825
 Frc consts  --      1.4830                 1.7977                 5.8147
 IR Inten    --      0.2380                11.7973                60.6384

                     43                     44                     45
                      A                      A                      A
 Frequencies --   3030.1685              3054.2428              3056.0807
 Red. masses --      1.0601                 1.0626                 1.0558
 Frc consts  --      5.7351                 5.8401                 5.8096
 IR Inten    --     63.1137                36.9023                42.8998

                     46                     47                     48
                      A                      A                      A
 Frequencies --   3061.7794              3069.3880              3106.9682
 Red. masses --      1.0588                 1.1042                 1.1056
 Frc consts  --      5.8480                 6.1293                 6.2880
 IR Inten    --     28.0573                27.2330                27.4543

                     49                     50                     51
                      A                      A                      A
 Frequencies --   3126.6649              3145.7475              3806.7591
 Red. masses --      1.1118                 1.1059                 1.0657
 Frc consts  --      6.4037                 6.4479                 9.0990
 IR Inten    --     32.5312                20.5853                27.6030

 - Thermochemistry -
 -------------------
 Temperature   298.150 Kelvin.  Pressure   1.00000 Atm.
 Atom     1 has atomic number  8 and mass  15.99491

 Molecular mass:   126.06808 amu.
 Principal axes and moments of inertia in atomic units:
                           1         2         3
     Eigenvalues --   539.308931186.239051401.17728
           X            0.99991  -0.01314  -0.00234
           Y            0.01309   0.99974  -0.01880
           Z            0.00259   0.01876   0.99982
 This molecule is an asymmetric top.
 Rotational symmetry number  1.
 Warning -- assumption of classical behavior for rotation
           may cause significant error
 Rotational temperatures (Kelvin)      0.16060     0.07302     0.06182
 Rotational constants (GHZ):           3.34640     1.52140     1.28802
 Zero-point vibrational energy     421530.8 (Joules/Mol)
                                  100.74827 (Kcal/Mol)
 Warning -- explicit consideration of   9 degrees of freedom as
           vibrations may cause significant error
 Vibrational temperatures:    148.94   311.33   347.41   367.14   497.01
          (Kelvin)            593.62   704.55   733.95   833.05   929.24
                              991.38  1056.40  1132.87  1201.35  1217.22
                             1301.35  1321.99  1380.88  1395.51  1456.90
                             1488.48  1518.94  1573.54  1580.99  1611.77
                             1624.50  1643.89  1667.00  1686.40  1760.03
                             1779.17  1835.22  1858.22  1909.93  1954.75
                             1989.78  2023.12  2138.39  2146.05  2186.45
                             2209.63  4344.17  4359.73  4394.37  4397.01
                             4405.21  4416.16  4470.23  4498.57  4526.02
                             5477.07

 Zero-point correction=                           0.160553 (Hartree/Particle)
 Thermal correction to Energy=                    0.168028
 Thermal correction to Enthalpy=                  0.168972
 Thermal correction to Gibbs Free Energy=         0.128882
 Sum of electronic and zero-point Energies=           -422.957236
 Sum of electronic and thermal Energies=              -422.949761
 Sum of electronic and thermal Enthalpies=            -422.948816
 Sum of electronic and thermal Free Energies=         -422.988906

                     E (Thermal)             CV                S
                      KCal/Mol        Cal/Mol-Kelvin    Cal/Mol-Kelvin
 Total                  105.439             30.323             84.376
 Electronic               0.000              0.000              0.000
 Translational            0.889              2.981             40.409
 Rotational               0.889              2.981             28.285
 Vibrational            103.662             24.362             15.682
 Vibration     1          0.605              1.946              3.387
 Vibration     2          0.645              1.816              1.989
 Vibration     3          0.658              1.777              1.792
 Vibration     4          0.666              1.754              1.695
 Vibration     5          0.724              1.585              1.187
 Vibration     6          0.776              1.443              0.918
 Vibration     7          0.846              1.273              0.684
 Vibration     8          0.865              1.228              0.633
 Vibration     9          0.936              1.077              0.487

 Optimization completed.
    -- Stationary point found.
 Normal termination of Gaussian 09 at Mon Jan 27 19:17:05 2020.
