 Gaussian 09, Revision D.01,
 Gaussian 09:  ES64L-G09RevD.01 24-Apr-2013

 -----------------------------
 # b3lyp 6-31G(2df,p) opt Freq
 -----------------------------

 -----
 titel
 -----
 Symbolic Z-matrix:
 Charge =  0 Multiplicity = 1

 SCF Done:  E(RB3LYP) =  -423.148447368     A.U. after   14 cycles
 Optimization completed.
    -- Stationary point found.
 Normal termination of Gaussian 09 at Tue Jan 28 08:16:24 2020.

 ----------------------------------------------------------------------
 #N Geom=AllCheck Guess=TCheck SCRF=Check GenChk RB3LYP/6-31G(2df,p) Fr
 eq
 ----------------------------------------------------------------------

 Structure from the checkpoint file:  "/scratch/puck/g09_d5ad2931-8ad2-4281-a999-5a1f43e6b07b/Gau-79674.chk"
 -----
 titel
 -----
 Charge =  0 Multiplicity = 1

                         Standard orientation:
 ---------------------------------------------------------------------
 Center     Atomic      Atomic             Coordinates (Angstroms)
 Number     Number       Type             X           Y           Z
 ---------------------------------------------------------------------
      1          6           0        3.713385   -0.642565   -0.250147
      2          8           0        2.327620   -0.588467   -0.505485
      3          6           0        1.598082    0.221118    0.411589
      4          6           0        1.736339    1.719896    0.096081
      5          6           0        0.197261   -0.200251    0.367073
      6          6           0       -0.960063   -0.530499    0.351365
      7          6           0       -2.369741   -0.886501    0.294682
      8          6           0       -3.199963    0.141335   -0.478275
      9          8           0       -4.309475    0.473661   -0.162727
     10          1           0        4.212983    0.326201   -0.396013
     11          1           0        3.924670   -0.989307    0.773708
     12          1           0        4.137062   -1.358955   -0.957889
     13          1           0        1.979782    0.038851    1.431218
     14          1           0        1.151282    2.311597    0.805305
     15          1           0        2.780513    2.036354    0.166442
     16          1           0        1.372842    1.921010   -0.914643
     17          1           0       -2.491605   -1.847872   -0.228087
     18          1           0       -2.812287   -1.007594    1.288820
     19          1           0       -2.692209    0.552959   -1.377369
 ---------------------------------------------------------------------

 SCF Done:  E(RB3LYP) =  -423.148447368     A.U. after    1 cycles

 The electronic state is 1-A.
 Alpha  occ. eigenvalues --  -19.14881 -19.14508 -10.28201 -10.26110 -10.22913
 Alpha  occ. eigenvalues --  -10.22238 -10.18735 -10.18505 -10.18128  -1.05676
 Alpha  occ. eigenvalues --   -1.03805  -0.80867  -0.78393  -0.71253  -0.69096
 Alpha  occ. eigenvalues --   -0.62347  -0.59254  -0.52239  -0.50020  -0.49330
 Alpha  occ. eigenvalues --   -0.47090  -0.45935  -0.44787  -0.42609  -0.41939
 Alpha  occ. eigenvalues --   -0.40772  -0.39496  -0.37997  -0.37308  -0.32246
 Alpha  occ. eigenvalues --   -0.28308  -0.27433  -0.25807  -0.24875
 Alpha virt. eigenvalues --   -0.02904   0.03259   0.04626   0.08951   0.11586
 Alpha virt. eigenvalues --    0.12515   0.13361   0.13858   0.15142   0.15789
 Alpha virt. eigenvalues --    0.16716   0.17125   0.18767   0.20414   0.21544

 Mulliken charges:
               1
     1  C   -0.231528
     2  O   -0.241892
     3  C   -0.039647
     4  C   -0.392517
     5  C    0.071634
     6  C    0.080445
     7  C   -0.417617
     8  C    0.171665
     9  O   -0.230336
    10  H    0.107939
    11  H    0.106344
    12  H    0.132005
    13  H    0.093313
    14  H    0.128365
    15  H    0.118774
    16  H    0.134109
    17  H    0.159303
    18  H    0.154571
    19  H    0.095070
 Sum of Mulliken charges =   0.00000

 Dipole moment (field-independent basis, Debye):
    X=              2.7579    Y=             -0.2523    Z=              0.4527  Tot=              2.8062
 Quadrupole moment (field-independent basis, Debye-Ang):
   XX=            -59.0897   YY=            -52.2994   ZZ=            -52.5311
   XY=              5.8170   XZ=              2.3016   YZ=             -0.1356

  Exact polarizability: 120.696   2.834  67.945  -1.694  -1.757  61.447
 Approx polarizability: 162.279   6.833  95.602  -3.384   0.034  91.953

                      1                      2                      3
                      A                      A                      A
 Frequencies --     14.1052                44.3965                62.7996
 Red. masses --      3.5258                 5.0598                 2.2230
 Frc consts  --      0.0004                 0.0059                 0.0052
 IR Inten    --      1.6351                 3.1224                 4.9593

                      4                      5                      6
                      A                      A                      A
 Frequencies --     96.2144               104.6675               186.6520
 Red. masses --      2.5163                 3.4691                 1.7509
 Frc consts  --      0.0137                 0.0224                 0.0359
 IR Inten    --      2.3062                 3.9346                 4.0155

                      7                      8                      9
                      A                      A                      A
 Frequencies --    210.7255               252.4472               293.6224
 Red. masses --      1.3294                 1.4552                 3.2745
 Frc consts  --      0.0348                 0.0546                 0.1663
 IR Inten    --      0.4404                 0.4979                 2.6557

                     10                     11                     12
                      A                      A                      A
 Frequencies --    350.4580               368.9250               449.5739
 Red. masses --      4.0024                 3.5128                 4.0834
 Frc consts  --      0.2896                 0.2817                 0.4863
 IR Inten    --      0.6895                 1.7752                27.7224

                     13                     14                     15
                      A                      A                      A
 Frequencies --    470.8478               529.9310               571.6762
 Red. masses --      3.7653                 5.3404                 4.0096
 Frc consts  --      0.4918                 0.8836                 0.7721
 IR Inten    --      2.5303                 0.8628                 1.5097

                     16                     17                     18
                      A                      A                      A
 Frequencies --    724.5083               793.4001               864.3453
 Red. masses --      1.7378                 2.2397                 2.4785
 Frc consts  --      0.5374                 0.8307                 1.0910
 IR Inten    --      1.0460                 1.4385                12.5306

                     19                     20                     21
                      A                      A                      A
 Frequencies --   1003.1177              1033.9326              1041.1936
 Red. masses --      2.5666                 3.7803                 1.8039
 Frc consts  --      1.5216                 2.3810                 1.1522
 IR Inten    --     19.1417                47.9802                 2.1800

                     22                     23                     24
                      A                      A                      A
 Frequencies --   1066.1265              1099.0231              1133.1489
 Red. masses --      2.0843                 1.9714                 5.6964
 Frc consts  --      1.3958                 1.4030                 4.3095
 IR Inten    --      7.9395                 6.1976               158.6407

                     25                     26                     27
                      A                      A                      A
 Frequencies --   1179.9371              1184.3784              1211.6440
 Red. masses --      1.3666                 1.8902                 1.2294
 Frc consts  --      1.1210                 1.5622                 1.0634
 IR Inten    --      5.8119                38.2711                17.1987

                     28                     29                     30
                      A                      A                      A
 Frequencies --   1218.6569              1290.7989              1344.9585
 Red. masses --      1.4678                 1.5963                 1.3077
 Frc consts  --      1.2843                 1.5670                 1.3937
 IR Inten    --     25.1027                11.6583                12.0363

                     31                     32                     33
                      A                      A                      A
 Frequencies --   1373.4113              1399.4787              1413.5604
 Red. masses --      1.4238                 1.2321                 1.1676
 Frc consts  --      1.5823                 1.4218                 1.3745
 IR Inten    --     85.2565                 8.1367                 8.6256

                     34                     35                     36
                      A                      A                      A
 Frequencies --   1438.8263              1475.5572              1482.3465
 Red. masses --      1.0996                 1.1138                 1.0549
 Frc consts  --      1.3412                 1.4288                 1.3657
 IR Inten    --      5.7922                 0.9218                 4.4463

                     37                     38                     39
                      A                      A                      A
 Frequencies --   1491.1461              1500.9831              1510.8178
 Red. masses --      1.0562                 1.0648                 1.0629
 Frc consts  --      1.3837                 1.4134                 1.4294
 IR Inten    --      2.8287                 2.7676                 7.8087

                     40                     41                     42
                      A                      A                      A
 Frequencies --   1841.3522              2371.3071              2901.6997
 Red. masses --     10.2780                11.9008                 1.0851
 Frc consts  --     20.5321                39.4278                 5.3831
 IR Inten    --    214.2809                 5.0648                76.1593

                     43                     44                     45
                      A                      A                      A
 Frequencies --   2951.0732              2977.2268              3002.6733
 Red. masses --      1.0801                 1.0390                 1.0667
 Frc consts  --      5.5423                 5.4263                 5.6664
 IR Inten    --     27.3717                67.4252                11.8862

                     46                     47                     48
                      A                      A                      A
 Frequencies --   3026.6983              3049.7336              3079.9540
 Red. masses --      1.0998                 1.0349                 1.0917
 Frc consts  --      5.9359                 5.6710                 6.1016
 IR Inten    --     49.3172                20.9069                 4.7367

                     49                     50                     51
                      A                      A                      A
 Frequencies --   3116.2838              3123.6798              3133.9693
 Red. masses --      1.0961                 1.1017                 1.1031
 Frc consts  --      6.2715                 6.3337                 6.3837
 IR Inten    --     28.5701                24.9356                16.7106

 - Thermochemistry -
 -------------------
 Temperature   298.150 Kelvin.  Pressure   1.00000 Atm.
 Atom     1 has atomic number  6 and mass  12.00000

 Molecular mass:   126.06808 amu.
 Principal axes and moments of inertia in atomic units:
                           1         2         3
     Eigenvalues --   384.883463311.147913530.39164
           X            0.99994   0.01094   0.00110
           Y           -0.01092   0.99987  -0.01150
           Z           -0.00122   0.01148   0.99993
 This molecule is an asymmetric top.
 Rotational symmetry number  1.
 Rotational temperatures (Kelvin)      0.22504     0.02616     0.02453
 Rotational constants (GHZ):           4.68906     0.54505     0.51120
 Zero-point vibrational energy     405880.9 (Joules/Mol)
                                   97.00787 (Kcal/Mol)
 Warning -- explicit consideration of  15 degrees of freedom as
           vibrations may cause significant error
 Vibrational temperatures:     20.29    63.88    90.35   138.43   150.59
          (Kelvin)            268.55   303.19   363.21   422.46   504.23
                              530.80   646.84   677.44   762.45   822.51
                             1042.40  1141.52  1243.60  1443.26  1487.60
                             1498.04  1533.92  1581.25  1630.35  1697.66
                             1704.05  1743.28  1753.37  1857.17  1935.09
                             1976.03  2013.54  2033.80  2070.15  2122.99
                             2132.76  2145.42  2159.58  2173.73  2649.29
                             3411.78  4174.89  4245.93  4283.56  4320.17
                             4354.74  4387.88  4431.36  4483.63  4494.27
                             4509.08

 Zero-point correction=                           0.154592 (Hartree/Particle)
 Thermal correction to Energy=                    0.165653
 Thermal correction to Enthalpy=                  0.166598
 Thermal correction to Gibbs Free Energy=         0.115417
 Sum of electronic and zero-point Energies=           -422.993855
 Sum of electronic and thermal Energies=              -422.982794
 Sum of electronic and thermal Enthalpies=            -422.981850
 Sum of electronic and thermal Free Energies=         -423.033030

                     E (Thermal)             CV                S
                      KCal/Mol        Cal/Mol-Kelvin    Cal/Mol-Kelvin
 Total                  103.949             36.807            107.718
 Electronic               0.000              0.000              0.000
 Translational            0.889              2.981             40.409
 Rotational               0.889              2.981             29.888
 Vibrational            102.172             30.846             37.422
 Vibration     1          0.593              1.986              7.328
 Vibration     2          0.595              1.980              5.053
 Vibration     3          0.597              1.972              4.367
 Vibration     4          0.603              1.952              3.530
 Vibration     5          0.605              1.945              3.365
 Vibration     6          0.632              1.858              2.261
 Vibration     7          0.643              1.824              2.037
 Vibration     8          0.664              1.759              1.713
 Vibration     9          0.688              1.686              1.453
 Vibration    10          0.727              1.574              1.164
 Vibration    11          0.741              1.536              1.084
 Vibration    12          0.808              1.362              0.797
 Vibration    13          0.828              1.315              0.735
 Vibration    14          0.885              1.184              0.587
 Vibration    15          0.928              1.093              0.501

 Optimization completed.
    -- Stationary point found.
 Normal termination of Gaussian 09 at Tue Jan 28 08:53:37 2020.
