 Gaussian 09, Revision D.01,
 Gaussian 09:  ES64L-G09RevD.01 24-Apr-2013

 -----------------------------
 # b3lyp 6-31G(2df,p) opt Freq
 -----------------------------

 -----
 titel
 -----
 Symbolic Z-matrix:
 Charge =  0 Multiplicity = 1

 SCF Done:  E(RB3LYP) =  -423.188601999     A.U. after   13 cycles
 Optimization completed.
    -- Stationary point found.
 Normal termination of Gaussian 09 at Mon Jan 27 18:03:08 2020.

 ----------------------------------------------------------------------
 #N Geom=AllCheck Guess=TCheck SCRF=Check GenChk RB3LYP/6-31G(2df,p) Fr
 eq
 ----------------------------------------------------------------------

 Structure from the checkpoint file:  "/scratch/puck/g09_fb79d884-0425-48c4-bcdb-2930a3768bd6/Gau-52359.chk"
 -----
 titel
 -----
 Charge =  0 Multiplicity = 1

                         Standard orientation:
 ---------------------------------------------------------------------
 Center     Atomic      Atomic             Coordinates (Angstroms)
 Number     Number       Type             X           Y           Z
 ---------------------------------------------------------------------
      1          8           0       -2.458813    0.807891   -0.000317
      2          6           0       -1.176949    0.271263   -0.000136
      3          6           0       -0.014694    1.246192   -0.000060
      4          6           0        1.109246    0.187664    0.000060
      5          8           0        2.390285    0.753252    0.000178
      6          6           0        0.706210   -0.703382   -1.209617
      7          6           0       -0.727990   -0.956147   -0.769937
      8          6           0       -0.728145   -0.956091    0.769752
      9          6           0        0.705972   -0.703329    1.209714
     10          1           0       -3.095977    0.086610    0.002708
     11          1           0        0.012249    1.879485   -0.891657
     12          1           0        0.012062    1.879528    0.891510
     13          1           0        3.033431    0.036483   -0.000159
     14          1           0        0.786158   -0.159371   -2.155936
     15          1           0        1.311427   -1.616086   -1.275176
     16          1           0       -1.424855   -1.568753   -1.329460
     17          1           0       -1.425079   -1.568730    1.329181
     18          1           0        0.785760   -0.159281    2.156024
     19          1           0        1.311137   -1.616052    1.275417
 ---------------------------------------------------------------------

 SCF Done:  E(RB3LYP) =  -423.188601999     A.U. after    1 cycles

 The electronic state is 1-A.
 Alpha  occ. eigenvalues --  -19.14458 -19.13836 -10.23593 -10.23460 -10.18450
 Alpha  occ. eigenvalues --  -10.18429 -10.17951 -10.17950 -10.17435  -1.03118
 Alpha  occ. eigenvalues --   -1.02342  -0.90116  -0.73822  -0.71334  -0.70957
 Alpha  occ. eigenvalues --   -0.58432  -0.55356  -0.55085  -0.53862  -0.47136
 Alpha  occ. eigenvalues --   -0.46320  -0.45161  -0.43375  -0.39021  -0.37438
 Alpha  occ. eigenvalues --   -0.37344  -0.37124  -0.36292  -0.35941  -0.34555
 Alpha  occ. eigenvalues --   -0.30405  -0.26304  -0.25842  -0.22794
 Alpha virt. eigenvalues --    0.06870   0.07876   0.10356   0.12835   0.14070
 Alpha virt. eigenvalues --    0.14439   0.14733   0.16077   0.16912   0.17780
 Alpha virt. eigenvalues --    0.18272   0.21173   0.22105   0.22132   0.24285

 Mulliken charges:
               1
     1  O   -0.484845
     2  C    0.436652
     3  C   -0.284554
     4  C    0.372659
     5  O   -0.497175
     6  C   -0.271882
     7  C   -0.147184
     8  C   -0.147327
     9  C   -0.271876
    10  H    0.281327
    11  H    0.104797
    12  H    0.104778
    13  H    0.276724
    14  H    0.102435
    15  H    0.083249
    16  H    0.078286
    17  H    0.078246
    18  H    0.102427
    19  H    0.083263
 Sum of Mulliken charges =   0.00000

 Dipole moment (field-independent basis, Debye):
    X=             -0.0980    Y=             -2.6001    Z=              0.0040  Tot=              2.6019
 Quadrupole moment (field-independent basis, Debye-Ang):
   XX=            -48.8715   YY=            -55.2728   ZZ=            -52.9192
   XY=              0.4406   XZ=             -0.0179   YZ=             -0.0005

  Exact polarizability:  80.221  -0.583  70.597  -0.008  -0.002  69.118
 Approx polarizability: 111.513  -2.140 108.801  -0.011  -0.007 104.538

                      1                      2                      3
                      A                      A                      A
 Frequencies --     98.0583               239.6001               274.6766
 Red. masses --      1.0436                 1.3130                 2.4320
 Frc consts  --      0.0059                 0.0444                 0.1081
 IR Inten    --     79.6052                44.3927                61.9605

                      4                      5                      6
                      A                      A                      A
 Frequencies --    277.2880               345.6339               369.7130
 Red. masses --      4.9609                 3.2594                 2.5098
 Frc consts  --      0.2247                 0.2294                 0.2021
 IR Inten    --      0.0068                 8.7139                12.7846

                      7                      8                      9
                      A                      A                      A
 Frequencies --    461.5532               462.5334               499.1511
 Red. masses --      2.0509                 2.1054                 2.2238
 Frc consts  --      0.2574                 0.2654                 0.3264
 IR Inten    --      2.7597                 9.0703                 0.2845

                     10                     11                     12
                      A                      A                      A
 Frequencies --    550.3722               616.8812               628.2821
 Red. masses --      4.8083                 5.7017                 4.2353
 Frc consts  --      0.8581                 1.2784                 0.9850
 IR Inten    --      6.5684                 5.9450                 0.5074

                     13                     14                     15
                      A                      A                      A
 Frequencies --    709.4202               785.7594               851.1220
 Red. masses --      3.7286                 2.8732                 1.4879
 Frc consts  --      1.1056                 1.0452                 0.6351
 IR Inten    --      7.7230                 0.7895                 7.3256

                     16                     17                     18
                      A                      A                      A
 Frequencies --    883.6072               913.2102               931.0814
 Red. masses --      3.4840                 3.1687                 1.5451
 Frc consts  --      1.6027                 1.5569                 0.7892
 IR Inten    --     20.7442                 1.3087                 2.6460

                     19                     20                     21
                      A                      A                      A
 Frequencies --    963.2073               967.2359               983.8845
 Red. masses --      1.4916                 1.6965                 2.2437
 Frc consts  --      0.8153                 0.9351                 1.2797
 IR Inten    --      0.5740                 1.0341                 0.6315

                     22                     23                     24
                      A                      A                      A
 Frequencies --   1010.0184              1022.3270              1101.0730
 Red. masses --      1.4882                 1.4228                 1.8400
 Frc consts  --      0.8944                 0.8761                 1.3143
 IR Inten    --      0.0814                 0.1384                23.0730

                     25                     26                     27
                      A                      A                      A
 Frequencies --   1123.9468              1127.5099              1135.3360
 Red. masses --      1.9299                 1.4677                 1.3366
 Frc consts  --      1.4364                 1.0993                 1.0151
 IR Inten    --      9.3599                60.2200                 0.1210

                     28                     29                     30
                      A                      A                      A
 Frequencies --   1153.4201              1175.1376              1188.5530
 Red. masses --      1.9749                 1.9866                 1.6384
 Frc consts  --      1.5480                 1.6163                 1.3637
 IR Inten    --     93.2926                27.7657                 2.5043

                     31                     32                     33
                      A                      A                      A
 Frequencies --   1218.8508              1260.9880              1274.5666
 Red. masses --      1.6090                 1.7324                 1.6271
 Frc consts  --      1.4083                 1.6230                 1.5574
 IR Inten    --      2.2394                 1.3703                98.1046

                     34                     35                     36
                      A                      A                      A
 Frequencies --   1296.9561              1331.2739              1382.1015
 Red. masses --      1.6981                 2.5684                 2.1488
 Frc consts  --      1.6830                 2.6820                 2.4184
 IR Inten    --      0.4252                87.8326                 6.1200

                     37                     38                     39
                      A                      A                      A
 Frequencies --   1421.0770              1428.7214              1488.0124
 Red. masses --      1.9623                 3.2042                 1.1047
 Frc consts  --      2.3348                 3.8535                 1.4412
 IR Inten    --     14.2582                78.8342                 1.7442

                     40                     41                     42
                      A                      A                      A
 Frequencies --   1490.2430              1521.0185              3024.1658
 Red. masses --      1.1498                 1.1509                 1.0620
 Frc consts  --      1.5045                 1.5688                 5.7224
 IR Inten    --      2.0829                 1.1636                27.3074

                     43                     44                     45
                      A                      A                      A
 Frequencies --   3031.3594              3056.1482              3083.0070
 Red. masses --      1.0610                 1.0585                 1.1013
 Frc consts  --      5.7441                 5.8250                 6.1674
 IR Inten    --     68.4333                19.3391                18.7422

                     46                     47                     48
                      A                      A                      A
 Frequencies --   3086.0168              3106.1956              3178.0775
 Red. masses --      1.1026                 1.1071                 1.0905
 Frc consts  --      6.1868                 6.2933                 6.4893
 IR Inten    --     31.2321                23.5212                 8.0487

                     49                     50                     51
                      A                      A                      A
 Frequencies --   3187.8930              3809.3955              3821.5056
 Red. masses --      1.0938                 1.0659                 1.0659
 Frc consts  --      6.5494                 9.1130                 9.1717
 IR Inten    --     23.3758                17.3097                21.3210

 - Thermochemistry -
 -------------------
 Temperature   298.150 Kelvin.  Pressure   1.00000 Atm.
 Atom     1 has atomic number  8 and mass  15.99491

 Molecular mass:   126.06808 amu.
 Principal axes and moments of inertia in atomic units:
                           1         2         3
     Eigenvalues --   563.398771210.750431294.52346
           X            1.00000  -0.00087  -0.00005
           Y            0.00087   1.00000   0.00001
           Z            0.00005  -0.00001   1.00000
 This molecule is an asymmetric top.
 Rotational symmetry number  1.
 Warning -- assumption of classical behavior for rotation
           may cause significant error
 Rotational temperatures (Kelvin)      0.15373     0.07154     0.06691
 Rotational constants (GHZ):           3.20331     1.49060     1.39414
 Zero-point vibrational energy     420769.5 (Joules/Mol)
                                  100.56632 (Kcal/Mol)
 Warning -- explicit consideration of  11 degrees of freedom as
           vibrations may cause significant error
 Vibrational temperatures:    141.08   344.73   395.20   398.96   497.29
          (Kelvin)            531.93   664.07   665.48   718.17   791.86
                              887.55   903.96  1020.70  1130.53  1224.57
                             1271.31  1313.90  1339.62  1385.84  1391.63
                             1415.59  1453.19  1470.90  1584.20  1617.11
                             1622.23  1633.49  1659.51  1690.76  1710.06
                             1753.65  1814.28  1833.81  1866.03  1915.40
                             1988.53  2044.61  2055.61  2140.92  2144.12
                             2188.40  4351.09  4361.44  4397.11  4435.75
                             4440.08  4469.12  4572.54  4586.66  5480.86
                             5498.29

 Zero-point correction=                           0.160263 (Hartree/Particle)
 Thermal correction to Energy=                    0.168013
 Thermal correction to Enthalpy=                  0.168957
 Thermal correction to Gibbs Free Energy=         0.128525
 Sum of electronic and zero-point Energies=           -423.028339
 Sum of electronic and thermal Energies=              -423.020589
 Sum of electronic and thermal Enthalpies=            -423.019645
 Sum of electronic and thermal Free Energies=         -423.060077

                     E (Thermal)             CV                S
                      KCal/Mol        Cal/Mol-Kelvin    Cal/Mol-Kelvin
 Total                  105.430             31.800             85.096
 Electronic               0.000              0.000              0.000
 Translational            0.889              2.981             40.409
 Rotational               0.889              2.981             28.270
 Vibrational            103.652             25.839             16.418
 Vibration     1          0.604              1.951              3.493
 Vibration     2          0.657              1.780              1.806
 Vibration     3          0.677              1.720              1.567
 Vibration     4          0.678              1.715              1.550
 Vibration     5          0.724              1.584              1.186
 Vibration     6          0.742              1.534              1.081
 Vibration     7          0.819              1.335              0.762
 Vibration     8          0.820              1.333              0.759
 Vibration     9          0.855              1.252              0.660
 Vibration    10          0.906              1.139              0.543
 Vibration    11          0.977              0.996              0.422

 Normal termination of Gaussian 09 at Mon Jan 27 18:50:02 2020.
