 Gaussian 09, Revision D.01,
 Gaussian 09:  ES64L-G09RevD.01 24-Apr-2013

 -----------------------------
 # b3lyp 6-31G(2df,p) opt Freq
 -----------------------------

 -----
 titel
 -----
 Symbolic Z-matrix:
 Charge =  0 Multiplicity = 1

 SCF Done:  E(RB3LYP) =  -423.124932628     A.U. after   13 cycles
 Optimization completed.
    -- Stationary point found.
 Normal termination of Gaussian 09 at Tue Jan 28 03:46:17 2020.

 ----------------------------------------------------------------------
 #N Geom=AllCheck Guess=TCheck SCRF=Check GenChk RB3LYP/6-31G(2df,p) Fr
 eq
 ----------------------------------------------------------------------

 Structure from the checkpoint file:  "/scratch/puck/g09_4ec2031f-050f-44c7-a82a-24884c2498a0/Gau-116582.chk"
 -----
 titel
 -----
 Charge =  0 Multiplicity = 1

                         Standard orientation:
 ---------------------------------------------------------------------
 Center     Atomic      Atomic             Coordinates (Angstroms)
 Number     Number       Type             X           Y           Z
 ---------------------------------------------------------------------
      1          6           0        2.523555   -0.822367    0.054718
      2          6           0        1.366997   -0.046628   -0.552964
      3          8           0        1.253869    1.294938    0.015222
      4          6           0        0.043246    0.963089    0.738159
      5          6           0       -1.252310    1.488608    0.069000
      6          6           0       -1.330163    0.155296   -0.712691
      7          8           0       -2.074706   -0.882508   -0.024226
      8          6           0       -0.860823   -1.565404    0.388198
      9          6           0       -0.031961   -0.371085   -0.048641
     10          1           0        2.578373   -1.828996   -0.374491
     11          1           0        3.467463   -0.309277   -0.152231
     12          1           0        2.412900   -0.911477    1.139830
     13          1           0        1.472037    0.002567   -1.644984
     14          1           0        0.168784    1.055500    1.821137
     15          1           0       -2.100082    1.641270    0.741473
     16          1           0       -1.090363    2.382686   -0.538175
     17          1           0       -1.528377    0.160445   -1.789084
     18          1           0       -0.866490   -1.821433    1.454161
     19          1           0       -0.698796   -2.479773   -0.200277
 ---------------------------------------------------------------------

 SCF Done:  E(RB3LYP) =  -423.124932628     A.U. after    1 cycles

 The electronic state is 1-A.
 Alpha  occ. eigenvalues --  -19.13815 -19.13617 -10.24098 -10.23714 -10.23546
 Alpha  occ. eigenvalues --  -10.23524 -10.19764 -10.18262 -10.18242  -1.05054
 Alpha  occ. eigenvalues --   -1.03068  -0.80832  -0.76480  -0.71470  -0.66147
 Alpha  occ. eigenvalues --   -0.62034  -0.59825  -0.52327  -0.50717  -0.49536
 Alpha  occ. eigenvalues --   -0.48713  -0.44603  -0.43302  -0.40957  -0.40161
 Alpha  occ. eigenvalues --   -0.39215  -0.37609  -0.36796  -0.35556  -0.31278
 Alpha  occ. eigenvalues --   -0.29883  -0.28262  -0.25241  -0.24407
 Alpha virt. eigenvalues --    0.06121   0.06980   0.10760   0.11441   0.11901
 Alpha virt. eigenvalues --    0.13194   0.14000   0.14432   0.15269   0.15896
 Alpha virt. eigenvalues --    0.16203   0.18394   0.19173   0.19684   0.20708

 Mulliken charges:
               1
     1  C   -0.400172
     2  C    0.019098
     3  O   -0.315862
     4  C    0.077158
     5  C   -0.266387
     6  C    0.071124
     7  O   -0.298163
     8  C   -0.193123
     9  C    0.269630
    10  H    0.116980
    11  H    0.130604
    12  H    0.119591
    13  H    0.081027
    14  H    0.075511
    15  H    0.113564
    16  H    0.113653
    17  H    0.074723
    18  H    0.108324
    19  H    0.102722
 Sum of Mulliken charges =   0.00000

 Dipole moment (field-independent basis, Debye):
    X=              0.8542    Y=             -0.9539    Z=             -0.0579  Tot=              1.2818
 Quadrupole moment (field-independent basis, Debye-Ang):
   XX=            -58.3633   YY=            -53.8074   ZZ=            -50.4193
   XY=             -5.4513   XZ=             -0.3901   YZ=             -0.0684

  Exact polarizability:  79.852  -5.052  77.009  -0.681  -0.220  67.828
 Approx polarizability: 108.337  -2.205 110.638  -1.507   0.105 103.531

                      1                      2                      3
                      A                      A                      A
 Frequencies --    117.6768               156.1376               205.6588
 Red. masses --      3.2310                 2.9927                 2.5647
 Frc consts  --      0.0264                 0.0430                 0.0639
 IR Inten    --      3.5183                 2.2848                 0.6164

                      4                      5                      6
                      A                      A                      A
 Frequencies --    234.1355               306.5608               380.6953
 Red. masses --      1.1263                 2.2242                 2.6002
 Frc consts  --      0.0364                 0.1232                 0.2220
 IR Inten    --      0.4559                 0.2400                 3.7673

                      7                      8                      9
                      A                      A                      A
 Frequencies --    393.4785               470.4432               510.7246
 Red. masses --      3.5611                 2.5262                 4.1003
 Frc consts  --      0.3248                 0.3294                 0.6301
 IR Inten    --      2.5745                 3.7688                 1.4448

                     10                     11                     12
                      A                      A                      A
 Frequencies --    703.9289               729.5894               803.2134
 Red. masses --      3.4514                 2.3931                 2.4043
 Frc consts  --      1.0076                 0.7505                 0.9139
 IR Inten    --      1.2414                 0.2989                18.8877

                     13                     14                     15
                      A                      A                      A
 Frequencies --    855.9584               869.5298               881.2996
 Red. masses --      2.4759                 2.5218                 2.5459
 Frc consts  --      1.0688                 1.1234                 1.1650
 IR Inten    --      9.9036                 3.6066                16.4481

                     16                     17                     18
                      A                      A                      A
 Frequencies --    906.6197               974.2911               982.5759
 Red. masses --      2.5563                 2.6627                 3.2768
 Frc consts  --      1.2380                 1.4892                 1.8639
 IR Inten    --     36.6799                20.8429                20.2024

                     19                     20                     21
                      A                      A                      A
 Frequencies --    998.8788              1037.7225              1045.9619
 Red. masses --      3.1981                 1.5361                 3.9143
 Frc consts  --      1.8800                 0.9746                 2.5231
 IR Inten    --      8.5058                10.7731                98.2801

                     22                     23                     24
                      A                      A                      A
 Frequencies --   1052.6952              1085.9486              1127.1721
 Red. masses --      2.8497                 2.0234                 1.6901
 Frc consts  --      1.8606                 1.4059                 1.2652
 IR Inten    --     28.0067                 4.9347                 3.7162

                     25                     26                     27
                      A                      A                      A
 Frequencies --   1135.8811              1161.5378              1172.7136
 Red. masses --      1.9509                 1.5142                 1.9030
 Frc consts  --      1.4830                 1.2036                 1.5420
 IR Inten    --      2.9503                 2.3182                 2.7478

                     28                     29                     30
                      A                      A                      A
 Frequencies --   1190.3312              1248.8879              1259.3316
 Red. masses --      1.6364                 1.5170                 1.6172
 Frc consts  --      1.3661                 1.3941                 1.5111
 IR Inten    --      1.7357                 4.2467                 9.1857

                     31                     32                     33
                      A                      A                      A
 Frequencies --   1266.6188              1298.0367              1314.3132
 Red. masses --      1.9145                 1.3615                 1.5641
 Frc consts  --      1.8097                 1.3516                 1.5919
 IR Inten    --      0.6440                17.3969                12.4036

                     34                     35                     36
                      A                      A                      A
 Frequencies --   1343.5157              1372.6038              1396.0774
 Red. masses --      1.4190                 1.4289                 2.2982
 Frc consts  --      1.5091                 1.5861                 2.6391
 IR Inten    --      3.7319                 4.0510                 5.3605

                     37                     38                     39
                      A                      A                      A
 Frequencies --   1403.5886              1443.0189              1486.4931
 Red. masses --      1.3245                 1.1097                 1.0699
 Frc consts  --      1.5374                 1.3615                 1.3929
 IR Inten    --     12.1606                 4.4949                 3.1751

                     40                     41                     42
                      A                      A                      A
 Frequencies --   1492.3425              1520.9048              2997.3569
 Red. masses --      1.0516                 1.1045                 1.0610
 Frc consts  --      1.3798                 1.5053                 5.6163
 IR Inten    --      3.1695                 0.4248                71.8891

                     43                     44                     45
                      A                      A                      A
 Frequencies --   3015.2191              3033.6343              3054.4107
 Red. masses --      1.0849                 1.0353                 1.0933
 Frc consts  --      5.8113                 5.6135                 6.0096
 IR Inten    --     44.4177                16.6906                35.3809

                     46                     47                     48
                      A                      A                      A
 Frequencies --   3055.7222              3057.3175              3069.1579
 Red. masses --      1.0859                 1.0863                 1.0723
 Frc consts  --      5.9740                 5.9826                 5.9512
 IR Inten    --      3.8380               106.9679                19.8108

                     49                     50                     51
                      A                      A                      A
 Frequencies --   3105.8817              3115.3653              3127.2186
 Red. masses --      1.1007                 1.1024                 1.1082
 Frc consts  --      6.2561                 6.3036                 6.3852
 IR Inten    --     23.2329                23.1727                14.1868

 - Thermochemistry -
 -------------------
 Temperature   298.150 Kelvin.  Pressure   1.00000 Atm.
 Atom     1 has atomic number  6 and mass  12.00000

 Molecular mass:   126.06808 amu.
 Principal axes and moments of inertia in atomic units:
                           1         2         3
     Eigenvalues --   610.957441109.545001491.78383
           X            0.99702  -0.07720  -0.00044
           Y            0.07719   0.99698  -0.00824
           Z            0.00108   0.00818   0.99997
 This molecule is an asymmetric top.
 Rotational symmetry number  1.
 Warning -- assumption of classical behavior for rotation
           may cause significant error
 Rotational temperatures (Kelvin)      0.14177     0.07806     0.05806
 Rotational constants (GHZ):           2.95396     1.62656     1.20979
 Zero-point vibrational energy     418503.8 (Joules/Mol)
                                  100.02482 (Kcal/Mol)
 Warning -- explicit consideration of   9 degrees of freedom as
           vibrations may cause significant error
 Vibrational temperatures:    169.31   224.65   295.90   336.87   441.07
          (Kelvin)            547.73   566.13   676.86   734.82  1012.80
                             1049.72  1155.64  1231.53  1251.06  1267.99
                             1304.42  1401.79  1413.71  1437.16  1493.05
                             1504.90  1514.59  1562.44  1621.75  1634.28
                             1671.19  1687.27  1712.62  1796.87  1811.90
                             1822.38  1867.58  1891.00  1933.02  1974.87
                             2008.64  2019.45  2076.18  2138.73  2147.15
                             2188.24  4312.52  4338.22  4364.72  4394.61
                             4396.50  4398.79  4415.83  4468.67  4482.31
                             4499.36

 Zero-point correction=                           0.159400 (Hartree/Particle)
 Thermal correction to Energy=                    0.167123
 Thermal correction to Enthalpy=                  0.168067
 Thermal correction to Gibbs Free Energy=         0.127318
 Sum of electronic and zero-point Energies=           -422.965533
 Sum of electronic and thermal Energies=              -422.957810
 Sum of electronic and thermal Enthalpies=            -422.956866
 Sum of electronic and thermal Free Energies=         -422.997615

                     E (Thermal)             CV                S
                      KCal/Mol        Cal/Mol-Kelvin    Cal/Mol-Kelvin
 Total                  104.871             30.187             85.763
 Electronic               0.000              0.000              0.000
 Translational            0.889              2.981             40.409
 Rotational               0.889              2.981             28.405
 Vibrational            103.094             24.225             16.950
 Vibration     1          0.608              1.935              3.138
 Vibration     2          0.620              1.896              2.596
 Vibration     3          0.640              1.832              2.082
 Vibration     4          0.654              1.789              1.847
 Vibration     5          0.697              1.661              1.381
 Vibration     6          0.750              1.511              1.036
 Vibration     7          0.761              1.484              0.987
 Vibration     8          0.827              1.316              0.736
 Vibration     9          0.866              1.226              0.632

 Normal termination of Gaussian 09 at Tue Jan 28 04:29:47 2020.
