 Gaussian 09, Revision D.01,
 Gaussian 09:  ES64L-G09RevD.01 24-Apr-2013

 -----------------------------
 # b3lyp 6-31G(2df,p) opt Freq
 -----------------------------

 -----
 titel
 -----
 Symbolic Z-matrix:
 Charge =  0 Multiplicity = 1

 SCF Done:  E(RB3LYP) =  -423.157453869     A.U. after   13 cycles
 Optimization completed.
    -- Stationary point found.
 Normal termination of Gaussian 09 at Mon Jan 27 18:15:57 2020.

 ----------------------------------------------------------------------
 #N Geom=AllCheck Guess=TCheck SCRF=Check GenChk RB3LYP/6-31G(2df,p) Fr
 eq
 ----------------------------------------------------------------------

 Structure from the checkpoint file:  "/scratch/puck/g09_80f072c6-8295-4394-9b00-0cced79f3b12/Gau-168766.chk"
 -----
 titel
 -----
 Charge =  0 Multiplicity = 1

                         Standard orientation:
 ---------------------------------------------------------------------
 Center     Atomic      Atomic             Coordinates (Angstroms)
 Number     Number       Type             X           Y           Z
 ---------------------------------------------------------------------
      1          6           0        2.247510   -0.813075   -0.330236
      2          6           0        0.807496   -0.533068   -0.065285
      3          8           0       -0.167292   -1.479335   -0.520871
      4          6           0       -1.087485   -1.019962    0.527144
      5          6           0       -2.083691   -0.060509   -0.123444
      6          6           0       -1.165298    1.050895   -0.700670
      7          6           0        0.171870    0.842566    0.017534
      8          8           0        1.076964    1.894171    0.122651
      9          6           0        0.017014   -0.158486    1.163033
     10          1           0        2.560703   -1.746043    0.148231
     11          1           0        2.421388   -0.906281   -1.408086
     12          1           0        2.860305    0.009424    0.044782
     13          1           0       -1.508111   -1.858612    1.085061
     14          1           0       -2.679699   -0.562170   -0.890371
     15          1           0       -2.769233    0.337015    0.634089
     16          1           0       -1.054465    0.966985   -1.785336
     17          1           0       -1.548537    2.054913   -0.488295
     18          1           0        0.704604    2.555881    0.716850
     19          1           0        0.291173   -0.019963    2.200381
 ---------------------------------------------------------------------

 SCF Done:  E(RB3LYP) =  -423.157453869     A.U. after    1 cycles

 The electronic state is 1-A.
 Alpha  occ. eigenvalues --  -19.15033 -19.12777 -10.23582 -10.23507 -10.23478
 Alpha  occ. eigenvalues --  -10.18233 -10.18152 -10.18129 -10.17467  -1.05274
 Alpha  occ. eigenvalues --   -1.02802  -0.83179  -0.77711  -0.71774  -0.68743
 Alpha  occ. eigenvalues --   -0.59116  -0.57843  -0.53070  -0.50653  -0.48596
 Alpha  occ. eigenvalues --   -0.45661  -0.45159  -0.42283  -0.41126  -0.38931
 Alpha  occ. eigenvalues --   -0.38670  -0.36861  -0.36189  -0.34723  -0.32785
 Alpha  occ. eigenvalues --   -0.30301  -0.29610  -0.24498  -0.21935
 Alpha virt. eigenvalues --    0.07022   0.09375   0.10086   0.11987   0.13525
 Alpha virt. eigenvalues --    0.14014   0.14417   0.15497   0.16388   0.17451
 Alpha virt. eigenvalues --    0.18734   0.19067   0.19551   0.21240   0.23880

 Mulliken charges:
               1
     1  C   -0.502736
     2  C    0.446276
     3  O   -0.344902
     4  C    0.084272
     5  C   -0.210077
     6  C   -0.280860
     7  C    0.327628
     8  O   -0.479938
     9  C   -0.297870
    10  H    0.123352
    11  H    0.130371
    12  H    0.141171
    13  H    0.079254
    14  H    0.109095
    15  H    0.095717
    16  H    0.115283
    17  H    0.088243
    18  H    0.282257
    19  H    0.093466
 Sum of Mulliken charges =   0.00000

 Dipole moment (field-independent basis, Debye):
    X=             -0.9408    Y=              1.3101    Z=              1.7736  Tot=              2.3973
 Quadrupole moment (field-independent basis, Debye-Ang):
   XX=            -51.8162   YY=            -52.7230   ZZ=            -51.6100
   XY=             -1.6248   XZ=             -0.1760   YZ=              0.8159

  Exact polarizability:  82.552  -1.119  74.686  -1.507  -0.514  66.240
 Approx polarizability: 109.099   0.867 110.852  -4.638   2.349 104.640

                      1                      2                      3
                      A                      A                      A
 Frequencies --    186.4638               191.8012               204.6647
 Red. masses --      1.3101                 1.9497                 1.8395
 Frc consts  --      0.0268                 0.0423                 0.0454
 IR Inten    --      0.3516                 1.3546                 2.4950

                      4                      5                      6
                      A                      A                      A
 Frequencies --    244.2238               293.8514               367.3159
 Red. masses --      2.5865                 1.2145                 3.0722
 Frc consts  --      0.0909                 0.0618                 0.2442
 IR Inten    --      4.1984                57.3343                16.0167

                      7                      8                      9
                      A                      A                      A
 Frequencies --    383.3758               411.0309               482.1376
 Red. masses --      4.0772                 2.6359                 3.5370
 Frc consts  --      0.3531                 0.2624                 0.4844
 IR Inten    --     25.0701                 1.2532                 2.4147

                     10                     11                     12
                      A                      A                      A
 Frequencies --    602.6302               613.2769               733.9975
 Red. masses --      6.1753                 3.1296                 3.4093
 Frc consts  --      1.3213                 0.6935                 1.0822
 IR Inten    --      3.8870                 3.4069                 8.8239

                     13                     14                     15
                      A                      A                      A
 Frequencies --    743.2652               757.0188               833.7674
 Red. masses --      3.7702                 3.4961                 1.6520
 Frc consts  --      1.2272                 1.1805                 0.6766
 IR Inten    --      6.5751                 6.0370                 0.3443

                     16                     17                     18
                      A                      A                      A
 Frequencies --    871.9086               891.1622               898.9461
 Red. masses --      1.7191                 1.7861                 2.3618
 Frc consts  --      0.7700                 0.8357                 1.1245
 IR Inten    --      7.1619                 6.3534                11.6015

                     19                     20                     21
                      A                      A                      A
 Frequencies --    932.4230               963.9886               976.1090
 Red. masses --      1.9339                 2.9830                 3.4154
 Frc consts  --      0.9906                 1.6333                 1.9173
 IR Inten    --     14.6298                18.9552                12.7139

                     22                     23                     24
                      A                      A                      A
 Frequencies --   1013.7925              1044.0546              1104.6540
 Red. masses --      2.0839                 1.8420                 1.8935
 Frc consts  --      1.2619                 1.1830                 1.3614
 IR Inten    --     14.2488                 8.8552                 5.3510

                     25                     26                     27
                      A                      A                      A
 Frequencies --   1140.0078              1150.4688              1173.5413
 Red. masses --      2.0248                 1.5256                 1.7595
 Frc consts  --      1.5504                 1.1897                 1.4277
 IR Inten    --     45.0016                10.1672                13.3551

                     28                     29                     30
                      A                      A                      A
 Frequencies --   1192.6003              1210.4758              1236.2605
 Red. masses --      2.6382                 1.6132                 1.8200
 Frc consts  --      2.2108                 1.3926                 1.6389
 IR Inten    --     22.8656                 4.6405               102.5394

                     31                     32                     33
                      A                      A                      A
 Frequencies --   1277.2999              1308.4513              1324.1610
 Red. masses --      1.4147                 1.9116                 1.5947
 Frc consts  --      1.3599                 1.9282                 1.6474
 IR Inten    --     25.3128                 1.9139                27.3099

                     34                     35                     36
                      A                      A                      A
 Frequencies --   1328.9849              1356.0954              1407.9171
 Red. masses --      1.4908                 1.8100                 1.3624
 Frc consts  --      1.5514                 1.9611                 1.5911
 IR Inten    --      6.9556                 1.5132                 5.3184

                     37                     38                     39
                      A                      A                      A
 Frequencies --   1466.7857              1474.6082              1479.8221
 Red. masses --      2.0040                 1.2696                 1.0516
 Frc consts  --      2.5403                 1.6266                 1.3569
 IR Inten    --      5.5864                 1.0055                 3.4904

                     40                     41                     42
                      A                      A                      A
 Frequencies --   1494.5250              1504.2018              3036.0009
 Red. masses --      1.0978                 1.2817                 1.0636
 Frc consts  --      1.4447                 1.7086                 5.7762
 IR Inten    --      0.6146                 6.0589                23.1534

                     43                     44                     45
                      A                      A                      A
 Frequencies --   3037.8341              3048.1836              3085.6289
 Red. masses --      1.0373                 1.0626                 1.1002
 Frc consts  --      5.6399                 5.8172                 6.1719
 IR Inten    --     31.4097                44.9043                 3.8416

                     46                     47                     48
                      A                      A                      A
 Frequencies --   3096.1481              3099.4947              3105.2779
 Red. masses --      1.0910                 1.1005                 1.1010
 Frc consts  --      6.1620                 6.2288                 6.2553
 IR Inten    --     48.9725                20.0418                33.6918

                     49                     50                     51
                      A                      A                      A
 Frequencies --   3136.4379              3200.4039              3780.2116
 Red. masses --      1.0992                 1.0960                 1.0661
 Frc consts  --      6.3710                 6.6139                 8.9759
 IR Inten    --      7.6491                 8.2677                12.8542

 - Thermochemistry -
 -------------------
 Temperature   298.150 Kelvin.  Pressure   1.00000 Atm.
 Atom     1 has atomic number  6 and mass  12.00000

 Molecular mass:   126.06808 amu.
 Principal axes and moments of inertia in atomic units:
                           1         2         3
     Eigenvalues --   722.07461 921.089751322.95491
           X            0.99485  -0.10134  -0.00038
           Y            0.10133   0.99480  -0.01068
           Z            0.00146   0.01059   0.99994
 This molecule is an asymmetric top.
 Rotational symmetry number  1.
 Warning -- assumption of classical behavior for rotation
           may cause significant error
 Rotational temperatures (Kelvin)      0.11995     0.09403     0.06547
 Rotational constants (GHZ):           2.49938     1.95935     1.36417
 Zero-point vibrational energy     418081.0 (Joules/Mol)
                                   99.92376 (Kcal/Mol)
 Warning -- explicit consideration of  11 degrees of freedom as
           vibrations may cause significant error
 Vibrational temperatures:    268.28   275.96   294.47   351.38   422.79
          (Kelvin)            528.48   551.59   591.38   693.69   867.05
                              882.37  1056.06  1069.39  1089.18  1199.60
                             1254.48  1282.18  1293.38  1341.55  1386.96
                             1404.40  1458.62  1502.16  1589.35  1640.21
                             1655.27  1688.46  1715.88  1741.60  1778.70
                             1837.75  1882.57  1905.17  1912.11  1951.12
                             2025.68  2110.37  2121.63  2129.13  2150.29
                             2164.21  4368.12  4370.76  4385.65  4439.53
                             4454.66  4459.48  4467.80  4512.63  4604.66
                             5438.87

 Zero-point correction=                           0.159239 (Hartree/Particle)
 Thermal correction to Energy=                    0.167161
 Thermal correction to Enthalpy=                  0.168105
 Thermal correction to Gibbs Free Energy=         0.127477
 Sum of electronic and zero-point Energies=           -422.998215
 Sum of electronic and thermal Energies=              -422.990293
 Sum of electronic and thermal Enthalpies=            -422.989349
 Sum of electronic and thermal Free Energies=         -423.029977

                     E (Thermal)             CV                S
                      KCal/Mol        Cal/Mol-Kelvin    Cal/Mol-Kelvin
 Total                  104.895             31.909             85.511
 Electronic               0.000              0.000              0.000
 Translational            0.889              2.981             40.409
 Rotational               0.889              2.981             28.266
 Vibrational            103.118             25.948             16.836
 Vibration     1          0.632              1.858              2.263
 Vibration     2          0.634              1.851              2.210
 Vibration     3          0.640              1.833              2.091
 Vibration     4          0.660              1.772              1.772
 Vibration     5          0.689              1.685              1.452
 Vibration     6          0.740              1.539              1.091
 Vibration     7          0.753              1.506              1.026
 Vibration     8          0.775              1.446              0.923
 Vibration     9          0.838              1.290              0.704
 Vibration    10          0.961              1.026              0.445
 Vibration    11          0.973              1.004              0.427

 Normal termination of Gaussian 09 at Mon Jan 27 19:04:58 2020.
