 Gaussian 09, Revision D.01,
 Gaussian 09:  ES64L-G09RevD.01 24-Apr-2013

 -----------------------------
 # b3lyp 6-31G(2df,p) opt Freq
 -----------------------------

 -----
 titel
 -----
 Symbolic Z-matrix:
 Charge =  0 Multiplicity = 1

 SCF Done:  E(RB3LYP) =  -423.162672462     A.U. after   14 cycles
 SCF Done:  E(RB3LYP) =  -423.162672660     A.U. after    7 cycles
 SCF Done:  E(RB3LYP) =  -423.162672629     A.U. after    8 cycles
 SCF Done:  E(RB3LYP) =  -423.162672992     A.U. after    8 cycles
 SCF Done:  E(RB3LYP) =  -423.162673246     A.U. after    8 cycles
 SCF Done:  E(RB3LYP) =  -423.162673819     A.U. after    8 cycles
 SCF Done:  E(RB3LYP) =  -423.162675601     A.U. after   10 cycles
 SCF Done:  E(RB3LYP) =  -423.162677257     A.U. after   10 cycles
 SCF Done:  E(RB3LYP) =  -423.162679874     A.U. after   10 cycles
 SCF Done:  E(RB3LYP) =  -423.162680716     A.U. after    7 cycles
 SCF Done:  E(RB3LYP) =  -423.162680607     A.U. after    9 cycles
 SCF Done:  E(RB3LYP) =  -423.162680781     A.U. after    8 cycles
 SCF Done:  E(RB3LYP) =  -423.162680762     A.U. after    7 cycles
 Optimization completed on the basis of negligible forces.
    -- Stationary point found.
 Normal termination of Gaussian 09 at Mon Jan 27 14:53:33 2020.

 ----------------------------------------------------------------------
 #N Geom=AllCheck Guess=TCheck SCRF=Check GenChk RB3LYP/6-31G(2df,p) Fr
 eq
 ----------------------------------------------------------------------

 Structure from the checkpoint file:  "/scratch/puck/g09_de724c20-627c-4c09-80b8-60d6fe4248b3/Gau-30591.chk"
 -----
 titel
 -----
 Charge =  0 Multiplicity = 1

                         Standard orientation:
 ---------------------------------------------------------------------
 Center     Atomic      Atomic             Coordinates (Angstroms)
 Number     Number       Type             X           Y           Z
 ---------------------------------------------------------------------
      1          6           0       -4.157816    0.553920    0.230517
      2          6           0       -2.844305   -0.028857   -0.002745
      3          6           0       -1.758606   -0.507704   -0.203150
      4          6           0       -0.440317   -1.084515   -0.429914
      5          6           0        0.672774   -0.338444    0.303718
      6          8           0        1.887144   -1.028603    0.126504
      7          6           0        2.896909   -0.052024    0.323818
      8          6           0        2.256420    1.236941   -0.231636
      9          8           0        0.860621    0.952802   -0.244332
     10          1           0       -4.635547    0.124168    1.118056
     11          1           0       -4.090515    1.636965    0.382043
     12          1           0       -4.825894    0.380846   -0.620564
     13          1           0       -0.413112   -2.127127   -0.090640
     14          1           0       -0.186207   -1.083799   -1.496036
     15          1           0        0.437856   -0.251161    1.380556
     16          1           0        3.135822    0.051083    1.392784
     17          1           0        3.795263   -0.366257   -0.211480
     18          1           0        2.467175    2.108980    0.398811
     19          1           0        2.582683    1.456797   -1.254560
 ---------------------------------------------------------------------

 SCF Done:  E(RB3LYP) =  -423.162680762     A.U. after    1 cycles

 The electronic state is 1-A.
 Alpha  occ. eigenvalues --  -19.15110 -19.14195 -10.27904 -10.23793 -10.23433
 Alpha  occ. eigenvalues --  -10.20099 -10.19810 -10.16681 -10.16295  -1.09004
 Alpha  occ. eigenvalues --   -0.99378  -0.80317  -0.76481  -0.72946  -0.66889
 Alpha  occ. eigenvalues --   -0.63307  -0.60523  -0.51977  -0.50142  -0.48904
 Alpha  occ. eigenvalues --   -0.45935  -0.45434  -0.42344  -0.42097  -0.41881
 Alpha  occ. eigenvalues --   -0.41039  -0.39824  -0.39383  -0.34093  -0.33506
 Alpha  occ. eigenvalues --   -0.27352  -0.26229  -0.24331  -0.23927
 Alpha virt. eigenvalues --    0.06138   0.06671   0.09091   0.11403   0.11551
 Alpha virt. eigenvalues --    0.12539   0.14037   0.14175   0.14596   0.15866
 Alpha virt. eigenvalues --    0.17772   0.18722   0.20632   0.21012   0.22039

 Mulliken charges:
               1
     1  C   -0.496909
     2  C    0.073759
     3  C    0.055455
     4  C   -0.372991
     5  C    0.228436
     6  O   -0.246595
     7  C   -0.112400
     8  C   -0.087049
     9  O   -0.260087
    10  H    0.144690
    11  H    0.148483
    12  H    0.146749
    13  H    0.135753
    14  H    0.135141
    15  H    0.069551
    16  H    0.101221
    17  H    0.120076
    18  H    0.105565
    19  H    0.111152
 Sum of Mulliken charges =   0.00000

 Dipole moment (field-independent basis, Debye):
    X=              0.8088    Y=              0.5848    Z=              0.5382  Tot=              1.1339
 Quadrupole moment (field-independent basis, Debye-Ang):
   XX=            -41.6457   YY=            -54.2838   ZZ=            -52.2614
   XY=              1.6006   XZ=             -0.6439   YZ=              0.7811

  Exact polarizability: 113.254  -5.915  67.677  -3.948   1.397  61.528
 Approx polarizability: 143.777 -16.343 100.680  -8.377   3.373  91.036

                      1                      2                      3
                      A                      A                      A
 Frequencies --     13.6644                33.6042                55.1142
 Red. masses --      1.0269                 2.8501                 3.8471
 Frc consts  --      0.0001                 0.0019                 0.0069
 IR Inten    --      0.0118                 3.2503                 0.5279

                      4                      5                      6
                      A                      A                      A
 Frequencies --     78.1257               175.4600               208.1743
 Red. masses --      3.2239                 2.8643                 3.4287
 Frc consts  --      0.0116                 0.0520                 0.0875
 IR Inten    --      0.9364                 0.9529                 5.7526

                      7                      8                      9
                      A                      A                      A
 Frequencies --    261.1592               327.2979               390.0517
 Red. masses --      2.9553                 4.4284                 3.8981
 Frc consts  --      0.1188                 0.2795                 0.3494
 IR Inten    --      8.7500                 4.4961                 0.0363

                     10                     11                     12
                      A                      A                      A
 Frequencies --    422.3734               519.2279               697.8665
 Red. masses --      4.6999                 3.4026                 2.8305
 Frc consts  --      0.4940                 0.5405                 0.8122
 IR Inten    --      1.7810                 8.4892                 3.1502

                     13                     14                     15
                      A                      A                      A
 Frequencies --    727.2822               781.5735               837.5707
 Red. masses --      6.3824                 3.8194                 2.6924
 Frc consts  --      1.9890                 1.3746                 1.1128
 IR Inten    --      1.7624                 6.1530                17.4291

                     16                     17                     18
                      A                      A                      A
 Frequencies --    875.1978               950.4302              1016.6500
 Red. masses --      1.5241                 2.6643                 4.5116
 Frc consts  --      0.6878                 1.4180                 2.7474
 IR Inten    --      1.5460                11.2760                50.8740

                     19                     20                     21
                      A                      A                      A
 Frequencies --   1026.6721              1052.3502              1054.8400
 Red. masses --      2.6617                 1.5405                 1.4245
 Frc consts  --      1.6530                 1.0051                 0.9339
 IR Inten    --     18.0506                 9.6905                 1.3246

                     22                     23                     24
                      A                      A                      A
 Frequencies --   1066.3378              1075.7948              1150.2977
 Red. masses --      3.2669                 5.3820                 2.9131
 Frc consts  --      2.1887                 3.6699                 2.2711
 IR Inten    --     38.6716                34.0811               178.6168

                     25                     26                     27
                      A                      A                      A
 Frequencies --   1169.5329              1171.9999              1224.7876
 Red. masses --      1.9499                 3.2608                 1.1457
 Frc consts  --      1.5714                 2.6390                 1.0126
 IR Inten    --     54.1906                 9.3422                 2.5460

                     28                     29                     30
                      A                      A                      A
 Frequencies --   1232.3175              1246.0683              1314.0731
 Red. masses --      1.1793                 1.1675                 1.4319
 Frc consts  --      1.0552                 1.0681                 1.4569
 IR Inten    --      6.9749                15.4517                 9.6885

                     31                     32                     33
                      A                      A                      A
 Frequencies --   1344.3194              1377.3895              1401.6985
 Red. masses --      1.2226                 1.3062                 1.3346
 Frc consts  --      1.3018                 1.4600                 1.5449
 IR Inten    --      0.5415                 2.1874                 9.4165

                     34                     35                     36
                      A                      A                      A
 Frequencies --   1415.0119              1427.0567              1457.9331
 Red. masses --      1.2485                 1.5285                 1.0960
 Frc consts  --      1.4728                 1.8340                 1.3726
 IR Inten    --     13.5242                55.3602                 2.7244

                     37                     38                     39
                      A                      A                      A
 Frequencies --   1478.7112              1479.6153              1516.4082
 Red. masses --      1.0397                 1.0399                 1.0990
 Frc consts  --      1.3394                 1.3413                 1.4889
 IR Inten    --      5.1283                 4.9738                 1.1859

                     40                     41                     42
                      A                      A                      A
 Frequencies --   1534.1981              2379.7659              2934.6137
 Red. masses --      1.0960                11.8216                 1.0823
 Frc consts  --      1.5199                39.4452                 5.4916
 IR Inten    --      0.7816                 0.7755                73.0112

                     43                     44                     45
                      A                      A                      A
 Frequencies --   2994.7105              3025.6599              3026.2403
 Red. masses --      1.0712                 1.0475                 1.0438
 Frc consts  --      5.6601                 5.6501                 5.6320
 IR Inten    --     55.7719                71.5512                32.0663

                     46                     47                     48
                      A                      A                      A
 Frequencies --   3033.5701              3063.2292              3075.5642
 Red. masses --      1.0585                 1.1077                 1.1019
 Frc consts  --      5.7391                 6.1242                 6.1408
 IR Inten    --     17.9615                39.4412                10.8655

                     49                     50                     51
                      A                      A                      A
 Frequencies --   3085.5767              3086.7694              3109.9854
 Red. masses --      1.1002                 1.1001                 1.0959
 Frc consts  --      6.1713                 6.1757                 6.2449
 IR Inten    --     12.0011                11.1827                33.2928

 - Thermochemistry -
 -------------------
 Temperature   298.150 Kelvin.  Pressure   1.00000 Atm.
 Atom     1 has atomic number  6 and mass  12.00000

 Molecular mass:   126.06808 amu.
 Principal axes and moments of inertia in atomic units:
                           1         2         3
     Eigenvalues --   374.232632488.801322739.71258
           X            1.00000  -0.00069  -0.00231
           Y            0.00072   0.99986   0.01655
           Z            0.00230  -0.01655   0.99986
 This molecule is an asymmetric top.
 Rotational symmetry number  1.
 Rotational temperatures (Kelvin)      0.23144     0.03480     0.03161
 Rotational constants (GHZ):           4.82251     0.72514     0.65873
 Zero-point vibrational energy     415127.6 (Joules/Mol)
                                   99.21789 (Kcal/Mol)
 Warning -- explicit consideration of  11 degrees of freedom as
           vibrations may cause significant error
 Vibrational temperatures:     19.66    48.35    79.30   112.41   252.45
          (Kelvin)            299.52   375.75   470.91   561.20   607.70
                              747.05  1004.07  1046.40  1124.51  1205.08
                             1259.21  1367.46  1462.73  1477.15  1514.10
                             1517.68  1534.22  1547.83  1655.02  1682.69
                             1686.24  1762.19  1773.03  1792.81  1890.66
                             1934.17  1981.75  2016.73  2035.88  2053.21
                             2097.64  2127.53  2128.83  2181.77  2207.37
                             3423.95  4222.25  4308.72  4353.24  4354.08
                             4364.63  4407.30  4425.05  4439.45  4441.17
                             4474.57

 Zero-point correction=                           0.158114 (Hartree/Particle)
 Thermal correction to Energy=                    0.167987
 Thermal correction to Enthalpy=                  0.168931
 Thermal correction to Gibbs Free Energy=         0.119851
 Sum of electronic and zero-point Energies=           -423.004567
 Sum of electronic and thermal Energies=              -422.994694
 Sum of electronic and thermal Enthalpies=            -422.993750
 Sum of electronic and thermal Free Energies=         -423.042830

                     E (Thermal)             CV                S
                      KCal/Mol        Cal/Mol-Kelvin    Cal/Mol-Kelvin
 Total                  105.413             33.188            103.298
 Electronic               0.000              0.000              0.000
 Translational            0.889              2.981             40.409
 Rotational               0.889              2.981             29.324
 Vibrational            103.636             27.226             33.565
 Vibration     1          0.593              1.986              7.391
 Vibration     2          0.594              1.983              5.604
 Vibration     3          0.596              1.976              4.625
 Vibration     4          0.599              1.964              3.937
 Vibration     5          0.627              1.873              2.376
 Vibration     6          0.641              1.828              2.060
 Vibration     7          0.669              1.744              1.654
 Vibration     8          0.711              1.621              1.273
 Vibration     9          0.758              1.491              1.000
 Vibration    10          0.785              1.422              0.884
 Vibration    11          0.874              1.207              0.612

 Normal termination of Gaussian 09 at Mon Jan 27 15:29:48 2020.
