 Gaussian 09, Revision D.01,
 Gaussian 09:  ES64L-G09RevD.01 24-Apr-2013

 -----------------------------
 # b3lyp 6-31G(2df,p) opt Freq
 -----------------------------

 -----
 titel
 -----
 Symbolic Z-matrix:
 Charge =  0 Multiplicity = 1

 SCF Done:  E(RB3LYP) =  -423.120152390     A.U. after   13 cycles
 Optimization completed.
    -- Stationary point found.
 Normal termination of Gaussian 09 at Tue Jan 28 10:13:53 2020.

 ----------------------------------------------------------------------
 #N Geom=AllCheck Guess=TCheck SCRF=Check GenChk RB3LYP/6-31G(2df,p) Fr
 eq
 ----------------------------------------------------------------------

 Structure from the checkpoint file:  "/scratch/puck/g09_3228ec11-9e26-45a1-ab5e-4a2752764ebc/Gau-20215.chk"
 -----
 titel
 -----
 Charge =  0 Multiplicity = 1

                         Standard orientation:
 ---------------------------------------------------------------------
 Center     Atomic      Atomic             Coordinates (Angstroms)
 Number     Number       Type             X           Y           Z
 ---------------------------------------------------------------------
      1          8           0        2.399785    0.158905    0.344921
      2          6           0        1.677105   -1.015530   -0.053011
      3          6           0        0.227258   -0.647822   -0.068774
      4          6           0       -0.899042   -1.205520   -0.937716
      5          6           0       -1.693496    0.078164   -0.557620
      6          6           0       -1.958180   -0.085957    0.966445
      7          6           0       -0.450801    0.067851    1.150253
      8          6           0       -0.308151    0.752675   -0.188502
      9          8           0        0.257447    1.922977   -0.622846
     10          1           0        3.334201   -0.059720    0.403629
     11          1           0        1.987540   -1.337062   -1.060002
     12          1           0        1.889110   -1.845733    0.639090
     13          1           0       -0.613774   -1.211076   -1.994477
     14          1           0       -1.352886   -2.168786   -0.674049
     15          1           0       -2.453388    0.482640   -1.221931
     16          1           0       -2.498084    0.769358    1.382134
     17          1           0       -2.442330   -1.016992    1.284149
     18          1           0        0.117396    0.238885    2.055287
     19          1           0        1.206209    1.830261   -0.456900
 ---------------------------------------------------------------------

 SCF Done:  E(RB3LYP) =  -423.120152390     A.U. after    1 cycles

 The electronic state is 1-A.
 Alpha  occ. eigenvalues --  -19.15308 -19.13707 -10.23772 -10.22718 -10.18695
 Alpha  occ. eigenvalues --  -10.18420 -10.18055 -10.17587 -10.17514  -1.03331
 Alpha  occ. eigenvalues --   -1.02094  -0.91319  -0.73879  -0.70863  -0.67013
 Alpha  occ. eigenvalues --   -0.60947  -0.54377  -0.52622  -0.52486  -0.48920
 Alpha  occ. eigenvalues --   -0.46725  -0.43957  -0.43437  -0.43245  -0.38833
 Alpha  occ. eigenvalues --   -0.36950  -0.35317  -0.34458  -0.33204  -0.30954
 Alpha  occ. eigenvalues --   -0.30497  -0.28945  -0.24378  -0.20619
 Alpha virt. eigenvalues --    0.05422   0.10868   0.11283   0.12619   0.12977
 Alpha virt. eigenvalues --    0.14047   0.14485   0.15311   0.16599   0.17440
 Alpha virt. eigenvalues --    0.17928   0.18933   0.20507   0.21347   0.22892

 Mulliken charges:
               1
     1  O   -0.429610
     2  C   -0.220580
     3  C    0.258738
     4  C   -0.300656
     5  C   -0.114859
     6  C   -0.230900
     7  C   -0.188022
     8  C    0.390326
     9  O   -0.473324
    10  H    0.294453
    11  H    0.094439
    12  H    0.096374
    13  H    0.097055
    14  H    0.084494
    15  H    0.074393
    16  H    0.102078
    17  H    0.083754
    18  H    0.086747
    19  H    0.295100
 Sum of Mulliken charges =   0.00000

 Dipole moment (field-independent basis, Debye):
    X=              2.0375    Y=             -1.8866    Z=              0.1538  Tot=              2.7810
 Quadrupole moment (field-independent basis, Debye-Ang):
   XX=            -43.5033   YY=            -56.1725   ZZ=            -53.5781
   XY=             -1.0238   XZ=              0.2552   YZ=              1.3109

  Exact polarizability:  85.456  -0.690  71.354  -0.824   1.812  69.047
 Approx polarizability: 113.686  -0.550 110.704  -0.468  -0.395 105.421

                      1                      2                      3
                      A                      A                      A
 Frequencies --     96.1038               166.5437               219.2498
 Red. masses --      4.1475                 4.6840                 1.7776
 Frc consts  --      0.0226                 0.0765                 0.0503
 IR Inten    --      1.5270                 1.2970                38.7085

                      4                      5                      6
                      A                      A                      A
 Frequencies --    257.1735               289.4716               333.9659
 Red. masses --      2.5293                 1.4397                 3.0631
 Frc consts  --      0.0986                 0.0711                 0.2013
 IR Inten    --      7.9792                53.8594                17.5296

                      7                      8                      9
                      A                      A                      A
 Frequencies --    393.6430               415.4079               435.0546
 Red. masses --      4.3311                 1.1244                 1.8982
 Frc consts  --      0.3954                 0.1143                 0.2117
 IR Inten    --      5.0272                79.1484                 3.0503

                     10                     11                     12
                      A                      A                      A
 Frequencies --    540.7483               634.0192               669.5756
 Red. masses --      2.7846                 3.8471                 4.0643
 Frc consts  --      0.4797                 0.9111                 1.0736
 IR Inten    --      4.2404                 7.0217                 5.7528

                     13                     14                     15
                      A                      A                      A
 Frequencies --    700.2336               781.8263               843.5221
 Red. masses --      3.8496                 3.1981                 2.8017
 Frc consts  --      1.1121                 1.1517                 1.1745
 IR Inten    --      2.7901                 4.6185                10.3712

                     16                     17                     18
                      A                      A                      A
 Frequencies --    907.3224               923.5374               941.0780
 Red. masses --      1.5742                 2.1944                 2.0416
 Frc consts  --      0.7636                 1.1028                 1.0653
 IR Inten    --      4.3735                 3.5886                 8.3295

                     19                     20                     21
                      A                      A                      A
 Frequencies --    981.0180               983.5661              1000.9289
 Red. masses --      1.5939                 2.0022                 1.8826
 Frc consts  --      0.9038                 1.1412                 1.1113
 IR Inten    --      1.0443                10.2124                 9.9825

                     22                     23                     24
                      A                      A                      A
 Frequencies --   1024.9637              1041.1426              1075.7089
 Red. masses --      3.4217                 2.1720                 1.8007
 Frc consts  --      2.1179                 1.3872                 1.2277
 IR Inten    --     38.7233                13.9989                 2.0128

                     25                     26                     27
                      A                      A                      A
 Frequencies --   1112.7325              1115.1779              1153.9141
 Red. masses --      1.5124                 1.4873                 2.2893
 Frc consts  --      1.1033                 1.0898                 1.7960
 IR Inten    --     10.9786                14.6306                10.9805

                     28                     29                     30
                      A                      A                      A
 Frequencies --   1170.4599              1206.2231              1229.8790
 Red. masses --      1.4774                 1.6143                 1.3374
 Frc consts  --      1.1925                 1.3838                 1.1919
 IR Inten    --     13.1083                 2.6980                29.4033

                     31                     32                     33
                      A                      A                      A
 Frequencies --   1233.7266              1253.0490              1269.0148
 Red. masses --      1.5694                 1.2575                 1.5384
 Frc consts  --      1.4074                 1.1633                 1.4597
 IR Inten    --     11.2933                 2.3999                11.8330

                     34                     35                     36
                      A                      A                      A
 Frequencies --   1275.9113              1320.0768              1395.1295
 Red. masses --      1.5375                 2.2095                 1.5908
 Frc consts  --      1.4747                 2.2685                 1.8242
 IR Inten    --     38.4297                84.1873                20.2071

                     37                     38                     39
                      A                      A                      A
 Frequencies --   1462.8226              1474.6131              1490.2776
 Red. masses --      1.8874                 2.2447                 1.1802
 Frc consts  --      2.3796                 2.8758                 1.5443
 IR Inten    --     50.6779                57.3699                 4.0921

                     40                     41                     42
                      A                      A                      A
 Frequencies --   1514.5114              1524.0052              2965.3993
 Red. masses --      1.4157                 1.0910                 1.0544
 Frc consts  --      1.9133                 1.4929                 5.4629
 IR Inten    --     21.4333                 0.7997                78.5006

                     43                     44                     45
                      A                      A                      A
 Frequencies --   2992.4458              3019.6677              3031.1650
 Red. masses --      1.1072                 1.0605                 1.0602
 Frc consts  --      5.8416                 5.6974                 5.7393
 IR Inten    --     52.3100                48.0938                80.6870

                     46                     47                     48
                      A                      A                      A
 Frequencies --   3083.6789              3094.4423              3145.1323
 Red. masses --      1.1034                 1.1036                 1.0916
 Frc consts  --      6.1818                 6.2265                 6.3620
 IR Inten    --     31.3694                28.4114                34.6028

                     49                     50                     51
                      A                      A                      A
 Frequencies --   3203.1313              3752.5366              3835.7315
 Red. masses --      1.0928                 1.0648                 1.0665
 Frc consts  --      6.6060                 8.8341                 9.2453
 IR Inten    --     10.4705                86.1176                26.7303

 - Thermochemistry -
 -------------------
 Temperature   298.150 Kelvin.  Pressure   1.00000 Atm.
 Atom     1 has atomic number  8 and mass  15.99491

 Molecular mass:   126.06808 amu.
 Principal axes and moments of inertia in atomic units:
                           1         2         3
     Eigenvalues --   656.176051170.153711358.09073
           X            0.99995  -0.00653  -0.00692
           Y            0.00690   0.99847   0.05479
           Z            0.00655  -0.05484   0.99847
 This molecule is an asymmetric top.
 Rotational symmetry number  1.
 Warning -- assumption of classical behavior for rotation
           may cause significant error
 Rotational temperatures (Kelvin)      0.13200     0.07402     0.06378
 Rotational constants (GHZ):           2.75039     1.54231     1.32888
 Zero-point vibrational energy     418577.3 (Joules/Mol)
                                  100.04237 (Kcal/Mol)
 Warning -- explicit consideration of  10 degrees of freedom as
           vibrations may cause significant error
 Vibrational temperatures:    138.27   239.62   315.45   370.01   416.48
          (Kelvin)            480.50   566.36   597.68   625.95   778.02
                              912.21   963.37  1007.48  1124.87  1213.64
                             1305.43  1328.76  1354.00  1411.46  1415.13
                             1440.11  1474.69  1497.97  1547.70  1600.97
                             1604.49  1660.22  1684.03  1735.48  1769.52
                             1775.06  1802.86  1825.83  1835.75  1899.29
                             2007.28  2104.67  2121.64  2144.17  2179.04
                             2192.70  4266.54  4305.46  4344.62  4361.16
                             4436.72  4452.21  4525.14  4608.59  5399.06
                             5518.76

 Zero-point correction=                           0.159428 (Hartree/Particle)
 Thermal correction to Energy=                    0.167621
 Thermal correction to Enthalpy=                  0.168566
 Thermal correction to Gibbs Free Energy=         0.127044
 Sum of electronic and zero-point Energies=           -422.960725
 Sum of electronic and thermal Energies=              -422.952531
 Sum of electronic and thermal Enthalpies=            -422.951587
 Sum of electronic and thermal Free Energies=         -422.993109

                     E (Thermal)             CV                S
                      KCal/Mol        Cal/Mol-Kelvin    Cal/Mol-Kelvin
 Total                  105.184             32.336             87.390
 Electronic               0.000              0.000              0.000
 Translational            0.889              2.981             40.409
 Rotational               0.889              2.981             28.435
 Vibrational            103.407             26.374             18.546
 Vibration     1          0.603              1.952              3.532
 Vibration     2          0.624              1.884              2.474
 Vibration     3          0.647              1.812              1.965
 Vibration     4          0.667              1.751              1.681
 Vibration     5          0.686              1.693              1.477
 Vibration     6          0.715              1.608              1.241
 Vibration     7          0.761              1.484              0.986
 Vibration     8          0.779              1.437              0.908
 Vibration     9          0.796              1.394              0.842
 Vibration    10          0.896              1.160              0.564

 Optimization completed.
    -- Stationary point found.
 Normal termination of Gaussian 09 at Tue Jan 28 10:58:04 2020.
