 Gaussian 09, Revision D.01,
 Gaussian 09:  ES64L-G09RevD.01 24-Apr-2013

 -----------------------------
 # b3lyp 6-31G(2df,p) opt Freq
 -----------------------------

 -----
 titel
 -----
 Symbolic Z-matrix:
 Charge =  0 Multiplicity = 1

 SCF Done:  E(RB3LYP) =  -423.122867543     A.U. after   14 cycles
 Optimization completed.
    -- Stationary point found.
 Normal termination of Gaussian 09 at Tue Jan 28 08:11:26 2020.

 ----------------------------------------------------------------------
 #N Geom=AllCheck Guess=TCheck SCRF=Check GenChk RB3LYP/6-31G(2df,p) Fr
 eq
 ----------------------------------------------------------------------

 Structure from the checkpoint file:  "/scratch/puck/g09_59b70f21-daff-4fc2-bf06-43ed036540ef/Gau-8199.chk"
 -----
 titel
 -----
 Charge =  0 Multiplicity = 1

                         Standard orientation:
 ---------------------------------------------------------------------
 Center     Atomic      Atomic             Coordinates (Angstroms)
 Number     Number       Type             X           Y           Z
 ---------------------------------------------------------------------
      1          6           0        2.489215   -0.975826    0.166032
      2          6           0        1.301836   -0.218807   -0.438292
      3          6           0        1.188456    1.189938    0.160118
      4          8           0       -0.076706    1.792306   -0.091166
      5          6           0       -1.142916    0.907757    0.077163
      6          6           0       -1.292911   -0.323031   -0.864056
      7          8           0       -2.133142   -0.950710    0.173717
      8          6           0       -0.981946   -0.406172    0.910980
      9          6           0       -0.030851   -0.936434   -0.208156
     10          1           0        2.602576   -1.960333   -0.298015
     11          1           0        3.426534   -0.428044    0.021455
     12          1           0        2.353254   -1.127427    1.242935
     13          1           0        1.457849   -0.133418   -1.522617
     14          1           0        1.347151    1.124355    1.249342
     15          1           0        1.941948    1.869314   -0.247156
     16          1           0       -2.060357    1.470342    0.252995
     17          1           0       -1.631400   -0.379334   -1.899305
     18          1           0       -0.961648   -0.566120    1.989494
     19          1           0        0.017580   -2.026655   -0.272268
 ---------------------------------------------------------------------

 SCF Done:  E(RB3LYP) =  -423.122867543     A.U. after    1 cycles

 The electronic state is 1-A.
 Alpha  occ. eigenvalues --  -19.14754 -19.13607 -10.24537 -10.24025 -10.24006
 Alpha  occ. eigenvalues --  -10.23291 -10.19877 -10.19757 -10.18550  -1.06852
 Alpha  occ. eigenvalues --   -1.03406  -0.81674  -0.77143  -0.69867  -0.65673
 Alpha  occ. eigenvalues --   -0.64537  -0.60881  -0.52607  -0.52022  -0.49845
 Alpha  occ. eigenvalues --   -0.48084  -0.43710  -0.42667  -0.40627  -0.39828
 Alpha  occ. eigenvalues --   -0.38432  -0.37940  -0.36915  -0.35038  -0.33447
 Alpha  occ. eigenvalues --   -0.31259  -0.30154  -0.25425  -0.23489
 Alpha virt. eigenvalues --    0.06924   0.09249   0.11289   0.11933   0.12262
 Alpha virt. eigenvalues --    0.12568   0.14536   0.14949   0.15161   0.15978
 Alpha virt. eigenvalues --    0.16571   0.17587   0.19098   0.19323   0.21149

 Mulliken charges:
               1
     1  C   -0.405390
     2  C   -0.039263
     3  C   -0.074345
     4  O   -0.271489
     5  C    0.123949
     6  C   -0.001302
     7  O   -0.308357
     8  C   -0.019665
     9  C   -0.006529
    10  H    0.121175
    11  H    0.117524
    12  H    0.119461
    13  H    0.083746
    14  H    0.092401
    15  H    0.111700
    16  H    0.098193
    17  H    0.089924
    18  H    0.092172
    19  H    0.076095
 Sum of Mulliken charges =   0.00000

 Dipole moment (field-independent basis, Debye):
    X=              2.1761    Y=             -0.3125    Z=             -0.0717  Tot=              2.1996
 Quadrupole moment (field-independent basis, Debye-Ang):
   XX=            -55.6039   YY=            -57.3416   ZZ=            -50.2272
   XY=             -2.4293   XZ=              0.6658   YZ=              0.7630

  Exact polarizability:  83.436  -0.640  70.592   0.685   0.405  68.079
 Approx polarizability: 113.396   2.590 106.283   0.351  -1.098 108.737

                      1                      2                      3
                      A                      A                      A
 Frequencies --    140.7235               202.7753               233.6778
 Red. masses --      2.6305                 1.4625                 1.5139
 Frc consts  --      0.0307                 0.0354                 0.0487
 IR Inten    --      0.2260                 0.4925                 0.7415

                      4                      5                      6
                      A                      A                      A
 Frequencies --    284.5079               371.8533               443.8908
 Red. masses --      2.6507                 3.8750                 5.0250
 Frc consts  --      0.1264                 0.3157                 0.5834
 IR Inten    --      0.3626                 3.7064                 2.8404

                      7                      8                      9
                      A                      A                      A
 Frequencies --    471.5163               492.2248               572.8714
 Red. masses --      3.3902                 5.1959                 4.0971
 Frc consts  --      0.4441                 0.7417                 0.7922
 IR Inten    --      4.3959                 3.0273                 1.4144

                     10                     11                     12
                      A                      A                      A
 Frequencies --    658.4474               758.4694               849.7831
 Red. masses --      4.3062                 3.8193                 2.7510
 Frc consts  --      1.1000                 1.2945                 1.1705
 IR Inten    --      3.5804                14.6221                 4.5621

                     13                     14                     15
                      A                      A                      A
 Frequencies --    870.1690               886.0379               899.1258
 Red. masses --      2.4779                 2.8179                 2.6856
 Frc consts  --      1.1054                 1.3034                 1.2792
 IR Inten    --      4.7790                 6.7174                17.6296

                     16                     17                     18
                      A                      A                      A
 Frequencies --    903.7042               937.5699               970.9527
 Red. masses --      1.7733                 1.9691                 2.3277
 Frc consts  --      0.8533                 1.0198                 1.2929
 IR Inten    --      2.6260                 0.8407                13.1588

                     19                     20                     21
                      A                      A                      A
 Frequencies --    999.1975              1019.3614              1026.4715
 Red. masses --      1.7612                 1.9672                 1.8777
 Frc consts  --      1.0360                 1.2044                 1.1657
 IR Inten    --      8.7586                 4.1862                12.2623

                     22                     23                     24
                      A                      A                      A
 Frequencies --   1094.1796              1122.5194              1133.2806
 Red. masses --      2.7733                 1.5974                 4.9804
 Frc consts  --      1.9562                 1.1859                 3.7687
 IR Inten    --      6.2425                 1.6589                59.6938

                     25                     26                     27
                      A                      A                      A
 Frequencies --   1149.8016              1160.1098              1175.9362
 Red. masses --      1.4988                 2.7466                 2.0745
 Frc consts  --      1.1675                 2.1779                 1.6902
 IR Inten    --     10.3343                69.7830                29.9370

                     28                     29                     30
                      A                      A                      A
 Frequencies --   1189.9725              1221.1102              1250.9825
 Red. masses --      1.4046                 1.6643                 1.5782
 Frc consts  --      1.1718                 1.4622                 1.4551
 IR Inten    --      1.7976                 7.9055                 3.4288

                     31                     32                     33
                      A                      A                      A
 Frequencies --   1265.0644              1279.1680              1321.2388
 Red. masses --      1.4210                 1.5518                 1.3129
 Frc consts  --      1.3399                 1.4960                 1.3504
 IR Inten    --      2.7363                29.5177                 4.6267

                     34                     35                     36
                      A                      A                      A
 Frequencies --   1335.4943              1358.7831              1391.1837
 Red. masses --      1.3401                 1.4316                 1.6353
 Frc consts  --      1.4082                 1.5573                 1.8648
 IR Inten    --      0.3973                 3.1655                23.0692

                     37                     38                     39
                      A                      A                      A
 Frequencies --   1408.4302              1424.5931              1496.4207
 Red. masses --      1.2888                 1.3615                 1.0540
 Frc consts  --      1.5063                 1.6280                 1.3906
 IR Inten    --      2.1546                 5.6746                 3.6039

                     40                     41                     42
                      A                      A                      A
 Frequencies --   1497.8990              1506.9953              2967.3597
 Red. masses --      1.0529                 1.0854                 1.0711
 Frc consts  --      1.3918                 1.4524                 5.5568
 IR Inten    --      3.9589                 3.9711                37.5244

                     43                     44                     45
                      A                      A                      A
 Frequencies --   3010.5198              3029.1525              3082.3193
 Red. masses --      1.0823                 1.0356                 1.0858
 Frc consts  --      5.7796                 5.5986                 6.0780
 IR Inten    --     25.2521                26.2051                26.2258

                     46                     47                     48
                      A                      A                      A
 Frequencies --   3090.0614              3096.8120              3104.8530
 Red. masses --      1.0939                 1.0998                 1.1012
 Frc consts  --      6.1539                 6.2142                 6.2545
 IR Inten    --     12.0213                47.5689                23.0568

                     49                     50                     51
                      A                      A                      A
 Frequencies --   3110.2538              3112.6209              3126.8636
 Red. masses --      1.0898                 1.0898                 1.0954
 Frc consts  --      6.2112                 6.2209                 6.3102
 IR Inten    --     78.6812                22.0954                26.4842

 - Thermochemistry -
 -------------------
 Temperature   298.150 Kelvin.  Pressure   1.00000 Atm.
 Atom     1 has atomic number  6 and mass  12.00000

 Molecular mass:   126.06808 amu.
 Principal axes and moments of inertia in atomic units:
                           1         2         3
     Eigenvalues --   612.514781099.555161451.90256
           X            0.99891  -0.04604   0.00781
           Y            0.04598   0.99891   0.00780
           Z           -0.00816  -0.00743   0.99994
 This molecule is an asymmetric top.
 Rotational symmetry number  1.
 Warning -- assumption of classical behavior for rotation
           may cause significant error
 Rotational temperatures (Kelvin)      0.14141     0.07877     0.05966
 Rotational constants (GHZ):           2.94645     1.64134     1.24302
 Zero-point vibrational energy     421727.4 (Joules/Mol)
                                  100.79526 (Kcal/Mol)
 Warning -- explicit consideration of   9 degrees of freedom as
           vibrations may cause significant error
 Vibrational temperatures:    202.47   291.75   336.21   409.34   535.01
          (Kelvin)            638.66   678.41   708.20   824.23   947.36
                             1091.27  1222.65  1251.98  1274.81  1293.64
                             1300.23  1348.95  1396.98  1437.62  1466.63
                             1476.86  1574.28  1615.05  1630.54  1654.31
                             1669.14  1691.91  1712.10  1756.90  1799.88
                             1820.14  1840.44  1900.97  1921.48  1954.98
                             2001.60  2026.41  2049.67  2153.01  2155.14
                             2168.23  4269.36  4331.46  4358.27  4434.76
                             4445.90  4455.62  4467.19  4474.96  4478.36
                             4498.85

 Zero-point correction=                           0.160627 (Hartree/Particle)
 Thermal correction to Energy=                    0.167854
 Thermal correction to Enthalpy=                  0.168798
 Thermal correction to Gibbs Free Energy=         0.129203
 Sum of electronic and zero-point Energies=           -422.962240
 Sum of electronic and thermal Energies=              -422.955014
 Sum of electronic and thermal Enthalpies=            -422.954070
 Sum of electronic and thermal Free Energies=         -422.993665

                     E (Thermal)             CV                S
                      KCal/Mol        Cal/Mol-Kelvin    Cal/Mol-Kelvin
 Total                  105.330             29.304             83.335
 Electronic               0.000              0.000              0.000
 Translational            0.889              2.981             40.409
 Rotational               0.889              2.981             28.371
 Vibrational            103.552             23.342             14.555
 Vibration     1          0.615              1.913              2.794
 Vibration     2          0.639              1.836              2.108
 Vibration     3          0.654              1.789              1.851
 Vibration     4          0.683              1.702              1.506
 Vibration     5          0.744              1.530              1.072
 Vibration     6          0.803              1.374              0.814
 Vibration     7          0.828              1.313              0.733
 Vibration     8          0.848              1.267              0.678
 Vibration     9          0.929              1.090              0.499

 Normal termination of Gaussian 09 at Tue Jan 28 09:02:19 2020.
