 Gaussian 09, Revision D.01,
 Gaussian 09:  ES64L-G09RevD.01 24-Apr-2013

 -----------------------------
 # b3lyp 6-31G(2df,p) opt Freq
 -----------------------------

 -----
 titel
 -----
 Symbolic Z-matrix:
 Charge =  0 Multiplicity = 1

 SCF Done:  E(RB3LYP) =  -423.196032509     A.U. after   14 cycles
 Optimization completed.
    -- Stationary point found.
 Normal termination of Gaussian 09 at Tue Jan 28 01:57:45 2020.

 ----------------------------------------------------------------------
 #N Geom=AllCheck Guess=TCheck SCRF=Check GenChk RB3LYP/6-31G(2df,p) Fr
 eq
 ----------------------------------------------------------------------

 Structure from the checkpoint file:  "/scratch/puck/g09_6628f3b0-5fec-4594-a9fa-716d7b28293a/Gau-169913.chk"
 -----
 titel
 -----
 Charge =  0 Multiplicity = 1

                         Standard orientation:
 ---------------------------------------------------------------------
 Center     Atomic      Atomic             Coordinates (Angstroms)
 Number     Number       Type             X           Y           Z
 ---------------------------------------------------------------------
      1          6           0       -2.365728   -1.027533   -0.758580
      2          6           0       -1.650480    0.298865   -0.637650
      3          6           0       -1.738075    1.097318    0.656811
      4          6           0       -0.450473    0.455902    0.271347
      5          6           0        0.814408    1.175597   -0.147040
      6          6           0        1.832885    0.032504   -0.189730
      7          8           0        2.932285    0.043030   -0.672579
      8          6           0        1.158800   -1.157203    0.504483
      9          8           0       -0.046832   -0.657640    1.055264
     10          1           0       -1.963031   -1.621043   -1.586910
     11          1           0       -2.248619   -1.611151    0.158019
     12          1           0       -3.436093   -0.884934   -0.941304
     13          1           0       -1.619920    0.892108   -1.549226
     14          1           0       -1.815881    2.178492    0.611289
     15          1           0       -2.274071    0.637725    1.481231
     16          1           0        0.759623    1.692357   -1.106875
     17          1           0        1.141735    1.897940    0.612301
     18          1           0        0.981014   -1.949365   -0.240475
     19          1           0        1.783602   -1.567941    1.302624
 ---------------------------------------------------------------------

 SCF Done:  E(RB3LYP) =  -423.196032510     A.U. after    1 cycles

 The electronic state is 1-A.
 Alpha  occ. eigenvalues --  -19.15530 -19.14012 -10.27805 -10.24723 -10.23975
 Alpha  occ. eigenvalues --  -10.19977 -10.19560 -10.18838 -10.17932  -1.06177
 Alpha  occ. eigenvalues --   -1.04467  -0.86359  -0.77138  -0.72483  -0.69682
 Alpha  occ. eigenvalues --   -0.59114  -0.57823  -0.53973  -0.50582  -0.49006
 Alpha  occ. eigenvalues --   -0.47055  -0.45745  -0.42879  -0.42014  -0.41217
 Alpha  occ. eigenvalues --   -0.40400  -0.39133  -0.37750  -0.36261  -0.34563
 Alpha  occ. eigenvalues --   -0.32294  -0.29619  -0.24888  -0.24169
 Alpha virt. eigenvalues --   -0.02424   0.07506   0.10373   0.11697   0.12094
 Alpha virt. eigenvalues --    0.12668   0.14117   0.14453   0.17174   0.17278
 Alpha virt. eigenvalues --    0.17428   0.17779   0.18941   0.19960   0.22969

 Mulliken charges:
               1
     1  C   -0.408296
     2  C   -0.064343
     3  C   -0.369433
     4  C    0.427324
     5  C   -0.415337
     6  C    0.372117
     7  O   -0.296265
     8  C   -0.191865
     9  O   -0.285910
    10  H    0.114978
    11  H    0.132934
    12  H    0.118529
    13  H    0.084555
    14  H    0.115078
    15  H    0.125576
    16  H    0.137079
    17  H    0.139676
    18  H    0.124636
    19  H    0.138966
 Sum of Mulliken charges =   0.00000

 Dipole moment (field-independent basis, Debye):
    X=             -1.8732    Y=              0.4744    Z=              0.0258  Tot=              1.9325
 Quadrupole moment (field-independent basis, Debye-Ang):
   XX=            -61.7101   YY=            -50.0006   ZZ=            -53.7585
   XY=             -1.2333   XZ=              4.0748   YZ=              0.3685

  Exact polarizability:  87.916  -2.165  74.922  -0.771   0.942  64.997
 Approx polarizability: 118.256  -3.824 105.749  -5.179   0.443 102.105

                      1                      2                      3
                      A                      A                      A
 Frequencies --     65.6256               126.7482               182.3726
 Red. masses --      4.8439                 2.5672                 1.6614
 Frc consts  --      0.0123                 0.0243                 0.0326
 IR Inten    --      2.6576                 3.8584                 0.3965

                      4                      5                      6
                      A                      A                      A
 Frequencies --    203.2615               233.2183               323.7233
 Red. masses --      1.2997                 3.3570                 2.9566
 Frc consts  --      0.0316                 0.1076                 0.1826
 IR Inten    --      1.0260                 7.3888                 1.9817

                      7                      8                      9
                      A                      A                      A
 Frequencies --    404.4259               458.3481               470.2792
 Red. masses --      2.1315                 2.5383                 3.3974
 Frc consts  --      0.2054                 0.3142                 0.4427
 IR Inten    --      1.1004                 5.1204                 8.0901

                     10                     11                     12
                      A                      A                      A
 Frequencies --    509.8445               545.1695               633.0616
 Red. masses --      4.0674                 3.2573                 4.8006
 Frc consts  --      0.6229                 0.5704                 1.1335
 IR Inten    --      1.4714                 0.9563                 0.9383

                     13                     14                     15
                      A                      A                      A
 Frequencies --    739.7969               774.9469               803.1883
 Red. masses --      2.8100                 2.7364                 2.4307
 Frc consts  --      0.9061                 0.9682                 0.9239
 IR Inten    --      3.6644                11.8948                 8.6028

                     16                     17                     18
                      A                      A                      A
 Frequencies --    849.6243               878.6528               898.6333
 Red. masses --      2.0179                 1.4440                 1.5668
 Frc consts  --      0.8582                 0.6568                 0.7454
 IR Inten    --      2.5679                 6.5280                 5.7729

                     19                     20                     21
                      A                      A                      A
 Frequencies --    925.1003               993.0813              1053.4208
 Red. masses --      2.1744                 1.3434                 1.4079
 Frc consts  --      1.0964                 0.7806                 0.9205
 IR Inten    --      2.9979                 7.1802                 6.4358

                     22                     23                     24
                      A                      A                      A
 Frequencies --   1064.2707              1086.9789              1099.5099
 Red. masses --      2.2714                 3.2913                 4.3408
 Frc consts  --      1.5158                 2.2912                 3.0918
 IR Inten    --     11.1523                64.8891                14.8024

                     25                     26                     27
                      A                      A                      A
 Frequencies --   1128.8796              1134.4042              1176.4734
 Red. masses --      2.4312                 1.7663                 1.5622
 Frc consts  --      1.8255                 1.3392                 1.2740
 IR Inten    --     28.7377                 2.9458                14.5779

                     28                     29                     30
                      A                      A                      A
 Frequencies --   1184.0690              1212.8555              1238.3959
 Red. masses --      1.6998                 1.2291                 1.3877
 Frc consts  --      1.4042                 1.0652                 1.2539
 IR Inten    --      2.8887                 5.7092                 3.6697

                     31                     32                     33
                      A                      A                      A
 Frequencies --   1247.0109              1320.0913              1342.2845
 Red. masses --      2.7424                 1.6605                 1.5149
 Frc consts  --      2.5126                 1.7049                 1.6081
 IR Inten    --     61.0424                24.2642                 3.4227

                     34                     35                     36
                      A                      A                      A
 Frequencies --   1404.1895              1424.1191              1447.3110
 Red. masses --      1.2861                 1.5263                 1.1135
 Frc consts  --      1.4941                 1.8239                 1.3742
 IR Inten    --      3.3707                 4.6002                 8.5193

                     37                     38                     39
                      A                      A                      A
 Frequencies --   1474.6996              1489.7340              1497.3703
 Red. masses --      1.1020                 1.3520                 1.1118
 Frc consts  --      1.4120                 1.7679                 1.4687
 IR Inten    --     10.1875                12.4585                 0.5351

                     40                     41                     42
                      A                      A                      A
 Frequencies --   1506.4475              1864.2077              2983.8935
 Red. masses --      1.2206                12.7931                 1.0691
 Frc consts  --      1.6320                26.1947                 5.6084
 IR Inten    --     10.2052               222.8471                30.0637

                     43                     44                     45
                      A                      A                      A
 Frequencies --   3031.9541              3032.9266              3090.0102
 Red. masses --      1.0654                 1.0389                 1.1007
 Frc consts  --      5.7704                 5.6304                 6.1923
 IR Inten    --     24.0633                22.7089                28.8170

                     46                     47                     48
                      A                      A                      A
 Frequencies --   3092.6396              3114.8767              3118.2032
 Red. masses --      1.0924                 1.0932                 1.0946
 Frc consts  --      6.1556                 6.2492                 6.2706
 IR Inten    --     11.9442                 1.9946                 2.4528

                     49                     50                     51
                      A                      A                      A
 Frequencies --   3127.6451              3132.1516              3215.9559
 Red. masses --      1.0553                 1.0928                 1.1166
 Frc consts  --      6.0825                 6.3165                 6.8038
 IR Inten    --      9.1118                27.0333                 5.8297

 - Thermochemistry -
 -------------------
 Temperature   298.150 Kelvin.  Pressure   1.00000 Atm.
 Atom     1 has atomic number  6 and mass  12.00000

 Molecular mass:   126.06808 amu.
 Principal axes and moments of inertia in atomic units:
                           1         2         3
     Eigenvalues --   548.218501558.487751690.53019
           X            0.99981   0.00515   0.01900
           Y           -0.00606   0.99882   0.04816
           Z           -0.01873  -0.04826   0.99866
 This molecule is an asymmetric top.
 Rotational symmetry number  1.
 Warning -- assumption of classical behavior for rotation
           may cause significant error
 Rotational temperatures (Kelvin)      0.15799     0.05558     0.05123
 Rotational constants (GHZ):           3.29201     1.15801     1.06756
 Zero-point vibrational energy     414841.5 (Joules/Mol)
                                   99.14950 (Kcal/Mol)
 Warning -- explicit consideration of  11 degrees of freedom as
           vibrations may cause significant error
 Vibrational temperatures:     94.42   182.36   262.39   292.45   335.55
          (Kelvin)            465.76   581.88   659.46   676.63   733.55
                              784.38   910.83  1064.40  1114.97  1155.61
                             1222.42  1264.18  1292.93  1331.01  1428.82
                             1515.64  1531.25  1563.92  1581.95  1624.20
                             1632.15  1692.68  1703.61  1745.03  1781.77
                             1794.17  1899.31  1931.25  2020.31  2048.99
                             2082.36  2121.76  2143.39  2154.38  2167.44
                             2682.18  4293.15  4362.30  4363.70  4445.83
                             4449.61  4481.61  4486.39  4499.98  4506.46
                             4627.04

 Zero-point correction=                           0.158005 (Hartree/Particle)
 Thermal correction to Energy=                    0.166554
 Thermal correction to Enthalpy=                  0.167498
 Thermal correction to Gibbs Free Energy=         0.124666
 Sum of electronic and zero-point Energies=           -423.038028
 Sum of electronic and thermal Energies=              -423.029479
 Sum of electronic and thermal Enthalpies=            -423.028534
 Sum of electronic and thermal Free Energies=         -423.071366

                     E (Thermal)             CV                S
                      KCal/Mol        Cal/Mol-Kelvin    Cal/Mol-Kelvin
 Total                  104.514             32.578             90.147
 Electronic               0.000              0.000              0.000
 Translational            0.889              2.981             40.409
 Rotational               0.889              2.981             28.759
 Vibrational            102.737             26.616             20.979
 Vibration     1          0.597              1.971              4.280
 Vibration     2          0.611              1.926              2.995
 Vibration     3          0.630              1.864              2.304
 Vibration     4          0.639              1.835              2.103
 Vibration     5          0.654              1.790              1.854
 Vibration     6          0.708              1.628              1.291
 Vibration     7          0.770              1.461              0.947
 Vibration     8          0.816              1.342              0.771
 Vibration     9          0.827              1.316              0.737
 Vibration    10          0.865              1.228              0.634
 Vibration    11          0.900              1.150              0.554

 Optimization completed.
    -- Stationary point found.
 Normal termination of Gaussian 09 at Tue Jan 28 02:32:01 2020.
