 Gaussian 09, Revision D.01,
 Gaussian 09:  ES64L-G09RevD.01 24-Apr-2013

 -----------------------------
 # b3lyp 6-31G(2df,p) opt Freq
 -----------------------------

 -----
 titel
 -----
 Symbolic Z-matrix:
 Charge =  0 Multiplicity = 1

 SCF Done:  E(RB3LYP) =  -423.206919679     A.U. after   14 cycles
 Optimization completed.
    -- Stationary point found.
 Normal termination of Gaussian 09 at Tue Jan 28 08:10:41 2020.

 ----------------------------------------------------------------------
 #N Geom=AllCheck Guess=TCheck SCRF=Check GenChk RB3LYP/6-31G(2df,p) Fr
 eq
 ----------------------------------------------------------------------

 Structure from the checkpoint file:  "/scratch/puck/g09_7942e7b3-b424-44a8-a50d-2c4338232b75/Gau-126967.chk"
 -----
 titel
 -----
 Charge =  0 Multiplicity = 1

                         Standard orientation:
 ---------------------------------------------------------------------
 Center     Atomic      Atomic             Coordinates (Angstroms)
 Number     Number       Type             X           Y           Z
 ---------------------------------------------------------------------
      1          6           0        2.318278   -1.081789    0.232094
      2          6           0        0.960517   -0.598215   -0.294679
      3          6           0       -0.190618   -1.428056    0.279661
      4          8           0       -1.389529   -1.255204   -0.456540
      5          6           0       -2.261331   -0.278696    0.040971
      6          6           0       -1.731734    1.115752    0.176025
      7          6           0       -0.484491    1.594971    0.094192
      8          6           0        0.822335    0.919938   -0.113225
      9          8           0        1.818008    1.621523   -0.138020
     10          1           0        2.355718   -1.033501    1.326214
     11          1           0        2.501890   -2.117511   -0.068133
     12          1           0        3.117963   -0.449580   -0.153687
     13          1           0        0.928912   -0.757454   -1.382803
     14          1           0        0.067205   -2.489501    0.198938
     15          1           0       -0.347605   -1.208469    1.346837
     16          1           0       -3.117594   -0.261321   -0.645572
     17          1           0       -2.670297   -0.577011    1.026468
     18          1           0       -2.521210    1.835949    0.392986
     19          1           0       -0.340567    2.664409    0.224998
 ---------------------------------------------------------------------

 SCF Done:  E(RB3LYP) =  -423.206919679     A.U. after    1 cycles

 The electronic state is 1-A.
 Alpha  occ. eigenvalues --  -19.15137 -19.12300 -10.26554 -10.24994 -10.23688
 Alpha  occ. eigenvalues --  -10.21445 -10.19553 -10.19507 -10.17589  -1.04839
 Alpha  occ. eigenvalues --   -1.03279  -0.80638  -0.80245  -0.72224  -0.66362
 Alpha  occ. eigenvalues --   -0.64591  -0.58412  -0.52512  -0.51201  -0.48873
 Alpha  occ. eigenvalues --   -0.47672  -0.44853  -0.43735  -0.42163  -0.40583
 Alpha  occ. eigenvalues --   -0.39729  -0.38252  -0.36591  -0.35498  -0.34117
 Alpha  occ. eigenvalues --   -0.32765  -0.27472  -0.26419  -0.24294
 Alpha virt. eigenvalues --   -0.05354   0.06181   0.07945   0.10726   0.11607
 Alpha virt. eigenvalues --    0.12947   0.13652   0.14890   0.15298   0.16367
 Alpha virt. eigenvalues --    0.17846   0.18821   0.19057   0.21432   0.23309

 Mulliken charges:
               1
     1  C   -0.400391
     2  C   -0.102864
     3  C   -0.109289
     4  O   -0.238265
     5  C   -0.141585
     6  C   -0.052928
     7  C   -0.141814
     8  C    0.357636
     9  O   -0.331063
    10  H    0.117225
    11  H    0.110443
    12  H    0.147102
    13  H    0.117267
    14  H    0.112567
    15  H    0.097362
    16  H    0.130205
    17  H    0.109002
    18  H    0.110675
    19  H    0.108715
 Sum of Mulliken charges =   0.00000

 Dipole moment (field-independent basis, Debye):
    X=             -2.4390    Y=             -1.0817    Z=              0.9256  Tot=              2.8241
 Quadrupole moment (field-independent basis, Debye-Ang):
   XX=            -53.2470   YY=            -55.6651   ZZ=            -53.1851
   XY=             -7.6119   XZ=             -1.3959   YZ=             -0.5319

  Exact polarizability: 104.364   0.811  79.794  -2.701   0.272  55.165
 Approx polarizability: 160.152  15.934 113.718  -4.950   1.419  88.447

                      1                      2                      3
                      A                      A                      A
 Frequencies --     32.7727               123.6517               189.8410
 Red. masses --      4.6706                 2.3475                 1.1019
 Frc consts  --      0.0030                 0.0211                 0.0234
 IR Inten    --      3.9383                 0.6035                 0.1103

                      4                      5                      6
                      A                      A                      A
 Frequencies --    252.4953               285.4174               301.9228
 Red. masses --      5.0904                 2.8507                 2.5220
 Frc consts  --      0.1912                 0.1368                 0.1355
 IR Inten    --      3.2086                 0.8537                 3.1447

                      7                      8                      9
                      A                      A                      A
 Frequencies --    370.0117               379.2955               414.2372
 Red. masses --      3.9393                 2.2030                 5.0178
 Frc consts  --      0.3178                 0.1867                 0.5073
 IR Inten    --      4.6495                 3.8632                 1.8020

                     10                     11                     12
                      A                      A                      A
 Frequencies --    506.3684               576.2878               633.7594
 Red. masses --      4.3664                 3.9059                 2.1434
 Frc consts  --      0.6596                 0.7643                 0.5072
 IR Inten    --      7.2087                10.1462                 6.5766

                     13                     14                     15
                      A                      A                      A
 Frequencies --    692.9699               788.8931               824.9989
 Red. masses --      2.4993                 4.0504                 2.1496
 Frc consts  --      0.7071                 1.4852                 0.8620
 IR Inten    --      1.3587                 5.8887                11.5082

                     16                     17                     18
                      A                      A                      A
 Frequencies --    889.2032               904.6478               947.1523
 Red. masses --      2.8826                 1.8897                 1.5680
 Frc consts  --      1.3429                 0.9112                 0.8288
 IR Inten    --      8.8414                 2.1297                 3.9906

                     19                     20                     21
                      A                      A                      A
 Frequencies --    993.9437              1023.1447              1049.3215
 Red. masses --      2.5274                 1.4805                 1.5274
 Frc consts  --      1.4711                 0.9132                 0.9909
 IR Inten    --      9.9572                16.1997                 2.6684

                     22                     23                     24
                      A                      A                      A
 Frequencies --   1065.0846              1102.8589              1159.2189
 Red. masses --      2.4404                 2.1253                 2.2504
 Frc consts  --      1.6311                 1.5230                 1.7818
 IR Inten    --     38.2069                 3.4897                27.8544

                     25                     26                     27
                      A                      A                      A
 Frequencies --   1174.3568              1199.6899              1257.8533
 Red. masses --      2.0660                 2.6625                 1.1874
 Frc consts  --      1.6787                 2.2578                 1.1069
 IR Inten    --     74.1457                 1.8275                 1.9038

                     28                     29                     30
                      A                      A                      A
 Frequencies --   1287.7297              1305.5624              1314.6415
 Red. masses --      1.3568                 1.3799                 1.4028
 Frc consts  --      1.3256                 1.3858                 1.4285
 IR Inten    --     16.9255                62.8102                28.1008

                     31                     32                     33
                      A                      A                      A
 Frequencies --   1363.3045              1394.4316              1405.8946
 Red. masses --      1.3881                 1.2918                 1.3000
 Frc consts  --      1.5200                 1.4799                 1.5139
 IR Inten    --      0.3656                 3.9815                19.2416

                     34                     35                     36
                      A                      A                      A
 Frequencies --   1415.1202              1420.1304              1468.7217
 Red. masses --      1.4976                 1.3385                 1.0977
 Frc consts  --      1.7670                 1.5905                 1.3952
 IR Inten    --      8.2172                 8.5792                10.5510

                     37                     38                     39
                      A                      A                      A
 Frequencies --   1491.6064              1498.5323              1506.7018
 Red. masses --      1.0530                 1.0711                 1.0688
 Frc consts  --      1.3804                 1.4172                 1.4296
 IR Inten    --      6.2129                 6.1991                 5.5806

                     40                     41                     42
                      A                      A                      A
 Frequencies --   1703.9905              1743.3821              2917.8748
 Red. masses --      7.3452                11.5512                 1.0725
 Frc consts  --     12.5657                20.6853                 5.3797
 IR Inten    --     34.3026               161.5478                46.4968

                     43                     44                     45
                      A                      A                      A
 Frequencies --   2990.6588              3009.3001              3040.9116
 Red. masses --      1.0671                 1.0788                 1.0397
 Frc consts  --      5.6235                 5.7559                 5.6643
 IR Inten    --     25.0858                18.2483                28.1434

                     46                     47                     48
                      A                      A                      A
 Frequencies --   3042.7045              3067.2757              3104.0887
 Red. masses --      1.0851                 1.0981                 1.1002
 Frc consts  --      5.9187                 6.0871                 6.2456
 IR Inten    --     19.7584                29.3975                29.9975

                     49                     50                     51
                      A                      A                      A
 Frequencies --   3126.2682              3152.2202              3168.8591
 Red. masses --      1.0855                 1.0984                 1.0912
 Frc consts  --      6.2509                 6.4303                 6.4559
 IR Inten    --     11.2405                 5.6592                10.1199

 - Thermochemistry -
 -------------------
 Temperature   298.150 Kelvin.  Pressure   1.00000 Atm.
 Atom     1 has atomic number  6 and mass  12.00000

 Molecular mass:   126.06808 amu.
 Principal axes and moments of inertia in atomic units:
                           1         2         3
     Eigenvalues --   729.888651177.280501806.11898
           X            0.99483  -0.10149  -0.00318
           Y            0.10146   0.99481  -0.00767
           Z            0.00394   0.00731   0.99997
 This molecule is an asymmetric top.
 Rotational symmetry number  1.
 Warning -- assumption of classical behavior for rotation
           may cause significant error
 Rotational temperatures (Kelvin)      0.11867     0.07357     0.04796
 Rotational constants (GHZ):           2.47263     1.53297     0.99924
 Zero-point vibrational energy     419167.4 (Joules/Mol)
                                  100.18340 (Kcal/Mol)
 Warning -- explicit consideration of  11 degrees of freedom as
           vibrations may cause significant error
 Vibrational temperatures:     47.15   177.91   273.14   363.28   410.65
          (Kelvin)            434.40   532.36   545.72   595.99   728.55
                              829.15   911.84   997.03  1135.04  1186.99
                             1279.36  1301.58  1362.74  1430.06  1472.08
                             1509.74  1532.42  1586.77  1667.86  1689.64
                             1726.08  1809.77  1852.75  1878.41  1891.47
                             1961.49  2006.27  2022.77  2036.04  2043.25
                             2113.16  2146.09  2156.05  2167.81  2451.66
                             2508.33  4198.17  4302.89  4329.71  4375.19
                             4377.77  4413.12  4466.09  4498.00  4535.34
                             4559.28

 Zero-point correction=                           0.159652 (Hartree/Particle)
 Thermal correction to Energy=                    0.168205
 Thermal correction to Enthalpy=                  0.169149
 Thermal correction to Gibbs Free Energy=         0.125791
 Sum of electronic and zero-point Energies=           -423.047267
 Sum of electronic and thermal Energies=              -423.038714
 Sum of electronic and thermal Enthalpies=            -423.037770
 Sum of electronic and thermal Free Energies=         -423.081129

                     E (Thermal)             CV                S
                      KCal/Mol        Cal/Mol-Kelvin    Cal/Mol-Kelvin
 Total                  105.550             32.025             91.255
 Electronic               0.000              0.000              0.000
 Translational            0.889              2.981             40.409
 Rotational               0.889              2.981             28.830
 Vibrational            103.773             26.064             22.016
 Vibration     1          0.594              1.983              5.654
 Vibration     2          0.610              1.929              3.042
 Vibration     3          0.633              1.854              2.229
 Vibration     4          0.664              1.759              1.713
 Vibration     5          0.683              1.701              1.501
 Vibration     6          0.694              1.670              1.406
 Vibration     7          0.742              1.534              1.080
 Vibration     8          0.749              1.514              1.042
 Vibration     9          0.778              1.439              0.912
 Vibration    10          0.862              1.236              0.642
 Vibration    11          0.933              1.083              0.492

 Normal termination of Gaussian 09 at Tue Jan 28 08:55:23 2020.
