 Gaussian 09, Revision D.01,
 Gaussian 09:  ES64L-G09RevD.01 24-Apr-2013

 -----------------------------
 # b3lyp 6-31G(2df,p) opt Freq
 -----------------------------

 -----
 titel
 -----
 Symbolic Z-matrix:
 Charge =  0 Multiplicity = 1

 SCF Done:  E(RB3LYP) =  -423.143690348     A.U. after   13 cycles
 Optimization completed.
    -- Stationary point found.
 Normal termination of Gaussian 09 at Mon Jan 27 16:56:53 2020.

 ----------------------------------------------------------------------
 #N Geom=AllCheck Guess=TCheck SCRF=Check GenChk RB3LYP/6-31G(2df,p) Fr
 eq
 ----------------------------------------------------------------------

 Structure from the checkpoint file:  "/scratch/puck/g09_e9c45bee-fc71-45e0-b037-2677d4929cf6/Gau-178027.chk"
 -----
 titel
 -----
 Charge =  0 Multiplicity = 1

                         Standard orientation:
 ---------------------------------------------------------------------
 Center     Atomic      Atomic             Coordinates (Angstroms)
 Number     Number       Type             X           Y           Z
 ---------------------------------------------------------------------
      1          6           0        0.649458   -0.347831    1.721489
      2          6           0        0.597082   -0.061586    0.208619
      3          6           0       -0.134638    1.271755   -0.085024
      4          8           0       -1.507230    1.176976    0.241664
      5          6           0       -2.135573    0.164434   -0.531837
      6          6           0       -1.475111   -1.180917   -0.264129
      7          8           0       -0.074530   -1.119233   -0.502067
      8          6           0        1.951799    0.009788   -0.340166
      9          6           0        3.067027    0.122100   -0.772120
     10          1           0       -0.341819   -0.244518    2.167795
     11          1           0        1.023718   -1.359506    1.893107
     12          1           0        1.320535    0.361454    2.212737
     13          1           0        0.286034    2.079716    0.518869
     14          1           0       -0.005724    1.515546   -1.150099
     15          1           0       -3.190484    0.149463   -0.242406
     16          1           0       -2.064390    0.410621   -1.603689
     17          1           0       -1.687407   -1.500052    0.766631
     18          1           0       -1.859990   -1.947597   -0.943750
     19          1           0        4.053341    0.206473   -1.156963
 ---------------------------------------------------------------------

 SCF Done:  E(RB3LYP) =  -423.143690348     A.U. after    1 cycles

 The electronic state is 1-A.
 Alpha  occ. eigenvalues --  -19.14888 -19.14436 -10.26229 -10.23253 -10.23203
 Alpha  occ. eigenvalues --  -10.23107 -10.18227 -10.17963 -10.17835  -1.05782
 Alpha  occ. eigenvalues --   -1.01941  -0.81506  -0.74269  -0.72237  -0.68278
 Alpha  occ. eigenvalues --   -0.65760  -0.57221  -0.53655  -0.50563  -0.49393
 Alpha  occ. eigenvalues --   -0.48729  -0.47470  -0.44388  -0.42268  -0.39365
 Alpha  occ. eigenvalues --   -0.38711  -0.38231  -0.36352  -0.35920  -0.30304
 Alpha  occ. eigenvalues --   -0.28486  -0.27966  -0.27368  -0.23724
 Alpha virt. eigenvalues --    0.03466   0.05167   0.09227   0.11106   0.12347
 Alpha virt. eigenvalues --    0.12782   0.13531   0.14382   0.14994   0.16366
 Alpha virt. eigenvalues --    0.17398   0.18224   0.18947   0.20410   0.21597

 Mulliken charges:
               1
     1  C   -0.428029
     2  C    0.151176
     3  C   -0.106069
     4  O   -0.253996
     5  C   -0.081582
     6  C   -0.084545
     7  O   -0.294143
     8  C    0.304852
     9  C   -0.431281
    10  H    0.130192
    11  H    0.132096
    12  H    0.127369
    13  H    0.116930
    14  H    0.103116
    15  H    0.109250
    16  H    0.097447
    17  H    0.099488
    18  H    0.111516
    19  H    0.196212
 Sum of Mulliken charges =   0.00000

 Dipole moment (field-independent basis, Debye):
    X=             -0.3648    Y=              0.0367    Z=              0.1226  Tot=              0.3866
 Quadrupole moment (field-independent basis, Debye-Ang):
   XX=            -47.0957   YY=            -55.2565   ZZ=            -52.7475
   XY=              4.4914   XZ=              0.7328   YZ=             -1.5422

  Exact polarizability: 100.745   5.940  64.388  -4.649  -1.412  67.824
 Approx polarizability: 141.861   7.722  93.893 -14.213   0.859 100.472

                      1                      2                      3
                      A                      A                      A
 Frequencies --    119.0966               145.6029               192.9336
 Red. masses --      3.4387                 3.8473                 2.3865
 Frc consts  --      0.0287                 0.0481                 0.0523
 IR Inten    --      0.6855                 0.5551                 0.6411

                      4                      5                      6
                      A                      A                      A
 Frequencies --    219.0791               252.7076               329.6874
 Red. masses --      1.4373                 1.9895                 2.1056
 Frc consts  --      0.0406                 0.0749                 0.1348
 IR Inten    --      3.4024                 5.8620                 0.8157

                      7                      8                      9
                      A                      A                      A
 Frequencies --    376.9491               412.2014               443.0034
 Red. masses --      2.9675                 3.0594                 3.5003
 Frc consts  --      0.2484                 0.3063                 0.4047
 IR Inten    --      5.5012                 1.3689                 1.2829

                     10                     11                     12
                      A                      A                      A
 Frequencies --    477.8217               520.7265               553.4842
 Red. masses --      4.5836                 5.5344                 4.4880
 Frc consts  --      0.6166                 0.8842                 0.8101
 IR Inten    --      0.0699                 1.7393                 5.2825

                     13                     14                     15
                      A                      A                      A
 Frequencies --    604.4400               628.9216               669.6315
 Red. masses --      2.2408                 1.2313                 1.2648
 Frc consts  --      0.4824                 0.2869                 0.3342
 IR Inten    --      6.7228                44.8475                34.1404

                     16                     17                     18
                      A                      A                      A
 Frequencies --    743.3565               870.7941               891.7509
 Red. masses --      3.5564                 2.8044                 2.3459
 Frc consts  --      1.1579                 1.2529                 1.0991
 IR Inten    --     12.5724                 1.3847                25.8164

                     19                     20                     21
                      A                      A                      A
 Frequencies --    907.9249               936.9826               968.8239
 Red. masses --      1.8984                 2.3138                 2.0069
 Frc consts  --      0.9220                 1.1968                 1.1099
 IR Inten    --      9.8362                17.1687                29.5453

                     22                     23                     24
                      A                      A                      A
 Frequencies --   1014.5710              1109.7879              1125.3999
 Red. masses --      2.3482                 4.5182                 2.1135
 Frc consts  --      1.4242                 3.2786                 1.5771
 IR Inten    --      7.0836                37.2206                48.8815

                     25                     26                     27
                      A                      A                      A
 Frequencies --   1136.2826              1163.2527              1180.3210
 Red. masses --      4.8608                 2.6575                 3.0499
 Frc consts  --      3.6977                 2.1187                 2.5034
 IR Inten    --     92.0014                 2.8153                54.0768

                     28                     29                     30
                      A                      A                      A
 Frequencies --   1222.2798              1264.9964              1297.6230
 Red. masses --      2.7500                 1.1811                 1.2533
 Frc consts  --      2.4206                 1.1136                 1.2433
 IR Inten    --     60.3491                27.1634                12.7691

                     31                     32                     33
                      A                      A                      A
 Frequencies --   1329.4811              1372.7041              1389.6081
 Red. masses --      1.2237                 1.2438                 1.2518
 Frc consts  --      1.2743                 1.3809                 1.4242
 IR Inten    --      7.6951                 1.0261                 8.0261

                     34                     35                     36
                      A                      A                      A
 Frequencies --   1407.7213              1418.4411              1477.4360
 Red. masses --      1.2951                 1.3680                 1.0768
 Frc consts  --      1.5122                 1.6216                 1.3849
 IR Inten    --     15.1486                 3.7568                 0.4381

                     37                     38                     39
                      A                      A                      A
 Frequencies --   1483.1658              1487.6619              1492.6816
 Red. masses --      1.0762                 1.0631                 1.0953
 Frc consts  --      1.3948                 1.3863                 1.4379
 IR Inten    --      2.7844                 1.7481                 5.7839

                     40                     41                     42
                      A                      A                      A
 Frequencies --   1507.2859              2241.3735              2978.7007
 Red. masses --      1.0690                 5.9070                 1.0691
 Frc consts  --      1.4310                17.4841                 5.5890
 IR Inten    --      1.9181                 0.9864                38.7048

                     43                     44                     45
                      A                      A                      A
 Frequencies --   2997.9206              3004.1119              3054.6024
 Red. masses --      1.0671                 1.0656                 1.0340
 Frc consts  --      5.6505                 5.6658                 5.6842
 IR Inten    --     35.2054                58.0984                10.2981

                     46                     47                     48
                      A                      A                      A
 Frequencies --   3084.1344              3089.9634              3101.9958
 Red. masses --      1.0955                 1.0960                 1.0973
 Frc consts  --      6.1393                 6.1653                 6.2208
 IR Inten    --     39.4395                34.7435                19.7176

                     49                     50                     51
                      A                      A                      A
 Frequencies --   3130.3113              3141.0138              3501.7449
 Red. masses --      1.1016                 1.1033                 1.1630
 Frc consts  --      6.3599                 6.4131                 8.4026
 IR Inten    --     17.5185                12.1928                65.7322

 - Thermochemistry -
 -------------------
 Temperature   298.150 Kelvin.  Pressure   1.00000 Atm.
 Atom     1 has atomic number  6 and mass  12.00000

 Molecular mass:   126.06808 amu.
 Principal axes and moments of inertia in atomic units:
                           1         2         3
     Eigenvalues --   605.083891427.612341506.11449
           X            0.99959   0.02562   0.01285
           Y           -0.02353   0.98951  -0.14256
           Z           -0.01637   0.14220   0.98970
 This molecule is an asymmetric top.
 Rotational symmetry number  1.
 Warning -- assumption of classical behavior for rotation
           may cause significant error
 Rotational temperatures (Kelvin)      0.14314     0.06067     0.05751
 Rotational constants (GHZ):           2.98263     1.26417     1.19828
 Zero-point vibrational energy     415537.8 (Joules/Mol)
                                   99.31591 (Kcal/Mol)
 Warning -- explicit consideration of  13 degrees of freedom as
           vibrations may cause significant error
 Vibrational temperatures:    171.35   209.49   277.59   315.21   363.59
          (Kelvin)            474.35   542.35   593.07   637.38   687.48
                              749.21   796.34   869.65   904.88   963.45
                             1069.52  1252.88  1283.03  1306.30  1348.11
                             1393.92  1459.74  1596.74  1619.20  1634.86
                             1673.66  1698.22  1758.59  1820.05  1866.99
                             1912.82  1975.01  1999.33  2025.39  2040.82
                             2125.70  2133.94  2140.41  2147.63  2168.65
                             3224.83  4285.68  4313.33  4322.24  4394.89
                             4437.38  4445.76  4463.07  4503.81  4519.21
                             5038.22

 Zero-point correction=                           0.158270 (Hartree/Particle)
 Thermal correction to Energy=                    0.166987
 Thermal correction to Enthalpy=                  0.167931
 Thermal correction to Gibbs Free Energy=         0.125448
 Sum of electronic and zero-point Energies=           -422.985420
 Sum of electronic and thermal Energies=              -422.976703
 Sum of electronic and thermal Enthalpies=            -422.975759
 Sum of electronic and thermal Free Energies=         -423.018242

                     E (Thermal)             CV                S
                      KCal/Mol        Cal/Mol-Kelvin    Cal/Mol-Kelvin
 Total                  104.786             33.904             89.413
 Electronic               0.000              0.000              0.000
 Translational            0.889              2.981             40.409
 Rotational               0.889              2.981             28.655
 Vibrational            103.009             27.942             20.349
 Vibration     1          0.609              1.933              3.115
 Vibration     2          0.617              1.907              2.729
 Vibration     3          0.635              1.850              2.199
 Vibration     4          0.647              1.812              1.967
 Vibration     5          0.664              1.758              1.712
 Vibration     6          0.712              1.616              1.262
 Vibration     7          0.748              1.519              1.051
 Vibration     8          0.776              1.444              0.919
 Vibration     9          0.803              1.376              0.817
 Vibration    10          0.834              1.299              0.716
 Vibration    11          0.876              1.204              0.608
 Vibration    12          0.909              1.132              0.537
 Vibration    13          0.963              1.022              0.442

 Optimization completed.
    -- Stationary point found.
 Normal termination of Gaussian 09 at Mon Jan 27 17:42:26 2020.
