 Gaussian 09, Revision D.01,
 Gaussian 09:  ES64L-G09RevD.01 24-Apr-2013

 -----------------------------
 # b3lyp 6-31G(2df,p) opt Freq
 -----------------------------

 -----
 titel
 -----
 Symbolic Z-matrix:
 Charge =  0 Multiplicity = 1

 SCF Done:  E(RB3LYP) =  -423.140910802     A.U. after   13 cycles
 Optimization completed.
    -- Stationary point found.
 Normal termination of Gaussian 09 at Tue Jan 28 09:15:06 2020.

 ----------------------------------------------------------------------
 #N Geom=AllCheck Guess=TCheck SCRF=Check GenChk RB3LYP/6-31G(2df,p) Fr
 eq
 ----------------------------------------------------------------------

 Structure from the checkpoint file:  "/scratch/puck/g09_d845cff9-f94a-42e2-a90e-744c5e97b067/Gau-129700.chk"
 -----
 titel
 -----
 Charge =  0 Multiplicity = 1

                         Standard orientation:
 ---------------------------------------------------------------------
 Center     Atomic      Atomic             Coordinates (Angstroms)
 Number     Number       Type             X           Y           Z
 ---------------------------------------------------------------------
      1          6           0        2.649527   -0.663737   -0.449197
      2          6           0        1.323066   -0.091449   -0.038325
      3          6           0        0.577652   -0.431079    1.295438
      4          6           0       -0.592993   -0.008565    0.359454
      5          6           0       -2.020047   -0.475298    0.450066
      6          8           0       -2.732744   -0.133107   -0.725824
      7          8           0        0.150265   -0.644679   -0.745144
      8          6           0       -0.264109    1.481820    0.115253
      9          6           0        1.040132    1.426293   -0.149915
     10          1           0        2.661975   -1.748986   -0.319347
     11          1           0        2.854132   -0.439367   -1.500875
     12          1           0        3.453433   -0.231625    0.155406
     13          1           0        0.579079   -1.502751    1.514327
     14          1           0        0.784792    0.172340    2.181185
     15          1           0       -2.038605   -1.560014    0.636387
     16          1           0       -2.526715    0.018361    1.286770
     17          1           0       -2.190752   -0.428258   -1.467356
     18          1           0       -0.952975    2.311985    0.163931
     19          1           0        1.756105    2.202694   -0.379321
 ---------------------------------------------------------------------

 SCF Done:  E(RB3LYP) =  -423.140910802     A.U. after    1 cycles

 The electronic state is 1-A.
 Alpha  occ. eigenvalues --  -19.13268 -19.12796 -10.24928 -10.24264 -10.22791
 Alpha  occ. eigenvalues --  -10.19080 -10.18480 -10.18394 -10.18390  -1.04713
 Alpha  occ. eigenvalues --   -1.01215  -0.80516  -0.76080  -0.72462  -0.69435
 Alpha  occ. eigenvalues --   -0.61597  -0.55149  -0.54483  -0.49890  -0.47992
 Alpha  occ. eigenvalues --   -0.46767  -0.45179  -0.42853  -0.42144  -0.40658
 Alpha  occ. eigenvalues --   -0.37904  -0.37083  -0.36715  -0.33836  -0.33444
 Alpha  occ. eigenvalues --   -0.30470  -0.26714  -0.25488  -0.23647
 Alpha virt. eigenvalues --    0.00026   0.07947   0.10425   0.11593   0.12483
 Alpha virt. eigenvalues --    0.13078   0.14336   0.15105   0.15569   0.15799
 Alpha virt. eigenvalues --    0.17616   0.18537   0.18970   0.20023   0.21979

 Mulliken charges:
               1
     1  C   -0.509417
     2  C    0.367643
     3  C   -0.311396
     4  C    0.346899
     5  C   -0.180911
     6  O   -0.419557
     7  O   -0.364658
     8  C   -0.118310
     9  C   -0.125674
    10  H    0.129475
    11  H    0.133836
    12  H    0.124706
    13  H    0.101254
    14  H    0.097397
    15  H    0.095011
    16  H    0.110455
    17  H    0.296614
    18  H    0.117906
    19  H    0.108726
 Sum of Mulliken charges =   0.00000

 Dipole moment (field-independent basis, Debye):
    X=              1.9458    Y=              0.2423    Z=              1.2487  Tot=              2.3247
 Quadrupole moment (field-independent basis, Debye-Ang):
   XX=            -55.3557   YY=            -51.7076   ZZ=            -52.2668
   XY=              0.9114   XZ=             -1.9082   YZ=             -0.3876

  Exact polarizability:  90.235  -1.148  71.940  -4.128  -2.239  64.162
 Approx polarizability: 129.442  -1.853 105.963  -5.668  -0.234 100.357

                      1                      2                      3
                      A                      A                      A
 Frequencies --     81.7142               147.4155               190.8928
 Red. masses --      3.9114                 3.6644                 1.0984
 Frc consts  --      0.0154                 0.0469                 0.0236
 IR Inten    --      4.2553                 0.2568                 0.2298

                      4                      5                      6
                      A                      A                      A
 Frequencies --    238.2818               280.6371               347.3376
 Red. masses --      2.1198                 2.6591                 2.0366
 Frc consts  --      0.0709                 0.1234                 0.1448
 IR Inten    --      0.6643                 5.7482                26.7075

                      7                      8                      9
                      A                      A                      A
 Frequencies --    390.4644               419.4178               485.4812
 Red. masses --      1.9289                 1.7904                 1.9475
 Frc consts  --      0.1733                 0.1856                 0.2704
 IR Inten    --     30.1119                76.3372                 5.0699

                     10                     11                     12
                      A                      A                      A
 Frequencies --    545.0077               604.0375               623.4285
 Red. masses --      3.0115                 3.4458                 3.2040
 Frc consts  --      0.5270                 0.7407                 0.7337
 IR Inten    --      1.6514                 7.2846                 0.3804

                     13                     14                     15
                      A                      A                      A
 Frequencies --    671.1377               707.0445               748.6712
 Red. masses --      3.3362                 1.8969                 5.8570
 Frc consts  --      0.8854                 0.5587                 1.9342
 IR Inten    --      9.7178                19.7662                30.7918

                     16                     17                     18
                      A                      A                      A
 Frequencies --    808.8524               833.8753               868.2533
 Red. masses --      2.8165                 2.9891                 2.2960
 Frc consts  --      1.0857                 1.2246                 1.0198
 IR Inten    --     18.5986                 8.5130                 8.4589

                     19                     20                     21
                      A                      A                      A
 Frequencies --    898.0395               910.9177              1003.7361
 Red. masses --      1.4029                 3.1032                 2.8393
 Frc consts  --      0.6666                 1.5171                 1.6854
 IR Inten    --      1.1408                24.6222                 1.8356

                     22                     23                     24
                      A                      A                      A
 Frequencies --   1021.9853              1030.2930              1044.7014
 Red. masses --      1.7617                 1.3378                 1.3014
 Frc consts  --      1.0841                 0.8367                 0.8368
 IR Inten    --      5.5982                17.0684                20.0900

                     25                     26                     27
                      A                      A                      A
 Frequencies --   1063.5994              1120.7394              1136.2492
 Red. masses --      2.5892                 2.2225                 1.7294
 Frc consts  --      1.7257                 1.6448                 1.3155
 IR Inten    --     83.4834                 3.3451                 3.5671

                     28                     29                     30
                      A                      A                      A
 Frequencies --   1179.9779              1186.6559              1236.8242
 Red. masses --      1.6712                 2.1131                 1.8575
 Frc consts  --      1.3709                 1.7532                 1.6741
 IR Inten    --      8.3611                 9.5744                14.2453

                     31                     32                     33
                      A                      A                      A
 Frequencies --   1238.5632              1328.7185              1348.0423
 Red. masses --      1.3306                 2.1622                 2.1823
 Frc consts  --      1.2026                 2.2491                 2.3366
 IR Inten    --     17.1072                54.4446                 7.0031

                     34                     35                     36
                      A                      A                      A
 Frequencies --   1377.4965              1415.5974              1441.1519
 Red. masses --      1.3643                 1.5103                 1.4321
 Frc consts  --      1.5252                 1.7831                 1.7524
 IR Inten    --      8.2136                 8.4402                58.4403

                     37                     38                     39
                      A                      A                      A
 Frequencies --   1478.8919              1487.0895              1493.5939
 Red. masses --      1.0528                 1.2070                 1.0548
 Frc consts  --      1.3567                 1.5727                 1.3864
 IR Inten    --      3.6984                 1.0572                 3.5240

                     40                     41                     42
                      A                      A                      A
 Frequencies --   1497.0322              1624.4429              2989.9871
 Red. masses --      1.0913                 6.5213                 1.0683
 Frc consts  --      1.4410                10.1390                 5.6268
 IR Inten    --      1.0873                 1.2599                48.2736

                     43                     44                     45
                      A                      A                      A
 Frequencies --   3040.4435              3056.2236              3070.2502
 Red. masses --      1.0356                 1.0560                 1.0943
 Frc consts  --      5.6403                 5.8112                 6.0775
 IR Inten    --     15.9919                36.9646                23.3501

                     46                     47                     48
                      A                      A                      A
 Frequencies --   3109.7647              3121.1630              3131.1158
 Red. masses --      1.1009                 1.1018                 1.1103
 Frc consts  --      6.2725                 6.3238                 6.4136
 IR Inten    --     12.9835                10.0938                32.7399

                     49                     50                     51
                      A                      A                      A
 Frequencies --   3225.9728              3256.5003              3792.4453
 Red. masses --      1.0872                 1.1110                 1.0659
 Frc consts  --      6.6661                 6.9418                 9.0324
 IR Inten    --      2.5920                 5.0247                24.9926

 - Thermochemistry -
 -------------------
 Temperature   298.150 Kelvin.  Pressure   1.00000 Atm.
 Atom     1 has atomic number  6 and mass  12.00000

 Molecular mass:   126.06808 amu.
 Principal axes and moments of inertia in atomic units:
                           1         2         3
     Eigenvalues --   516.623331434.995521537.08268
           X            0.99988  -0.00756  -0.01382
           Y            0.00682   0.99860  -0.05243
           Z            0.01420   0.05233   0.99853
 This molecule is an asymmetric top.
 Rotational symmetry number  1.
 Warning -- assumption of classical behavior for rotation
           may cause significant error
 Rotational temperatures (Kelvin)      0.16765     0.06036     0.05635
 Rotational constants (GHZ):           3.49334     1.25766     1.17413
 Zero-point vibrational energy     414806.0 (Joules/Mol)
                                   99.14102 (Kcal/Mol)
 Warning -- explicit consideration of  11 degrees of freedom as
           vibrations may cause significant error
 Vibrational temperatures:    117.57   212.10   274.65   342.83   403.77
          (Kelvin)            499.74   561.79   603.45   698.50   784.14
                              869.07   896.97   965.62  1017.28  1077.17
                             1163.76  1199.76  1249.22  1292.08  1310.61
                             1444.15  1470.41  1482.36  1503.09  1530.28
                             1612.49  1634.81  1697.72  1707.33  1779.51
                             1782.01  1911.73  1939.53  1981.91  2036.73
                             2073.49  2127.79  2139.59  2148.95  2153.89
                             2337.21  4301.92  4374.51  4397.22  4417.40
                             4474.25  4490.65  4504.97  4641.45  4685.37
                             5456.48

 Zero-point correction=                           0.157991 (Hartree/Particle)
 Thermal correction to Energy=                    0.166450
 Thermal correction to Enthalpy=                  0.167394
 Thermal correction to Gibbs Free Energy=         0.125217
 Sum of electronic and zero-point Energies=           -422.982920
 Sum of electronic and thermal Energies=              -422.974461
 Sum of electronic and thermal Enthalpies=            -422.973517
 Sum of electronic and thermal Free Energies=         -423.015694

                     E (Thermal)             CV                S
                      KCal/Mol        Cal/Mol-Kelvin    Cal/Mol-Kelvin
 Total                  104.449             33.268             88.769
 Electronic               0.000              0.000              0.000
 Translational            0.889              2.981             40.409
 Rotational               0.889              2.981             28.523
 Vibrational            102.671             27.306             19.837
 Vibration     1          0.600              1.962              3.849
 Vibration     2          0.617              1.905              2.705
 Vibration     3          0.634              1.852              2.219
 Vibration     4          0.656              1.782              1.816
 Vibration     5          0.680              1.709              1.530
 Vibration     6          0.725              1.581              1.178
 Vibration     7          0.758              1.491              0.998
 Vibration     8          0.782              1.428              0.894
 Vibration     9          0.842              1.282              0.695
 Vibration    10          0.900              1.151              0.555
 Vibration    11          0.963              1.023              0.443

 Normal termination of Gaussian 09 at Tue Jan 28 10:02:01 2020.
