 Gaussian 09, Revision D.01,
 Gaussian 09:  ES64L-G09RevD.01 24-Apr-2013

 -----------------------------
 # b3lyp 6-31G(2df,p) opt Freq
 -----------------------------

 -----
 titel
 -----
 Symbolic Z-matrix:
 Charge =  0 Multiplicity = 1

 SCF Done:  E(RB3LYP) =  -423.189251525     A.U. after   14 cycles
 Optimization completed.
    -- Stationary point found.
 Normal termination of Gaussian 09 at Mon Jan 27 14:10:21 2020.

 ----------------------------------------------------------------------
 #N Geom=AllCheck Guess=TCheck SCRF=Check GenChk RB3LYP/6-31G(2df,p) Fr
 eq
 ----------------------------------------------------------------------

 Structure from the checkpoint file:  "/scratch/puck/g09_4c0566f6-475e-478d-9bf5-255bd678d8af/Gau-31511.chk"
 -----
 titel
 -----
 Charge =  0 Multiplicity = 1

                         Standard orientation:
 ---------------------------------------------------------------------
 Center     Atomic      Atomic             Coordinates (Angstroms)
 Number     Number       Type             X           Y           Z
 ---------------------------------------------------------------------
      1          6           0        2.806692    0.413824    0.375909
      2          6           0        1.550635   -0.335620   -0.036279
      3          8           0        1.578879   -1.226788   -0.852254
      4          6           0        0.253376    0.098723    0.651076
      5          6           0       -0.326607    1.397994    0.000502
      6          8           0       -1.275889    0.985182   -0.969388
      7          6           0       -1.762146   -0.279183   -0.597751
      8          6           0       -2.270481   -0.478459    0.807001
      9          6           0       -0.862365   -0.905254    0.424382
     10          1           0        3.072060    0.134998    1.403036
     11          1           0        3.630339    0.153060   -0.289446
     12          1           0        2.650891    1.497519    0.374148
     13          1           0        0.468699    0.294870    1.707919
     14          1           0       -0.802843    2.016495    0.773339
     15          1           0        0.424276    2.013762   -0.503772
     16          1           0       -2.192563   -0.809826   -1.437476
     17          1           0       -2.413668    0.384802    1.448866
     18          1           0       -2.994725   -1.270843    0.962452
     19          1           0       -0.601012   -1.954148    0.385028
 ---------------------------------------------------------------------

 SCF Done:  E(RB3LYP) =  -423.189251525     A.U. after    1 cycles

 The electronic state is 1-A.
 Alpha  occ. eigenvalues --  -19.14586 -19.13038 -10.27125 -10.24135 -10.23345
 Alpha  occ. eigenvalues --  -10.20388 -10.19248 -10.19108 -10.18695  -1.05023
 Alpha  occ. eigenvalues --   -1.03981  -0.85057  -0.78645  -0.73482  -0.66281
 Alpha  occ. eigenvalues --   -0.58983  -0.57808  -0.54617  -0.51304  -0.48455
 Alpha  occ. eigenvalues --   -0.46199  -0.44806  -0.43997  -0.42503  -0.41814
 Alpha  occ. eigenvalues --   -0.40281  -0.39242  -0.36381  -0.35437  -0.33720
 Alpha  occ. eigenvalues --   -0.32874  -0.28794  -0.24644  -0.23407
 Alpha virt. eigenvalues --   -0.01454   0.07973   0.09697   0.10576   0.11316
 Alpha virt. eigenvalues --    0.13129   0.13853   0.14852   0.16279   0.16764
 Alpha virt. eigenvalues --    0.17679   0.19285   0.19993   0.21141   0.21685

 Mulliken charges:
               1
     1  C   -0.480967
     2  C    0.374390
     3  O   -0.292686
     4  C   -0.132684
     5  C   -0.110651
     6  O   -0.247140
     7  C    0.134854
     8  C   -0.365589
     9  C   -0.056484
    10  H    0.143407
    11  H    0.145112
    12  H    0.134997
    13  H    0.087260
    14  H    0.104030
    15  H    0.115157
    16  H    0.107848
    17  H    0.114474
    18  H    0.117426
    19  H    0.107246
 Sum of Mulliken charges =   0.00000

 Dipole moment (field-independent basis, Debye):
    X=              0.3542    Y=              1.0989    Z=              2.6086  Tot=              2.8527
 Quadrupole moment (field-independent basis, Debye-Ang):
   XX=            -51.2228   YY=            -53.7508   ZZ=            -54.8280
   XY=              5.9871   XZ=              1.7335   YZ=              0.1527

  Exact polarizability:  87.591   4.544  71.259  -1.131   4.112  65.504
 Approx polarizability: 110.007   1.996 111.015  -0.371   9.100 107.251

                      1                      2                      3
                      A                      A                      A
 Frequencies --     53.4240               100.1867               114.0817
 Red. masses --      4.4696                 3.2915                 1.1222
 Frc consts  --      0.0075                 0.0195                 0.0086
 IR Inten    --      2.6061                 0.0955                 0.0309

                      4                      5                      6
                      A                      A                      A
 Frequencies --    183.2167               272.6001               310.6237
 Red. masses --      3.5834                 2.3162                 3.8888
 Frc consts  --      0.0709                 0.1014                 0.2211
 IR Inten    --      6.8542                 3.9539                 0.9673

                      7                      8                      9
                      A                      A                      A
 Frequencies --    345.8636               441.6007               560.4051
 Red. masses --      2.9225                 2.7315                 2.5690
 Frc consts  --      0.2060                 0.3138                 0.4754
 IR Inten    --      0.5170                 3.9849                 1.9862

                     10                     11                     12
                      A                      A                      A
 Frequencies --    572.7340               704.2284               732.6130
 Red. masses --      4.1124                 3.2635                 2.9317
 Frc consts  --      0.7948                 0.9536                 0.9271
 IR Inten    --     10.6368                 0.8376                 6.0494

                     13                     14                     15
                      A                      A                      A
 Frequencies --    775.4219               799.0494               816.8753
 Red. masses --      2.4776                 3.0367                 1.4759
 Frc consts  --      0.8777                 1.1423                 0.5803
 IR Inten    --     15.9787                 9.8601                 8.9654

                     16                     17                     18
                      A                      A                      A
 Frequencies --    906.0166               921.9913               946.8247
 Red. masses --      2.5752                 2.3685                 2.4202
 Frc consts  --      1.2455                 1.1862                 1.2783
 IR Inten    --      5.9052                 2.6273                56.2112

                     19                     20                     21
                      A                      A                      A
 Frequencies --    962.6371               993.5589              1012.0300
 Red. masses --      2.1915                 1.7300                 1.5738
 Frc consts  --      1.1965                 1.0062                 0.9497
 IR Inten    --      7.4765                 0.9636                 8.0936

                     22                     23                     24
                      A                      A                      A
 Frequencies --   1041.5591              1066.0761              1092.1248
 Red. masses --      2.1319                 1.7613                 1.9082
 Frc consts  --      1.3627                 1.1794                 1.3410
 IR Inten    --     13.3788                10.0472                 6.1647

                     25                     26                     27
                      A                      A                      A
 Frequencies --   1101.0011              1118.7836              1164.2115
 Red. masses --      1.4630                 1.4981                 2.9605
 Frc consts  --      1.0449                 1.1048                 2.3642
 IR Inten    --      4.1321                 1.3562                75.8878

                     28                     29                     30
                      A                      A                      A
 Frequencies --   1181.0488              1198.3965              1243.4742
 Red. masses --      2.1165                 1.7256                 1.1266
 Frc consts  --      1.7394                 1.4601                 1.0263
 IR Inten    --     63.9786                16.6105                 4.0912

                     31                     32                     33
                      A                      A                      A
 Frequencies --   1249.1213              1305.9329              1354.0261
 Red. masses --      1.6595                 1.3437                 1.4715
 Frc consts  --      1.5256                 1.3502                 1.5895
 IR Inten    --     13.7194                 7.5102                 8.8791

                     34                     35                     36
                      A                      A                      A
 Frequencies --   1373.9297              1383.4800              1402.6758
 Red. masses --      1.7352                 1.4797                 1.4429
 Frc consts  --      1.9299                 1.6686                 1.6726
 IR Inten    --      7.8146                36.5801                 7.9195

                     37                     38                     39
                      A                      A                      A
 Frequencies --   1463.0119              1475.8139              1481.3132
 Red. masses --      1.0524                 1.0542                 1.2842
 Frc consts  --      1.3271                 1.3528                 1.6603
 IR Inten    --      8.4083                 8.4176                 7.9009

                     40                     41                     42
                      A                      A                      A
 Frequencies --   1526.0258              1812.3300              3004.2115
 Red. masses --      1.0867                10.8385                 1.0695
 Frc consts  --      1.4911                20.9747                 5.6868
 IR Inten    --      1.4218               130.5446                42.0285

                     43                     44                     45
                      A                      A                      A
 Frequencies --   3034.3028              3043.5568              3077.7335
 Red. masses --      1.0432                 1.0773                 1.0959
 Frc consts  --      5.6587                 5.8797                 6.1162
 IR Inten    --      0.2586                33.7039                26.9742

                     46                     47                     48
                      A                      A                      A
 Frequencies --   3096.9581              3130.5033              3153.4805
 Red. masses --      1.0963                 1.0545                 1.1019
 Frc consts  --      6.1951                 6.0889                 6.4562
 IR Inten    --     12.1069                12.3064                 9.5046

                     49                     50                     51
                      A                      A                      A
 Frequencies --   3196.0420              3204.2853              3217.8369
 Red. masses --      1.0909                 1.0987                 1.1102
 Frc consts  --      6.5657                 6.6463                 6.7729
 IR Inten    --     10.5290                 0.5990                12.9365

 - Thermochemistry -
 -------------------
 Temperature   298.150 Kelvin.  Pressure   1.00000 Atm.
 Atom     1 has atomic number  6 and mass  12.00000

 Molecular mass:   126.06808 amu.
 Principal axes and moments of inertia in atomic units:
                           1         2         3
     Eigenvalues --   554.659701462.624611597.70073
           X            0.99921   0.03946   0.00420
           Y           -0.03961   0.99831   0.04251
           Z           -0.00252  -0.04265   0.99909
 This molecule is an asymmetric top.
 Rotational symmetry number  1.
 Warning -- assumption of classical behavior for rotation
           may cause significant error
 Rotational temperatures (Kelvin)      0.15616     0.05922     0.05421
 Rotational constants (GHZ):           3.25378     1.23391     1.12959
 Zero-point vibrational energy     417013.6 (Joules/Mol)
                                   99.66864 (Kcal/Mol)
 Warning -- explicit consideration of  10 degrees of freedom as
           vibrations may cause significant error
 Vibrational temperatures:     76.87   144.15   164.14   263.61   392.21
          (Kelvin)            446.92   497.62   635.36   806.30   824.04
                             1013.23  1054.07  1115.66  1149.65  1175.30
                             1303.55  1326.54  1362.27  1385.02  1429.51
                             1456.08  1498.57  1533.84  1571.32  1584.09
                             1609.68  1675.04  1699.26  1724.22  1789.08
                             1797.20  1878.94  1948.14  1976.78  1990.52
                             2018.14  2104.95  2123.36  2131.28  2195.61
                             2607.54  4322.38  4365.68  4378.99  4428.17
                             4455.83  4504.09  4537.15  4598.39  4610.25
                             4629.74

 Zero-point correction=                           0.158832 (Hartree/Particle)
 Thermal correction to Energy=                    0.167374
 Thermal correction to Enthalpy=                  0.168318
 Thermal correction to Gibbs Free Energy=         0.124972
 Sum of electronic and zero-point Energies=           -423.030419
 Sum of electronic and thermal Energies=              -423.021877
 Sum of electronic and thermal Enthalpies=            -423.020933
 Sum of electronic and thermal Free Energies=         -423.064279

                     E (Thermal)             CV                S
                      KCal/Mol        Cal/Mol-Kelvin    Cal/Mol-Kelvin
 Total                  105.029             31.784             91.229
 Electronic               0.000              0.000              0.000
 Translational            0.889              2.981             40.409
 Rotational               0.889              2.981             28.651
 Vibrational            103.251             25.823             22.169
 Vibration     1          0.596              1.976              4.686
 Vibration     2          0.604              1.949              3.451
 Vibration     3          0.607              1.938              3.198
 Vibration     4          0.631              1.863              2.295
 Vibration     5          0.676              1.724              1.580
 Vibration     6          0.699              1.653              1.359
 Vibration     7          0.724              1.584              1.185
 Vibration     8          0.801              1.379              0.822
 Vibration     9          0.916              1.117              0.523
 Vibration    10          0.929              1.090              0.499

 Optimization completed.
    -- Stationary point found.
 Normal termination of Gaussian 09 at Mon Jan 27 15:04:47 2020.
