 Gaussian 09, Revision D.01,
 Gaussian 09:  ES64L-G09RevD.01 24-Apr-2013

 -----------------------------
 # b3lyp 6-31G(2df,p) opt Freq
 -----------------------------

 -----
 titel
 -----
 Symbolic Z-matrix:
 Charge =  0 Multiplicity = 1

 SCF Done:  E(RB3LYP) =  -423.231512559     A.U. after   14 cycles
 Optimization completed.
    -- Stationary point found.
 Normal termination of Gaussian 09 at Tue Jan 28 03:55:28 2020.

 ----------------------------------------------------------------------
 #N Geom=AllCheck Guess=TCheck SCRF=Check GenChk RB3LYP/6-31G(2df,p) Fr
 eq
 ----------------------------------------------------------------------

 Structure from the checkpoint file:  "/scratch/puck/g09_12f20ef6-136d-4644-b92a-8e2bcafb26df/Gau-62791.chk"
 -----
 titel
 -----
 Charge =  0 Multiplicity = 1

                         Standard orientation:
 ---------------------------------------------------------------------
 Center     Atomic      Atomic             Coordinates (Angstroms)
 Number     Number       Type             X           Y           Z
 ---------------------------------------------------------------------
      1          6           0        2.520077   -0.499925   -0.067865
      2          6           0        1.124508    0.064544   -0.337645
      3          6           0        0.998833    1.539644    0.082416
      4          6           0       -0.409909    2.058366    0.022145
      5          6           0       -1.490862    1.266057   -0.000163
      6          6           0       -1.352500   -0.195633    0.034483
      7          8           0       -2.269617   -0.967673   -0.186721
      8          6           0        0.032350   -0.749340    0.374335
      9          8           0        0.094715   -2.110584    0.050917
     10          1           0        3.284226    0.067713   -0.609450
     11          1           0        2.761777   -0.455344    1.000747
     12          1           0        2.574872   -1.544046   -0.382493
     13          1           0        0.921938   -0.001622   -1.415775
     14          1           0        1.371808    1.663420    1.112348
     15          1           0        1.650275    2.168944   -0.535686
     16          1           0       -0.538059    3.138517   -0.004383
     17          1           0       -2.499111    1.660145   -0.075712
     18          1           0        0.163734   -0.605648    1.466559
     19          1           0       -0.827227   -2.368302   -0.115965
 ---------------------------------------------------------------------

 SCF Done:  E(RB3LYP) =  -423.231512559     A.U. after    1 cycles

 The electronic state is 1-A.
 Alpha  occ. eigenvalues --  -19.13870 -19.12815 -10.26968 -10.23494 -10.22208
 Alpha  occ. eigenvalues --  -10.20571 -10.19980 -10.19951 -10.17622  -1.05383
 Alpha  occ. eigenvalues --   -1.00858  -0.84973  -0.77827  -0.72501  -0.68843
 Alpha  occ. eigenvalues --   -0.60631  -0.58860  -0.54364  -0.50644  -0.49027
 Alpha  occ. eigenvalues --   -0.46181  -0.44771  -0.43817  -0.41489  -0.40656
 Alpha  occ. eigenvalues --   -0.39685  -0.38280  -0.36987  -0.34568  -0.34129
 Alpha  occ. eigenvalues --   -0.33036  -0.28195  -0.26785  -0.25371
 Alpha virt. eigenvalues --   -0.05912   0.04993   0.08438   0.10633   0.11854
 Alpha virt. eigenvalues --    0.12599   0.14915   0.15602   0.16186   0.16944
 Alpha virt. eigenvalues --    0.17588   0.18313   0.20836   0.22064   0.23562

 Mulliken charges:
               1
     1  C   -0.409556
     2  C   -0.006519
     3  C   -0.272869
     4  C   -0.051760
     5  C   -0.136693
     6  C    0.342303
     7  O   -0.359207
     8  C    0.050383
     9  O   -0.449191
    10  H    0.108837
    11  H    0.111938
    12  H    0.144256
    13  H    0.086146
    14  H    0.124307
    15  H    0.117743
    16  H    0.113372
    17  H    0.113119
    18  H    0.082193
    19  H    0.291195
 Sum of Mulliken charges =   0.00000

 Dipole moment (field-independent basis, Debye):
    X=              1.4470    Y=              3.2736    Z=              0.3300  Tot=              3.5943
 Quadrupole moment (field-independent basis, Debye-Ang):
   XX=            -57.0243   YY=            -52.7835   ZZ=            -52.9011
   XY=             -0.7356   XZ=             -0.8221   YZ=              0.0124

  Exact polarizability:  91.990   6.772  88.799   1.853   1.025  54.604
 Approx polarizability: 137.208  26.233 135.939   5.801   4.222  88.411

                      1                      2                      3
                      A                      A                      A
 Frequencies --     99.6180               141.8943               229.9002
 Red. masses --      6.6013                 2.4500                 1.0839
 Frc consts  --      0.0386                 0.0291                 0.0338
 IR Inten    --      0.2600                 0.1384                 0.2012

                      4                      5                      6
                      A                      A                      A
 Frequencies --    261.2090               280.0568               337.5058
 Red. masses --      2.8803                 3.0555                 3.5544
 Frc consts  --      0.1158                 0.1412                 0.2386
 IR Inten    --      1.8622                 1.5372                15.0243

                      7                      8                      9
                      A                      A                      A
 Frequencies --    353.4689               417.8539               451.6538
 Red. masses --      2.7994                 4.0257                 3.3136
 Frc consts  --      0.2061                 0.4141                 0.3983
 IR Inten    --     11.0867                 1.0426                10.4138

                     10                     11                     12
                      A                      A                      A
 Frequencies --    471.7282               511.7184               569.4018
 Red. masses --      2.8313                 1.5271                 3.4654
 Frc consts  --      0.3712                 0.2356                 0.6620
 IR Inten    --     24.1512                35.0456                 7.7170

                     13                     14                     15
                      A                      A                      A
 Frequencies --    648.8725               717.7280               784.6186
 Red. masses --      2.7963                 2.0373                 2.5853
 Frc consts  --      0.6937                 0.6183                 0.9377
 IR Inten    --      1.8570                14.6648                18.9411

                     16                     17                     18
                      A                      A                      A
 Frequencies --    877.5658               888.2501               911.2225
 Red. masses --      2.4059                 3.0556                 1.6333
 Frc consts  --      1.0917                 1.4204                 0.7990
 IR Inten    --      1.9710                 8.3717                 2.1353

                     19                     20                     21
                      A                      A                      A
 Frequencies --    940.7604               992.4359              1023.4271
 Red. masses --      1.9861                 1.7461                 1.2424
 Frc consts  --      1.0356                 1.0133                 0.7667
 IR Inten    --      1.8856                21.4933                 0.6143

                     22                     23                     24
                      A                      A                      A
 Frequencies --   1101.4400              1106.1007              1123.1616
 Red. masses --      2.6272                 1.9731                 1.6232
 Frc consts  --      1.8778                 1.4223                 1.2064
 IR Inten    --     18.3186                 4.1170                11.2972

                     25                     26                     27
                      A                      A                      A
 Frequencies --   1149.5899              1179.0539              1206.7016
 Red. masses --      5.1173                 1.4353                 1.3317
 Frc consts  --      3.9846                 1.1756                 1.1425
 IR Inten    --    103.8542                 4.7108                15.3007

                     28                     29                     30
                      A                      A                      A
 Frequencies --   1243.9978              1280.2860              1325.1315
 Red. masses --      1.4676                 1.5943                 1.2985
 Frc consts  --      1.3382                 1.5397                 1.3434
 IR Inten    --     10.1416                50.8723                 4.2769

                     31                     32                     33
                      A                      A                      A
 Frequencies --   1331.9641              1369.1433              1384.3653
 Red. masses --      1.3162                 1.6030                 1.3652
 Frc consts  --      1.3758                 1.7705                 1.5415
 IR Inten    --      3.5362                 7.2007                27.4626

                     34                     35                     36
                      A                      A                      A
 Frequencies --   1405.5413              1413.7524              1441.6965
 Red. masses --      1.3309                 1.6102                 1.5059
 Frc consts  --      1.5491                 1.8962                 1.8442
 IR Inten    --      6.2005                13.4530                58.9011

                     37                     38                     39
                      A                      A                      A
 Frequencies --   1465.4226              1492.4146              1503.6402
 Red. masses --      1.1036                 1.0508                 1.0542
 Frc consts  --      1.3963                 1.3790                 1.4044
 IR Inten    --      4.9120                 5.8970                 5.7172

                     40                     41                     42
                      A                      A                      A
 Frequencies --   1677.0178              1764.8194              2895.8399
 Red. masses --      6.5704                11.4539                 1.0779
 Frc consts  --     10.8873                21.0187                 5.3258
 IR Inten    --     15.3537               219.1064                36.0391

                     43                     44                     45
                      A                      A                      A
 Frequencies --   2985.3882              3014.9818              3030.5397
 Red. masses --      1.0706                 1.0809                 1.0391
 Frc consts  --      5.6216                 5.7891                 5.6228
 IR Inten    --      7.2189                18.8668                30.2158

                     46                     47                     48
                      A                      A                      A
 Frequencies --   3051.6400              3092.7677              3131.9747
 Red. masses --      1.0896                 1.1006                 1.0988
 Frc consts  --      5.9784                 6.2025                 6.3506
 IR Inten    --     18.0104                34.2772                 9.9960

                     49                     50                     51
                      A                      A                      A
 Frequencies --   3152.6527              3192.2250              3667.3804
 Red. masses --      1.0873                 1.0952                 1.0644
 Frc consts  --      6.3670                 6.5754                 8.4349
 IR Inten    --     12.0627                10.0369                67.9705

 - Thermochemistry -
 -------------------
 Temperature   298.150 Kelvin.  Pressure   1.00000 Atm.
 Atom     1 has atomic number  6 and mass  12.00000

 Molecular mass:   126.06808 amu.
 Principal axes and moments of inertia in atomic units:
                           1         2         3
     Eigenvalues --   838.064801018.503971777.44749
           X            0.99842  -0.05625  -0.00123
           Y            0.05625   0.99842   0.00022
           Z            0.00122  -0.00029   1.00000
 This molecule is an asymmetric top.
 Rotational symmetry number  1.
 Warning -- assumption of classical behavior for rotation
           may cause significant error
 Rotational temperatures (Kelvin)      0.10335     0.08504     0.04873
 Rotational constants (GHZ):           2.15346     1.77195     1.01536
 Zero-point vibrational energy     419240.4 (Joules/Mol)
                                  100.20086 (Kcal/Mol)
 Warning -- explicit consideration of  12 degrees of freedom as
           vibrations may cause significant error
 Vibrational temperatures:    143.33   204.15   330.77   375.82   402.94
          (Kelvin)            485.59   508.56   601.20   649.83   678.71
                              736.25   819.24   933.58  1032.65  1128.89
                             1262.62  1277.99  1311.04  1353.54  1427.89
                             1472.48  1584.72  1591.43  1615.98  1654.00
                             1696.39  1736.17  1789.83  1842.04  1906.57
                             1916.40  1969.89  1991.79  2022.26  2034.07
                             2074.28  2108.41  2147.25  2163.40  2412.85
                             2539.18  4166.46  4295.30  4337.88  4360.27
                             4390.62  4449.80  4506.21  4535.96  4592.89
                             5276.54

 Zero-point correction=                           0.159680 (Hartree/Particle)
 Thermal correction to Energy=                    0.168102
 Thermal correction to Enthalpy=                  0.169046
 Thermal correction to Gibbs Free Energy=         0.126935
 Sum of electronic and zero-point Energies=           -423.071832
 Sum of electronic and thermal Energies=              -423.063410
 Sum of electronic and thermal Enthalpies=            -423.062466
 Sum of electronic and thermal Free Energies=         -423.104578

                     E (Thermal)             CV                S
                      KCal/Mol        Cal/Mol-Kelvin    Cal/Mol-Kelvin
 Total                  105.486             32.693             88.631
 Electronic               0.000              0.000              0.000
 Translational            0.889              2.981             40.409
 Rotational               0.889              2.981             28.808
 Vibrational            103.708             26.732             19.415
 Vibration     1          0.604              1.949              3.462
 Vibration     2          0.615              1.911              2.778
 Vibration     3          0.652              1.795              1.880
 Vibration     4          0.669              1.744              1.654
 Vibration     5          0.680              1.710              1.533
 Vibration     6          0.718              1.601              1.224
 Vibration     7          0.730              1.568              1.151
 Vibration     8          0.781              1.431              0.899
 Vibration     9          0.810              1.357              0.791
 Vibration    10          0.829              1.313              0.733
 Vibration    11          0.867              1.224              0.629
 Vibration    12          0.925              1.097              0.505

 Normal termination of Gaussian 09 at Tue Jan 28 04:41:09 2020.
