 Gaussian 09, Revision D.01,
 Gaussian 09:  ES64L-G09RevD.01 24-Apr-2013

 -----------------------------
 # b3lyp 6-31G(2df,p) opt Freq
 -----------------------------

 -----
 titel
 -----
 Symbolic Z-matrix:
 Charge =  0 Multiplicity = 1

 SCF Done:  E(RB3LYP) =  -423.159231760     A.U. after   14 cycles
 Optimization completed.
    -- Stationary point found.
 Normal termination of Gaussian 09 at Mon Jan 27 16:31:51 2020.

 ----------------------------------------------------------------------
 #N Geom=AllCheck Guess=TCheck SCRF=Check GenChk RB3LYP/6-31G(2df,p) Fr
 eq
 ----------------------------------------------------------------------

 Structure from the checkpoint file:  "/scratch/puck/g09_add676d5-325d-4628-9e49-cf6c885b55cb/Gau-177558.chk"
 -----
 titel
 -----
 Charge =  0 Multiplicity = 1

                         Standard orientation:
 ---------------------------------------------------------------------
 Center     Atomic      Atomic             Coordinates (Angstroms)
 Number     Number       Type             X           Y           Z
 ---------------------------------------------------------------------
      1          6           0       -1.230835    1.874005   -0.497373
      2          6           0       -0.922339    0.489783    0.035208
      3          6           0       -0.385973    0.319638    1.458422
      4          6           0        0.525903    0.092906    0.317298
      5          6           0        1.790902    0.840918   -0.092430
      6          8           0        2.420356   -0.396944   -0.475188
      7          6           0        1.259001   -1.177890   -0.099190
      8          6           0       -1.794339   -0.613431   -0.448341
      9          8           0       -1.706168   -1.766041   -0.091335
     10          1           0       -2.240969    2.190684   -0.215361
     11          1           0       -0.532321    2.615532   -0.100569
     12          1           0       -1.162557    1.908173   -1.590533
     13          1           0       -0.272934    1.225416    2.046357
     14          1           0       -0.740776   -0.552791    1.997901
     15          1           0        1.693552    1.534484   -0.938407
     16          1           0        2.327080    1.345025    0.722933
     17          1           0        0.839722   -1.730216   -0.946211
     18          1           0        1.480294   -1.880167    0.713229
     19          1           0       -2.558515   -0.307835   -1.198712
 ---------------------------------------------------------------------

 SCF Done:  E(RB3LYP) =  -423.159231760     A.U. after    1 cycles

 The electronic state is 1-A.
 Alpha  occ. eigenvalues --  -19.14015 -19.13415 -10.27290 -10.23749 -10.23077
 Alpha  occ. eigenvalues --  -10.21663 -10.21576 -10.20327 -10.19781  -1.04778
 Alpha  occ. eigenvalues --   -1.03929  -0.88279  -0.74446  -0.69847  -0.68362
 Alpha  occ. eigenvalues --   -0.65299  -0.57265  -0.53481  -0.50808  -0.48698
 Alpha  occ. eigenvalues --   -0.47984  -0.45085  -0.43695  -0.42718  -0.41685
 Alpha  occ. eigenvalues --   -0.40228  -0.39186  -0.38275  -0.35587  -0.33332
 Alpha  occ. eigenvalues --   -0.30903  -0.27970  -0.25860  -0.24608
 Alpha virt. eigenvalues --   -0.03078   0.06938   0.09052   0.09784   0.10287
 Alpha virt. eigenvalues --    0.12550   0.13618   0.13968   0.15353   0.15737
 Alpha virt. eigenvalues --    0.16806   0.18082   0.19227   0.20220   0.23072

 Mulliken charges:
               1
     1  C   -0.490113
     2  C    0.169925
     3  C   -0.379060
     4  C    0.266479
     5  C   -0.140445
     6  O   -0.276800
     7  C   -0.132009
     8  C    0.098791
     9  O   -0.275334
    10  H    0.129496
    11  H    0.127548
    12  H    0.129411
    13  H    0.119573
    14  H    0.140261
    15  H    0.102531
    16  H    0.104758
    17  H    0.116100
    18  H    0.110981
    19  H    0.077907
 Sum of Mulliken charges =   0.00000

 Dipole moment (field-independent basis, Debye):
    X=             -1.0561    Y=              2.9280    Z=              0.4330  Tot=              3.1426
 Quadrupole moment (field-independent basis, Debye-Ang):
   XX=            -59.3372   YY=            -55.0079   ZZ=            -51.4577
   XY=             -2.4888   XZ=              2.8006   YZ=             -0.1690

  Exact polarizability:  81.213   1.293  80.386   5.141  -1.225  68.085
 Approx polarizability: 112.459   3.800 120.889   6.051  -2.196 103.620

                      1                      2                      3
                      A                      A                      A
 Frequencies --     92.7023               116.6746               152.1720
 Red. masses --      3.4377                 5.6847                 1.2983
 Frc consts  --      0.0174                 0.0456                 0.0177
 IR Inten    --      3.9130                 7.8735                 0.7463

                      4                      5                      6
                      A                      A                      A
 Frequencies --    159.6152               183.7094               231.3819
 Red. masses --      2.7508                 1.7136                 2.5923
 Frc consts  --      0.0413                 0.0341                 0.0818
 IR Inten    --      2.1160                 3.2816                 2.7197

                      7                      8                      9
                      A                      A                      A
 Frequencies --    287.0458               363.5025               403.2638
 Red. masses --      2.7854                 2.9937                 2.2564
 Frc consts  --      0.1352                 0.2331                 0.2162
 IR Inten    --      3.4034                 0.5281                 1.0906

                     10                     11                     12
                      A                      A                      A
 Frequencies --    432.0740               539.5744               606.7887
 Red. masses --      2.2548                 4.6642                 4.2764
 Frc consts  --      0.2480                 0.8001                 0.9277
 IR Inten    --      0.4139                 0.3484                 8.4734

                     13                     14                     15
                      A                      A                      A
 Frequencies --    728.6209               824.4451               879.6965
 Red. masses --      3.4846                 4.4138                 3.4652
 Frc consts  --      1.0899                 1.7676                 1.5800
 IR Inten    --      1.6132                16.6658                15.3972

                     16                     17                     18
                      A                      A                      A
 Frequencies --    894.1386               924.5117               955.2986
 Red. masses --      1.3624                 1.4302                 1.8302
 Frc consts  --      0.6417                 0.7202                 0.9841
 IR Inten    --      0.0920                27.5522                55.6987

                     19                     20                     21
                      A                      A                      A
 Frequencies --    984.5883               994.0016              1029.8374
 Red. masses --      1.9601                 2.3871                10.0193
 Frc consts  --      1.1195                 1.3896                 6.2608
 IR Inten    --      2.5162                 8.8162                77.2190

                     22                     23                     24
                      A                      A                      A
 Frequencies --   1035.0870              1071.7859              1115.1161
 Red. masses --      1.5148                 1.2897                 1.8754
 Frc consts  --      0.9562                 0.8729                 1.3740
 IR Inten    --      2.6736                 1.5743                 1.3464

                     25                     26                     27
                      A                      A                      A
 Frequencies --   1116.0872              1150.2191              1158.5561
 Red. masses --      1.8207                 1.0971                 1.2210
 Frc consts  --      1.3362                 0.8552                 0.9656
 IR Inten    --      3.7093                 0.3477                 1.2776

                     28                     29                     30
                      A                      A                      A
 Frequencies --   1195.7896              1203.1769              1283.8189
 Red. masses --      3.6344                 2.9164                 2.4377
 Frc consts  --      3.0619                 2.4875                 2.3672
 IR Inten    --     31.1725                17.4218                 1.8945

                     31                     32                     33
                      A                      A                      A
 Frequencies --   1310.5839              1349.8535              1414.9536
 Red. masses --      1.3861                 1.5161                 1.3449
 Frc consts  --      1.4027                 1.6276                 1.5865
 IR Inten    --      0.5435                23.4458                 2.1045

                     34                     35                     36
                      A                      A                      A
 Frequencies --   1428.4676              1433.4911              1481.0022
 Red. masses --      1.5257                 1.2426                 1.9156
 Frc consts  --      1.8342                 1.5045                 2.4755
 IR Inten    --      6.3503                 3.6911                 7.3663

                     37                     38                     39
                      A                      A                      A
 Frequencies --   1490.7378              1500.5773              1508.1813
 Red. masses --      1.0463                 1.1265                 1.0839
 Frc consts  --      1.3700                 1.4945                 1.4526
 IR Inten    --      3.4736                16.3210                 2.8926

                     40                     41                     42
                      A                      A                      A
 Frequencies --   1532.3673              1798.2237              2873.6799
 Red. masses --      1.1097                10.1309                 1.0828
 Frc consts  --      1.5353                19.3012                 5.2682
 IR Inten    --      0.9679               128.0130               128.4380

                     43                     44                     45
                      A                      A                      A
 Frequencies --   2998.3931              3029.8571              3031.0856
 Red. masses --      1.0536                 1.0561                 1.0407
 Frc consts  --      5.5810                 5.7119                 5.6333
 IR Inten    --     77.4905                46.8093                 5.6810

                     46                     47                     48
                      A                      A                      A
 Frequencies --   3038.3308              3078.6121              3091.0754
 Red. masses --      1.1089                 1.1084                 1.1014
 Frc consts  --      6.0315                 6.1897                 6.2004
 IR Inten    --     47.2186                28.4525                18.6287

                     49                     50                     51
                      A                      A                      A
 Frequencies --   3112.2912              3122.4383              3217.0641
 Red. masses --      1.0987                 1.0542                 1.1174
 Frc consts  --      6.2701                 6.0555                 6.8134
 IR Inten    --     12.8933                10.6561                 1.7620

 - Thermochemistry -
 -------------------
 Temperature   298.150 Kelvin.  Pressure   1.00000 Atm.
 Atom     1 has atomic number  6 and mass  12.00000

 Molecular mass:   126.06808 amu.
 Principal axes and moments of inertia in atomic units:
                           1         2         3
     Eigenvalues --   739.495941237.493511611.92222
           X            0.99892  -0.04366   0.01581
           Y            0.04399   0.99881  -0.02116
           Z           -0.01487   0.02183   0.99965
 This molecule is an asymmetric top.
 Rotational symmetry number  1.
 Warning -- assumption of classical behavior for rotation
           may cause significant error
 Rotational temperatures (Kelvin)      0.11713     0.06999     0.05373
 Rotational constants (GHZ):           2.44050     1.45838     1.11962
 Zero-point vibrational energy     412439.8 (Joules/Mol)
                                   98.57547 (Kcal/Mol)
 Warning -- explicit consideration of  12 degrees of freedom as
           vibrations may cause significant error
 Vibrational temperatures:    133.38   167.87   218.94   229.65   264.32
          (Kelvin)            332.91   412.99   523.00   580.21   621.66
                              776.33   873.03  1048.32  1186.19  1265.69
                             1286.46  1330.16  1374.46  1416.60  1430.14
                             1481.70  1489.26  1542.06  1604.40  1605.80
                             1654.91  1666.90  1720.47  1731.10  1847.13
                             1885.64  1942.14  2035.80  2055.24  2062.47
                             2130.83  2144.84  2158.99  2169.93  2204.73
                             2587.24  4134.58  4314.01  4359.28  4361.05
                             4371.47  4429.43  4447.36  4477.89  4492.49
                             4628.63

 Zero-point correction=                           0.157090 (Hartree/Particle)
 Thermal correction to Energy=                    0.166210
 Thermal correction to Enthalpy=                  0.167154
 Thermal correction to Gibbs Free Energy=         0.123147
 Sum of electronic and zero-point Energies=           -423.002142
 Sum of electronic and thermal Energies=              -422.993022
 Sum of electronic and thermal Enthalpies=            -422.992078
 Sum of electronic and thermal Free Energies=         -423.036085

                     E (Thermal)             CV                S
                      KCal/Mol        Cal/Mol-Kelvin    Cal/Mol-Kelvin
 Total                  104.298             33.208             92.621
 Electronic               0.000              0.000              0.000
 Translational            0.889              2.981             40.409
 Rotational               0.889              2.981             28.780
 Vibrational            102.521             27.246             23.432
 Vibration     1          0.602              1.954              3.602
 Vibration     2          0.608              1.936              3.155
 Vibration     3          0.619              1.900              2.645
 Vibration     4          0.621              1.892              2.554
 Vibration     5          0.631              1.862              2.290
 Vibration     6          0.653              1.793              1.868
 Vibration     7          0.684              1.698              1.491
 Vibration     8          0.737              1.547              1.107
 Vibration     9          0.769              1.463              0.951
 Vibration    10          0.793              1.400              0.852
 Vibration    11          0.895              1.163              0.566
 Vibration    12          0.966              1.017              0.438

 Normal termination of Gaussian 09 at Mon Jan 27 17:14:50 2020.
