 Gaussian 09, Revision D.01,
 Gaussian 09:  ES64L-G09RevD.01 24-Apr-2013

 -----------------------------
 # b3lyp 6-31G(2df,p) opt Freq
 -----------------------------

 -----
 titel
 -----
 Symbolic Z-matrix:
 Charge =  0 Multiplicity = 1

 SCF Done:  E(RB3LYP) =  -423.163608294     A.U. after   14 cycles
 Optimization completed.
    -- Stationary point found.
 Normal termination of Gaussian 09 at Mon Jan 27 23:03:01 2020.

 ----------------------------------------------------------------------
 #N Geom=AllCheck Guess=TCheck SCRF=Check GenChk RB3LYP/6-31G(2df,p) Fr
 eq
 ----------------------------------------------------------------------

 Structure from the checkpoint file:  "/scratch/puck/g09_d33b8659-6de3-47e6-b6ef-77503815b5fe/Gau-102365.chk"
 -----
 titel
 -----
 Charge =  0 Multiplicity = 1

                         Standard orientation:
 ---------------------------------------------------------------------
 Center     Atomic      Atomic             Coordinates (Angstroms)
 Number     Number       Type             X           Y           Z
 ---------------------------------------------------------------------
      1          6           0       -0.470365    2.472806    0.598325
      2          6           0       -0.255370    1.285177   -0.329640
      3          6           0       -1.447916    0.325339   -0.469683
      4          8           0       -1.005820   -0.786454   -1.260593
      5          6           0       -0.709972   -0.791131    0.144596
      6          6           0       -1.122221   -1.973855    0.957672
      7          6           0        0.556394    0.092415    0.326638
      8          6           0        1.796558   -0.373855   -0.385119
      9          8           0        2.897737   -0.398864    0.108187
     10          1           0        0.475257    2.982675    0.806374
     11          1           0       -1.153601    3.200520    0.147330
     12          1           0       -0.900288    2.158579    1.555843
     13          1           0        0.136242    1.612148   -1.298138
     14          1           0       -2.508266    0.554426   -0.488563
     15          1           0       -0.448619   -2.820327    0.783648
     16          1           0       -1.096660   -1.738082    2.026121
     17          1           0       -2.135494   -2.283173    0.687997
     18          1           0        0.789487    0.295139    1.374759
     19          1           0        1.623958   -0.700735   -1.432850
 ---------------------------------------------------------------------

 SCF Done:  E(RB3LYP) =  -423.163608294     A.U. after    1 cycles

 The electronic state is 1-A.
 Alpha  occ. eigenvalues --  -19.15944 -19.13399 -10.26412 -10.25500 -10.24294
 Alpha  occ. eigenvalues --  -10.21075 -10.20142 -10.19596 -10.19116  -1.08702
 Alpha  occ. eigenvalues --   -1.03958  -0.83013  -0.76040  -0.72236  -0.67749
 Alpha  occ. eigenvalues --   -0.60598  -0.58439  -0.55373  -0.49800  -0.47992
 Alpha  occ. eigenvalues --   -0.46582  -0.44436  -0.43930  -0.42118  -0.40548
 Alpha  occ. eigenvalues --   -0.39883  -0.39222  -0.38754  -0.35954  -0.34690
 Alpha  occ. eigenvalues --   -0.33082  -0.30035  -0.26917  -0.23813
 Alpha virt. eigenvalues --   -0.02386   0.08014   0.09603   0.09884   0.11604
 Alpha virt. eigenvalues --    0.12528   0.12973   0.13818   0.14749   0.16115
 Alpha virt. eigenvalues --    0.16521   0.17116   0.17947   0.18295   0.20014

 Mulliken charges:
               1
     1  C   -0.413879
     2  C   -0.027502
     3  C   -0.047883
     4  O   -0.286501
     5  C    0.392268
     6  C   -0.502057
     7  C   -0.165907
     8  C    0.149389
     9  O   -0.262937
    10  H    0.133126
    11  H    0.122892
    12  H    0.119538
    13  H    0.091007
    14  H    0.105994
    15  H    0.138861
    16  H    0.130561
    17  H    0.138681
    18  H    0.091425
    19  H    0.092923
 Sum of Mulliken charges =   0.00000

 Dipole moment (field-independent basis, Debye):
    X=             -2.9705    Y=              1.0400    Z=              1.0816  Tot=              3.3279
 Quadrupole moment (field-independent basis, Debye-Ang):
   XX=            -61.7240   YY=            -50.1543   ZZ=            -54.1599
   XY=              0.4280   XZ=             -3.0372   YZ=             -2.2931

  Exact polarizability:  82.938  -2.633  80.069   2.261  -1.313  66.707
 Approx polarizability: 122.881  -6.051 107.894  10.017  -0.281 106.842

                      1                      2                      3
                      A                      A                      A
 Frequencies --     62.7031               105.2546               180.9549
 Red. masses --      4.9554                 3.2029                 1.6144
 Frc consts  --      0.0115                 0.0209                 0.0311
 IR Inten    --      4.7190                 1.7704                 1.5109

                      4                      5                      6
                      A                      A                      A
 Frequencies --    192.3444               216.8267               234.1975
 Red. masses --      1.6189                 2.2784                 1.1176
 Frc consts  --      0.0353                 0.0631                 0.0361
 IR Inten    --      1.4834                 1.7167                 0.0365

                      7                      8                      9
                      A                      A                      A
 Frequencies --    271.1052               342.7676               367.7340
 Red. masses --      2.5644                 2.4478                 2.8395
 Frc consts  --      0.1110                 0.1694                 0.2262
 IR Inten    --      0.4744                 1.5856                 3.3335

                     10                     11                     12
                      A                      A                      A
 Frequencies --    459.8470               501.4088               542.0321
 Red. masses --      5.3249                 3.8841                 4.5021
 Frc consts  --      0.6634                 0.5753                 0.7793
 IR Inten    --     11.3837                 4.9535                 8.5707

                     13                     14                     15
                      A                      A                      A
 Frequencies --    618.3319               747.4163               805.5765
 Red. masses --      3.6930                 3.8212                 3.1444
 Frc consts  --      0.8319                 1.2577                 1.2023
 IR Inten    --      3.5622                 5.0540                 7.6113

                     16                     17                     18
                      A                      A                      A
 Frequencies --    863.2614               893.1901               923.4862
 Red. masses --      2.4049                 2.1578                 1.9673
 Frc consts  --      1.0559                 1.0142                 0.9885
 IR Inten    --     10.1930                 7.9251                 8.7965

                     19                     20                     21
                      A                      A                      A
 Frequencies --    985.7066              1012.1820              1022.6405
 Red. masses --      1.4116                 1.4561                 2.8301
 Frc consts  --      0.8081                 0.8789                 1.7438
 IR Inten    --      1.1573                 7.5487                13.4357

                     22                     23                     24
                      A                      A                      A
 Frequencies --   1063.8576              1082.7827              1101.8954
 Red. masses --      1.9129                 2.4717                 1.8414
 Frc consts  --      1.2756                 1.7074                 1.3173
 IR Inten    --     15.6836                14.4063                 9.4805

                     25                     26                     27
                      A                      A                      A
 Frequencies --   1125.3649              1149.9358              1184.7341
 Red. masses --      1.8681                 2.7089                 1.6586
 Frc consts  --      1.3939                 2.1105                 1.3716
 IR Inten    --      0.2012                27.9849                 7.1968

                     28                     29                     30
                      A                      A                      A
 Frequencies --   1218.6340              1238.4832              1260.7039
 Red. masses --      1.5216                 1.6054                 1.4478
 Frc consts  --      1.3314                 1.4509                 1.3557
 IR Inten    --      5.1575                20.2883                 7.6011

                     31                     32                     33
                      A                      A                      A
 Frequencies --   1289.4723              1356.0874              1404.6290
 Red. masses --      1.6105                 1.6845                 1.2946
 Frc consts  --      1.5778                 1.8251                 1.5049
 IR Inten    --      7.9440                 4.6705                 1.6285

                     34                     35                     36
                      A                      A                      A
 Frequencies --   1411.9836              1419.5963              1465.5741
 Red. masses --      1.2406                 1.2298                 2.2723
 Frc consts  --      1.4573                 1.4602                 2.8757
 IR Inten    --      2.8978                 1.8476                15.3857

                     37                     38                     39
                      A                      A                      A
 Frequencies --   1481.8260              1493.5645              1495.9281
 Red. masses --      1.1325                 1.1794                 1.0915
 Frc consts  --      1.4651                 1.5501                 1.4391
 IR Inten    --      9.3805                 0.2502                 6.5157

                     40                     41                     42
                      A                      A                      A
 Frequencies --   1498.4935              1816.8733              2908.1758
 Red. masses --      1.0849                 9.9326                 1.0832
 Frc consts  --      1.4354                19.3180                 5.3974
 IR Inten    --      6.8310               197.0850                62.2140

                     43                     44                     45
                      A                      A                      A
 Frequencies --   3030.5052              3036.7116              3057.0487
 Red. masses --      1.0354                 1.0361                 1.0853
 Frc consts  --      5.6024                 5.6292                 5.9759
 IR Inten    --     21.8178                16.8407                13.2445

                     46                     47                     48
                      A                      A                      A
 Frequencies --   3090.2692              3098.5404              3101.0481
 Red. masses --      1.0883                 1.0991                 1.0993
 Frc consts  --      6.1233                 6.2173                 6.2287
 IR Inten    --      4.4309                32.2739                17.2107

                     49                     50                     51
                      A                      A                      A
 Frequencies --   3107.4864              3123.4377              3176.1037
 Red. masses --      1.1013                 1.1014                 1.0939
 Frc consts  --      6.2656                 6.3310                 6.5015
 IR Inten    --     17.4085                11.1709                17.1238

 - Thermochemistry -
 -------------------
 Temperature   298.150 Kelvin.  Pressure   1.00000 Atm.
 Atom     1 has atomic number  6 and mass  12.00000

 Molecular mass:   126.06808 amu.
 Principal axes and moments of inertia in atomic units:
                           1         2         3
     Eigenvalues --   959.812691152.870781669.04672
           X            0.99921   0.02833  -0.02803
           Y           -0.02871   0.99950  -0.01341
           Z            0.02763   0.01421   0.99952
 This molecule is an asymmetric top.
 Rotational symmetry number  1.
 Warning -- assumption of classical behavior for rotation
           may cause significant error
 Rotational temperatures (Kelvin)      0.09024     0.07513     0.05189
 Rotational constants (GHZ):           1.88031     1.56543     1.08130
 Zero-point vibrational energy     410550.7 (Joules/Mol)
                                   98.12397 (Kcal/Mol)
 Warning -- explicit consideration of  13 degrees of freedom as
           vibrations may cause significant error
 Vibrational temperatures:     90.22   151.44   260.35   276.74   311.96
          (Kelvin)            336.96   390.06   493.17   529.09   661.62
                              721.41   779.86   889.64  1075.36  1159.04
                             1242.04  1285.10  1328.69  1418.21  1456.30
                             1471.35  1530.65  1557.88  1585.38  1619.15
                             1654.50  1704.57  1753.34  1781.90  1813.87
                             1855.26  1951.10  2020.95  2031.53  2042.48
                             2108.63  2132.01  2148.90  2152.30  2156.00
                             2614.07  4184.21  4360.22  4369.15  4398.41
                             4446.20  4458.10  4461.71  4470.97  4493.92
                             4569.70

 Zero-point correction=                           0.156370 (Hartree/Particle)
 Thermal correction to Energy=                    0.165636
 Thermal correction to Enthalpy=                  0.166580
 Thermal correction to Gibbs Free Energy=         0.122128
 Sum of electronic and zero-point Energies=           -423.007238
 Sum of electronic and thermal Energies=              -422.997972
 Sum of electronic and thermal Enthalpies=            -422.997028
 Sum of electronic and thermal Free Energies=         -423.041481

                     E (Thermal)             CV                S
                      KCal/Mol        Cal/Mol-Kelvin    Cal/Mol-Kelvin
 Total                  103.938             33.954             93.559
 Electronic               0.000              0.000              0.000
 Translational            0.889              2.981             40.409
 Rotational               0.889              2.981             29.003
 Vibrational            102.161             27.993             24.147
 Vibration     1          0.597              1.972              4.370
 Vibration     2          0.605              1.945              3.355
 Vibration     3          0.630              1.866              2.319
 Vibration     4          0.634              1.850              2.205
 Vibration     5          0.646              1.815              1.985
 Vibration     6          0.654              1.789              1.847
 Vibration     7          0.675              1.726              1.589
 Vibration     8          0.722              1.590              1.199
 Vibration     9          0.740              1.539              1.089
 Vibration    10          0.818              1.339              0.767
 Vibration    11          0.857              1.247              0.655
 Vibration    12          0.897              1.157              0.561
 Vibration    13          0.978              0.993              0.419

 Normal termination of Gaussian 09 at Mon Jan 27 23:44:41 2020.
