 Gaussian 09, Revision D.01,
 Gaussian 09:  ES64L-G09RevD.01 24-Apr-2013

 -----------------------------
 # b3lyp 6-31G(2df,p) opt Freq
 -----------------------------

 -----
 titel
 -----
 Symbolic Z-matrix:
 Charge =  0 Multiplicity = 1

 SCF Done:  E(RB3LYP) =  -423.162319606     A.U. after   14 cycles
 Optimization completed.
    -- Stationary point found.
 Normal termination of Gaussian 09 at Tue Jan 28 13:45:23 2020.

 ----------------------------------------------------------------------
 #N Geom=AllCheck Guess=TCheck SCRF=Check GenChk RB3LYP/6-31G(2df,p) Fr
 eq
 ----------------------------------------------------------------------

 Structure from the checkpoint file:  "/scratch/puck/g09_1e925390-7c8c-4f3a-8256-89839c7ebced/Gau-145977.chk"
 -----
 titel
 -----
 Charge =  0 Multiplicity = 1

                         Standard orientation:
 ---------------------------------------------------------------------
 Center     Atomic      Atomic             Coordinates (Angstroms)
 Number     Number       Type             X           Y           Z
 ---------------------------------------------------------------------
      1          8           0       -2.114868   -1.642631    0.179013
      2          6           0       -2.073887   -0.224413    0.180073
      3          6           0       -0.869567    0.307984   -0.586592
      4          6           0       -0.541064    1.837080   -0.525675
      5          6           0        0.864521    1.513299   -0.007659
      6          6           0        0.818839    0.739019    1.255682
      7          6           0        0.526976   -0.017180   -0.024365
      8          6           0        1.438761   -1.061993   -0.513115
      9          8           0        2.552274   -1.265668   -0.082425
     10          1           0       -1.372043   -1.956468    0.705250
     11          1           0       -2.999976    0.107004   -0.302532
     12          1           0       -2.086206    0.175259    1.206301
     13          1           0       -0.938827   -0.032165   -1.624904
     14          1           0       -0.550943    2.311491   -1.508014
     15          1           0       -1.154999    2.435157    0.156603
     16          1           0        1.787653    1.942586   -0.376869
     17          1           0        1.779912    0.482476    1.687641
     18          1           0        0.016982    0.903133    1.970682
     19          1           0        1.031723   -1.664855   -1.356950
 ---------------------------------------------------------------------

 SCF Done:  E(RB3LYP) =  -423.162319606     A.U. after    1 cycles

 The electronic state is 1-A.
 Alpha  occ. eigenvalues --  -19.14119 -19.13052 -10.26687 -10.23275 -10.21927
 Alpha  occ. eigenvalues --  -10.20974 -10.20544 -10.20404 -10.20230  -1.03763
 Alpha  occ. eigenvalues --   -1.02206  -0.91403  -0.76422  -0.70829  -0.68016
 Alpha  occ. eigenvalues --   -0.60828  -0.58709  -0.53895  -0.52159  -0.50869
 Alpha  occ. eigenvalues --   -0.46644  -0.45366  -0.43436  -0.42968  -0.40606
 Alpha  occ. eigenvalues --   -0.39572  -0.38126  -0.37238  -0.35042  -0.32838
 Alpha  occ. eigenvalues --   -0.30730  -0.28752  -0.25990  -0.24796
 Alpha virt. eigenvalues --   -0.03075   0.06951   0.08707   0.10077   0.11552
 Alpha virt. eigenvalues --    0.11865   0.12631   0.13393   0.15516   0.15976
 Alpha virt. eigenvalues --    0.17232   0.17787   0.19046   0.20895   0.22039

 Mulliken charges:
               1
     1  O   -0.418500
     2  C   -0.088290
     3  C   -0.073891
     4  C   -0.268848
     5  C   -0.069137
     6  C   -0.330488
     7  C    0.225198
     8  C    0.048554
     9  O   -0.276109
    10  H    0.288186
    11  H    0.113021
    12  H    0.086473
    13  H    0.088639
    14  H    0.115862
    15  H    0.105744
    16  H    0.114648
    17  H    0.148356
    18  H    0.116642
    19  H    0.073941
 Sum of Mulliken charges =   0.00000

 Dipole moment (field-independent basis, Debye):
    X=             -1.3556    Y=              2.3503    Z=              0.0827  Tot=              2.7145
 Quadrupole moment (field-independent basis, Debye-Ang):
   XX=            -64.3469   YY=            -54.6133   ZZ=            -50.2934
   XY=              0.5402   XZ=             -0.7275   YZ=             -1.4131

  Exact polarizability:  82.778  -5.982  80.346   3.354   2.756  67.832
 Approx polarizability: 120.257 -10.987 122.450   7.465   4.464 104.423

                      1                      2                      3
                      A                      A                      A
 Frequencies --     75.6843                92.1673               147.8515
 Red. masses --      5.3959                 4.0250                 2.8245
 Frc consts  --      0.0182                 0.0201                 0.0364
 IR Inten    --      4.6482                 0.2583                10.0656

                      4                      5                      6
                      A                      A                      A
 Frequencies --    211.0782               214.4747               262.0745
 Red. masses --      2.0664                 3.9699                 2.6156
 Frc consts  --      0.0542                 0.1076                 0.1058
 IR Inten    --      1.0778                 7.5937                 1.5356

                      7                      8                      9
                      A                      A                      A
 Frequencies --    317.9366               398.1607               398.5570
 Red. masses --      1.1155                 2.1395                 4.6850
 Frc consts  --      0.0664                 0.1998                 0.4385
 IR Inten    --    103.7657                 1.7030                12.3287

                     10                     11                     12
                      A                      A                      A
 Frequencies --    443.6096               581.9725               677.8789
 Red. masses --      2.9514                 2.8598                 3.9429
 Frc consts  --      0.3422                 0.5707                 1.0675
 IR Inten    --      0.8935                 7.1768                 6.4450

                     13                     14                     15
                      A                      A                      A
 Frequencies --    731.3507               766.0310               832.3561
 Red. masses --      3.4854                 4.7116                 1.5847
 Frc consts  --      1.0984                 1.6290                 0.6468
 IR Inten    --      6.6867                12.3787                 1.2485

                     16                     17                     18
                      A                      A                      A
 Frequencies --    887.5765               921.2721               938.6879
 Red. masses --      2.0174                 1.3792                 1.5173
 Frc consts  --      0.9364                 0.6897                 0.7877
 IR Inten    --     12.9430                17.9674                14.6065

                     19                     20                     21
                      A                      A                      A
 Frequencies --    997.2045              1010.4836              1035.6947
 Red. masses --      2.0778                 1.4438                 2.2354
 Frc consts  --      1.2174                 0.8686                 1.4128
 IR Inten    --      8.4275                 3.9050                13.4904

                     22                     23                     24
                      A                      A                      A
 Frequencies --   1058.7815              1064.4087              1082.7334
 Red. masses --      1.6028                 2.5845                 1.4245
 Frc consts  --      1.0586                 1.7252                 0.9839
 IR Inten    --     14.5040               105.3409                 8.7130

                     25                     26                     27
                      A                      A                      A
 Frequencies --   1093.6864              1122.8579              1165.6498
 Red. masses --      2.3212                 2.0957                 1.4790
 Frc consts  --      1.6358                 1.5568                 1.1840
 IR Inten    --     17.1428                10.2085                33.2678

                     28                     29                     30
                      A                      A                      A
 Frequencies --   1186.3062              1223.4898              1257.0345
 Red. masses --      1.3267                 1.9794                 1.4663
 Frc consts  --      1.1001                 1.7458                 1.3651
 IR Inten    --      5.6969                 5.1801                 6.6312

                     31                     32                     33
                      A                      A                      A
 Frequencies --   1277.1770              1283.2255              1346.5412
 Red. masses --      1.7816                 1.4801                 1.7297
 Frc consts  --      1.7123                 1.4360                 1.8479
 IR Inten    --     10.6684                 0.7264                 1.4665

                     34                     35                     36
                      A                      A                      A
 Frequencies --   1380.1176              1399.2919              1416.8519
 Red. masses --      1.6275                 1.3220                 1.3395
 Frc consts  --      1.8264                 1.5251                 1.5843
 IR Inten    --     23.1762                18.7931                36.4707

                     37                     38                     39
                      A                      A                      A
 Frequencies --   1428.5973              1472.1642              1491.4811
 Red. masses --      1.4294                 1.2368                 1.1435
 Frc consts  --      1.7188                 1.5792                 1.4987
 IR Inten    --     14.5218                10.3180                 1.2984

                     40                     41                     42
                      A                      A                      A
 Frequencies --   1507.6548              1789.8510              2868.6458
 Red. masses --      1.0943                10.0907                 1.0818
 Frc consts  --      1.4654                19.0461                 5.2451
 IR Inten    --      1.9441               209.4464               109.2856

                     43                     44                     45
                      A                      A                      A
 Frequencies --   2981.5440              3046.7245              3054.8198
 Red. masses --      1.0694                 1.0657                 1.0837
 Frc consts  --      5.6009                 5.8282                 5.9586
 IR Inten    --     39.5472                36.5790                16.7136

                     46                     47                     48
                      A                      A                      A
 Frequencies --   3071.2074              3118.4238              3119.6778
 Red. masses --      1.0940                 1.0725                 1.0839
 Frc consts  --      6.0799                 6.1450                 6.2155
 IR Inten    --     38.8883                 2.8483                31.0860

                     49                     50                     51
                      A                      A                      A
 Frequencies --   3195.1540              3221.0729              3812.3954
 Red. masses --      1.0931                 1.1123                 1.0661
 Frc consts  --      6.5753                 6.7996                 9.1296
 IR Inten    --      7.6688                 2.5921                13.4386

 - Thermochemistry -
 -------------------
 Temperature   298.150 Kelvin.  Pressure   1.00000 Atm.
 Atom     1 has atomic number  8 and mass  15.99491

 Molecular mass:   126.06808 amu.
 Principal axes and moments of inertia in atomic units:
                           1         2         3
     Eigenvalues --   813.122051273.813651755.82044
           X            0.99999   0.00313   0.00203
           Y           -0.00313   0.99999  -0.00082
           Z           -0.00203   0.00081   1.00000
 This molecule is an asymmetric top.
 Rotational symmetry number  1.
 Warning -- assumption of classical behavior for rotation
           may cause significant error
 Rotational temperatures (Kelvin)      0.10652     0.06800     0.04933
 Rotational constants (GHZ):           2.21952     1.41680     1.02786
 Zero-point vibrational energy     415580.7 (Joules/Mol)
                                   99.32617 (Kcal/Mol)
 Warning -- explicit consideration of  11 degrees of freedom as
           vibrations may cause significant error
 Vibrational temperatures:    108.89   132.61   212.73   303.69   308.58
          (Kelvin)            377.07   457.44   572.86   573.43   638.25
                              837.33   975.32  1052.25  1102.15  1197.57
                             1277.02  1325.50  1350.56  1434.75  1453.86
                             1490.13  1523.35  1531.44  1557.81  1573.57
                             1615.54  1677.11  1706.83  1760.33  1808.59
                             1837.57  1846.27  1937.37  1985.68  2013.27
                             2038.53  2055.43  2118.11  2145.91  2169.18
                             2575.19  4127.34  4289.77  4383.55  4395.20
                             4418.78  4486.71  4488.51  4597.11  4634.40
                             5485.18

 Zero-point correction=                           0.158286 (Hartree/Particle)
 Thermal correction to Energy=                    0.167226
 Thermal correction to Enthalpy=                  0.168170
 Thermal correction to Gibbs Free Energy=         0.124304
 Sum of electronic and zero-point Energies=           -423.004033
 Sum of electronic and thermal Energies=              -422.995094
 Sum of electronic and thermal Enthalpies=            -422.994150
 Sum of electronic and thermal Free Energies=         -423.038015

                     E (Thermal)             CV                S
                      KCal/Mol        Cal/Mol-Kelvin    Cal/Mol-Kelvin
 Total                  104.936             33.069             92.323
 Electronic               0.000              0.000              0.000
 Translational            0.889              2.981             40.409
 Rotational               0.889              2.981             28.988
 Vibrational            103.158             27.108             22.927
 Vibration     1          0.599              1.965              4.000
 Vibration     2          0.602              1.955              3.614
 Vibration     3          0.617              1.905              2.700
 Vibration     4          0.643              1.824              2.034
 Vibration     5          0.644              1.819              2.005
 Vibration     6          0.669              1.742              1.648
 Vibration     7          0.704              1.639              1.321
 Vibration     8          0.764              1.474              0.969
 Vibration     9          0.765              1.473              0.968
 Vibration    10          0.803              1.375              0.815
 Vibration    11          0.939              1.070              0.482

 Normal termination of Gaussian 09 at Tue Jan 28 14:27:51 2020.
