 Gaussian 09, Revision D.01,
 Gaussian 09:  ES64L-G09RevD.01 24-Apr-2013

 -----------------------------
 # b3lyp 6-31G(2df,p) opt Freq
 -----------------------------

 -----
 titel
 -----
 Symbolic Z-matrix:
 Charge =  0 Multiplicity = 1

 SCF Done:  E(RB3LYP) =  -423.213523612     A.U. after   14 cycles
 Optimization completed.
    -- Stationary point found.
 Normal termination of Gaussian 09 at Mon Jan 27 16:24:39 2020.

 ----------------------------------------------------------------------
 #N Geom=AllCheck Guess=TCheck SCRF=Check GenChk RB3LYP/6-31G(2df,p) Fr
 eq
 ----------------------------------------------------------------------

 Structure from the checkpoint file:  "/scratch/puck/g09_586bc976-b07b-4695-b67b-058f603cc37d/Gau-177081.chk"
 -----
 titel
 -----
 Charge =  0 Multiplicity = 1

                         Standard orientation:
 ---------------------------------------------------------------------
 Center     Atomic      Atomic             Coordinates (Angstroms)
 Number     Number       Type             X           Y           Z
 ---------------------------------------------------------------------
      1          6           0       -0.984612   -1.336886    1.255993
      2          6           0       -0.722241   -0.576332   -0.046270
      3          8           0       -0.717890   -1.576671   -1.066075
      4          6           0       -1.769165    0.549675   -0.304775
      5          6           0       -1.073596    1.880484    0.071831
      6          6           0        0.386937    1.525132    0.057471
      7          6           0        0.588522    0.202219   -0.001929
      8          6           0        1.909355   -0.455217   -0.014553
      9          8           0        2.968573    0.132614    0.028282
     10          1           0       -1.063943   -0.644572    2.098883
     11          1           0       -1.918234   -1.900908    1.171895
     12          1           0       -0.177172   -2.044876    1.463728
     13          1           0       -0.521400   -1.142951   -1.903899
     14          1           0       -2.015514    0.547435   -1.371935
     15          1           0       -2.701809    0.381578    0.238965
     16          1           0       -1.313509    2.703959   -0.610139
     17          1           0       -1.366644    2.226249    1.073103
     18          1           0        1.186938    2.255199    0.115892
     19          1           0        1.874624   -1.563106   -0.080757
 ---------------------------------------------------------------------

 SCF Done:  E(RB3LYP) =  -423.213523612     A.U. after    1 cycles

 The electronic state is 1-A.
 Alpha  occ. eigenvalues --  -19.14287 -19.13037 -10.26404 -10.24902 -10.20823
 Alpha  occ. eigenvalues --  -10.20250 -10.19204 -10.18991 -10.18067  -1.03548
 Alpha  occ. eigenvalues --   -1.02605  -0.85551  -0.75053  -0.74099  -0.66948
 Alpha  occ. eigenvalues --   -0.62262  -0.58233  -0.54401  -0.50559  -0.47821
 Alpha  occ. eigenvalues --   -0.46073  -0.44597  -0.41979  -0.41106  -0.39903
 Alpha  occ. eigenvalues --   -0.39320  -0.38755  -0.37002  -0.36483  -0.35155
 Alpha  occ. eigenvalues --   -0.32719  -0.28338  -0.26220  -0.24381
 Alpha virt. eigenvalues --   -0.06057   0.06069   0.07130   0.10287   0.10962
 Alpha virt. eigenvalues --    0.12346   0.14654   0.15093   0.15292   0.15815
 Alpha virt. eigenvalues --    0.18009   0.18302   0.19523   0.21023   0.22152

 Mulliken charges:
               1
     1  C   -0.411534
     2  C    0.292980
     3  O   -0.468539
     4  C   -0.271275
     5  C   -0.267923
     6  C   -0.145304
     7  C    0.165314
     8  C    0.067771
     9  O   -0.269567
    10  H    0.117685
    11  H    0.127581
    12  H    0.125421
    13  H    0.274576
    14  H    0.101161
    15  H    0.107790
    16  H    0.117394
    17  H    0.125082
    18  H    0.128527
    19  H    0.082860
 Sum of Mulliken charges =   0.00000

 Dipole moment (field-independent basis, Debye):
    X=             -2.9105    Y=              1.2750    Z=             -0.2159  Tot=              3.1848
 Quadrupole moment (field-independent basis, Debye-Ang):
   XX=            -63.3271   YY=            -53.0749   ZZ=            -49.6793
   XY=             -3.3230   XZ=             -0.7592   YZ=             -0.9985

  Exact polarizability:  87.823  -5.700  88.626  -0.689   0.053  60.543
 Approx polarizability: 128.508  -9.421 138.509  -1.048   3.640  91.691

                      1                      2                      3
                      A                      A                      A
 Frequencies --     75.4502               111.5847               173.0586
 Red. masses --      2.6213                 3.4292                 4.8821
 Frc consts  --      0.0088                 0.0252                 0.0861
 IR Inten    --      0.4172                 7.2613                 3.7417

                      4                      5                      6
                      A                      A                      A
 Frequencies --    211.3400               244.9059               253.6616
 Red. masses --      2.2375                 1.1819                 1.8807
 Frc consts  --      0.0589                 0.0418                 0.0713
 IR Inten    --      4.2936                 2.5566                 0.3102

                      7                      8                      9
                      A                      A                      A
 Frequencies --    336.3633               342.4731               370.0366
 Red. masses --      2.4279                 2.7867                 1.2899
 Frc consts  --      0.1618                 0.1926                 0.1041
 IR Inten    --      0.7000                16.9204                66.3196

                     10                     11                     12
                      A                      A                      A
 Frequencies --    390.8677               535.0547               587.1663
 Red. masses --      3.1995                 3.9434                 3.7057
 Frc consts  --      0.2880                 0.6651                 0.7527
 IR Inten    --      7.4258                 3.6299                 3.3393

                     13                     14                     15
                      A                      A                      A
 Frequencies --    598.8392               699.2391               780.6327
 Red. masses --      4.0282                 2.6248                 2.2903
 Frc consts  --      0.8511                 0.7561                 0.8223
 IR Inten    --     13.3552                13.0768                21.9761

                     16                     17                     18
                      A                      A                      A
 Frequencies --    818.9777               884.8510               919.3344
 Red. masses --      2.9164                 1.2583                 2.1264
 Frc consts  --      1.1525                 0.5805                 1.0589
 IR Inten    --     19.0270                 9.9989                 5.0024

                     19                     20                     21
                      A                      A                      A
 Frequencies --    930.1948               960.1089               979.0008
 Red. masses --      2.3104                 1.8658                 1.8621
 Frc consts  --      1.1778                 1.0134                 1.0515
 IR Inten    --      4.0574                23.3683                12.8475

                     22                     23                     24
                      A                      A                      A
 Frequencies --   1018.0287              1045.0087              1082.5394
 Red. masses --      1.8288                 1.8552                 1.9203
 Frc consts  --      1.1167                 1.1936                 1.3259
 IR Inten    --      7.2140                 0.0644                23.0811

                     25                     26                     27
                      A                      A                      A
 Frequencies --   1108.4850              1145.6055              1201.9818
 Red. masses --      2.5962                 1.4149                 2.0221
 Frc consts  --      1.8795                 1.0941                 1.7212
 IR Inten    --     33.5602                 1.0061                51.5987

                     28                     29                     30
                      A                      A                      A
 Frequencies --   1221.7188              1235.0721              1281.5987
 Red. masses --      1.8143                 1.5473                 1.7846
 Frc consts  --      1.5955                 1.3906                 1.7270
 IR Inten    --     20.9222                17.7295                 7.5117

                     31                     32                     33
                      A                      A                      A
 Frequencies --   1316.2081              1335.3639              1377.2761
 Red. masses --      1.5986                 1.5772                 1.6430
 Frc consts  --      1.6317                 1.6570                 1.8363
 IR Inten    --      2.1970                 3.2197                66.8860

                     34                     35                     36
                      A                      A                      A
 Frequencies --   1410.1679              1438.2103              1474.0797
 Red. masses --      1.3384                 1.3020                 1.0823
 Frc consts  --      1.5681                 1.5867                 1.3856
 IR Inten    --     11.4850                 4.3112                 6.4106

                     37                     38                     39
                      A                      A                      A
 Frequencies --   1481.5605              1492.7840              1497.3588
 Red. masses --      1.0647                 1.0822                 1.0654
 Frc consts  --      1.3770                 1.4209                 1.4074
 IR Inten    --      3.8258                 4.0100                 1.1626

                     40                     41                     42
                      A                      A                      A
 Frequencies --   1671.5642              1787.0870              2910.2906
 Red. masses --      8.0530                 9.4131                 1.0822
 Frc consts  --     13.2573                17.7122                 5.4005
 IR Inten    --    138.3800               137.6354                94.2650

                     43                     44                     45
                      A                      A                      A
 Frequencies --   3015.4599              3041.6329              3047.2344
 Red. masses --      1.0681                 1.0349                 1.0709
 Frc consts  --      5.7223                 5.6413                 5.8588
 IR Inten    --     19.0076                14.0694                15.1098

                     46                     47                     48
                      A                      A                      A
 Frequencies --   3061.6333              3104.1193              3117.4102
 Red. masses --      1.0849                 1.1017                 1.1019
 Frc consts  --      5.9919                 6.2543                 6.3094
 IR Inten    --     29.0795                20.9965                21.3489

                     49                     50                     51
                      A                      A                      A
 Frequencies --   3121.3686              3202.3697              3799.6548
 Red. masses --      1.1023                 1.0934                 1.0660
 Frc consts  --      6.3276                 6.6063                 9.0680
 IR Inten    --     18.3730                 3.0477                12.1022

 - Thermochemistry -
 -------------------
 Temperature   298.150 Kelvin.  Pressure   1.00000 Atm.
 Atom     1 has atomic number  6 and mass  12.00000

 Molecular mass:   126.06808 amu.
 Principal axes and moments of inertia in atomic units:
                           1         2         3
     Eigenvalues --   806.157141236.793111662.08338
           X            0.99946  -0.03138  -0.00961
           Y            0.03105   0.99900  -0.03224
           Z            0.01061   0.03193   0.99943
 This molecule is an asymmetric top.
 Rotational symmetry number  1.
 Warning -- assumption of classical behavior for rotation
           may cause significant error
 Rotational temperatures (Kelvin)      0.10744     0.07003     0.05211
 Rotational constants (GHZ):           2.23870     1.45921     1.08583
 Zero-point vibrational energy     414183.1 (Joules/Mol)
                                   98.99215 (Kcal/Mol)
 Warning -- explicit consideration of  13 degrees of freedom as
           vibrations may cause significant error
 Vibrational temperatures:    108.56   160.55   248.99   304.07   352.36
          (Kelvin)            364.96   483.95   492.74   532.40   562.37
                              769.82   844.80   861.60  1006.05  1123.15
                             1178.32  1273.10  1322.72  1338.34  1381.38
                             1408.56  1464.71  1503.53  1557.53  1594.86
                             1648.27  1729.38  1757.78  1776.99  1843.93
                             1893.73  1921.29  1981.59  2028.91  2069.26
                             2120.87  2131.63  2147.78  2154.36  2405.00
                             2571.22  4187.25  4338.57  4376.23  4384.29
                             4405.00  4466.13  4485.25  4490.95  4607.49
                             5466.85

 Zero-point correction=                           0.157754 (Hartree/Particle)
 Thermal correction to Energy=                    0.166907
 Thermal correction to Enthalpy=                  0.167851
 Thermal correction to Gibbs Free Energy=         0.123926
 Sum of electronic and zero-point Energies=           -423.055770
 Sum of electronic and thermal Energies=              -423.046617
 Sum of electronic and thermal Enthalpies=            -423.045673
 Sum of electronic and thermal Free Energies=         -423.089598

                     E (Thermal)             CV                S
                      KCal/Mol        Cal/Mol-Kelvin    Cal/Mol-Kelvin
 Total                  104.735             34.189             92.448
 Electronic               0.000              0.000              0.000
 Translational            0.889              2.981             40.409
 Rotational               0.889              2.981             28.895
 Vibrational            102.958             28.227             23.144
 Vibration     1          0.599              1.965              4.006
 Vibration     2          0.607              1.940              3.241
 Vibration     3          0.627              1.876              2.402
 Vibration     4          0.643              1.824              2.032
 Vibration     5          0.660              1.771              1.767
 Vibration     6          0.665              1.757              1.705
 Vibration     7          0.717              1.603              1.229
 Vibration     8          0.722              1.591              1.201
 Vibration     9          0.742              1.534              1.080
 Vibration    10          0.759              1.490              0.997
 Vibration    11          0.890              1.172              0.576
 Vibration    12          0.944              1.059              0.472
 Vibration    13          0.957              1.034              0.452

 Optimization completed.
    -- Stationary point found.
 Normal termination of Gaussian 09 at Mon Jan 27 17:06:51 2020.
