 Gaussian 09, Revision D.01,
 Gaussian 09:  ES64L-G09RevD.01 24-Apr-2013

 -----------------------------
 # b3lyp 6-31G(2df,p) opt Freq
 -----------------------------

 -----
 titel
 -----
 Symbolic Z-matrix:
 Charge =  0 Multiplicity = 1

 SCF Done:  E(RB3LYP) =  -423.173656710     A.U. after   13 cycles
 Optimization completed.
    -- Stationary point found.
 Normal termination of Gaussian 09 at Mon Jan 27 11:18:56 2020.

 ----------------------------------------------------------------------
 #N Geom=AllCheck Guess=TCheck SCRF=Check GenChk RB3LYP/6-31G(2df,p) Fr
 eq
 ----------------------------------------------------------------------

 Structure from the checkpoint file:  "/scratch/puck/g09_390dbac5-b8ff-4e4d-aa24-dec68c55ef22/Gau-150278.chk"
 -----
 titel
 -----
 Charge =  0 Multiplicity = 1

                         Standard orientation:
 ---------------------------------------------------------------------
 Center     Atomic      Atomic             Coordinates (Angstroms)
 Number     Number       Type             X           Y           Z
 ---------------------------------------------------------------------
      1          6           0        2.084024    0.044217    0.080457
      2          6           0        1.031513   -1.022183   -0.017521
      3          6           0        1.038177    0.122016   -1.010203
      4          6           0       -0.254670    0.910149   -0.840490
      5          6           0       -0.415449    1.435417    0.583861
      6          8           0       -0.288738    0.344604    1.508279
      7          6           0       -0.231563   -0.912276    0.833293
      8          6           0       -1.436145   -1.012202   -0.117482
      9          8           0       -1.357219    0.023451   -1.104813
     10          1           0        2.052461    0.727299    0.919662
     11          1           0        3.083874   -0.225918   -0.240901
     12          1           0        1.309828   -2.021585   -0.336427
     13          1           0        1.350315   -0.057395   -2.033064
     14          1           0       -0.352714    1.723296   -1.563379
     15          1           0        0.341823    2.191280    0.825091
     16          1           0       -1.407743    1.892652    0.690271
     17          1           0       -0.284211   -1.677022    1.612159
     18          1           0       -1.451825   -1.987169   -0.622863
     19          1           0       -2.369482   -0.900714    0.450232
 ---------------------------------------------------------------------

 SCF Done:  E(RB3LYP) =  -423.173656710     A.U. after    1 cycles

 The electronic state is 1-A.
 Alpha  occ. eigenvalues --  -19.13966 -19.13349 -10.23703 -10.23566 -10.22626
 Alpha  occ. eigenvalues --  -10.22368 -10.19096 -10.19045 -10.18859  -1.05134
 Alpha  occ. eigenvalues --   -1.00636  -0.86392  -0.78077  -0.69532  -0.66781
 Alpha  occ. eigenvalues --   -0.61675  -0.59110  -0.53558  -0.50854  -0.50082
 Alpha  occ. eigenvalues --   -0.49040  -0.45810  -0.42272  -0.41109  -0.40019
 Alpha  occ. eigenvalues --   -0.39773  -0.38953  -0.36450  -0.35366  -0.32494
 Alpha  occ. eigenvalues --   -0.28615  -0.26876  -0.24849  -0.24291
 Alpha virt. eigenvalues --    0.08193   0.09829   0.11082   0.12495   0.13121
 Alpha virt. eigenvalues --    0.14299   0.15035   0.15506   0.16318   0.17320
 Alpha virt. eigenvalues --    0.17679   0.18390   0.19568   0.20430   0.20534

 Mulliken charges:
               1
     1  C   -0.320735
     2  C   -0.014897
     3  C   -0.044146
     4  C    0.071480
     5  C   -0.096790
     6  O   -0.278321
     7  C    0.048298
     8  C   -0.069313
     9  O   -0.283045
    10  H    0.131302
    11  H    0.110829
    12  H    0.087342
    13  H    0.090349
    14  H    0.079412
    15  H    0.102957
    16  H    0.105370
    17  H    0.081607
    18  H    0.097192
    19  H    0.101108
 Sum of Mulliken charges =   0.00000

 Dipole moment (field-independent basis, Debye):
    X=              0.9913    Y=             -0.3730    Z=             -0.3592  Tot=              1.1184
 Quadrupole moment (field-independent basis, Debye-Ang):
   XX=            -53.4445   YY=            -48.4576   ZZ=            -57.0443
   XY=              0.2520   XZ=             -2.6625   YZ=             -0.9484

  Exact polarizability:  77.367   1.473  75.477  -1.600  -1.321  65.364
 Approx polarizability: 107.300   2.896 111.232   0.890  -3.612 102.612

                      1                      2                      3
                      A                      A                      A
 Frequencies --    202.6187               301.5404               316.6511
 Red. masses --      2.7921                 3.4792                 2.3985
 Frc consts  --      0.0675                 0.1864                 0.1417
 IR Inten    --      7.8518                 0.6412                 0.6822

                      4                      5                      6
                      A                      A                      A
 Frequencies --    347.6494               412.6697               503.2951
 Red. masses --      3.2946                 3.4681                 3.1704
 Frc consts  --      0.2346                 0.3480                 0.4732
 IR Inten    --      1.2128                 3.5911                 0.1644

                      7                      8                      9
                      A                      A                      A
 Frequencies --    564.4706               589.7700               687.6397
 Red. masses --      4.3308                 4.7831                 4.8024
 Frc consts  --      0.8130                 0.9802                 1.3379
 IR Inten    --      2.0380                 5.4612                 0.5337

                     10                     11                     12
                      A                      A                      A
 Frequencies --    747.2676               819.2159               837.8110
 Red. masses --      2.1484                 1.5701                 4.2545
 Frc consts  --      0.7068                 0.6208                 1.7595
 IR Inten    --      5.2407                 3.3777                 1.1175

                     13                     14                     15
                      A                      A                      A
 Frequencies --    869.5098               880.8179               886.2419
 Red. masses --      2.4095                 3.0726                 2.2159
 Frc consts  --      1.0733                 1.4045                 1.0254
 IR Inten    --     23.2487                31.6625                34.1943

                     16                     17                     18
                      A                      A                      A
 Frequencies --    922.2491               964.1190               986.2158
 Red. masses --      2.4164                 2.1853                 2.0025
 Frc consts  --      1.2109                 1.1968                 1.1475
 IR Inten    --     13.8028                 3.0682                 1.2377

                     19                     20                     21
                      A                      A                      A
 Frequencies --   1030.7507              1038.7732              1064.0853
 Red. masses --      2.0478                 2.4901                 1.6574
 Frc consts  --      1.2819                 1.5831                 1.1057
 IR Inten    --      6.2928                 7.6633                12.8028

                     22                     23                     24
                      A                      A                      A
 Frequencies --   1072.0681              1085.1387              1102.6625
 Red. masses --      1.4764                 2.0525                 3.5979
 Frc consts  --      0.9998                 1.4240                 2.5774
 IR Inten    --     40.3286                 6.9672                45.4715

                     25                     26                     27
                      A                      A                      A
 Frequencies --   1114.8002              1123.2564              1160.8232
 Red. masses --      1.8170                 1.4374                 2.6709
 Frc consts  --      1.3305                 1.0686                 2.1205
 IR Inten    --     10.1773                 5.2653                56.1810

                     28                     29                     30
                      A                      A                      A
 Frequencies --   1202.5611              1234.0267              1240.6387
 Red. masses --      1.5376                 1.0923                 1.1217
 Frc consts  --      1.3101                 0.9800                 1.0172
 IR Inten    --      4.0448                 6.2755                 7.4718

                     31                     32                     33
                      A                      A                      A
 Frequencies --   1300.8202              1326.6876              1331.0225
 Red. masses --      1.4421                 1.2877                 1.9721
 Frc consts  --      1.4378                 1.3354                 2.0585
 IR Inten    --      0.5634                 2.4470                 2.5204

                     34                     35                     36
                      A                      A                      A
 Frequencies --   1342.5338              1362.8393              1389.1997
 Red. masses --      1.2686                 1.6606                 1.4232
 Frc consts  --      1.3472                 1.8172                 1.6182
 IR Inten    --      0.7934                 6.8505                 1.3738

                     37                     38                     39
                      A                      A                      A
 Frequencies --   1403.8111              1411.1989              1489.2241
 Red. masses --      1.3974                 1.6790                 1.3172
 Frc consts  --      1.6226                 1.9700                 1.7212
 IR Inten    --      1.1246                 2.0546                 2.5608

                     40                     41                     42
                      A                      A                      A
 Frequencies --   1513.4876              1520.9405              3003.4737
 Red. masses --      1.0913                 1.0848                 1.0561
 Frc consts  --      1.4728                 1.4785                 5.6132
 IR Inten    --      1.3166                 1.1151                74.1172

                     43                     44                     45
                      A                      A                      A
 Frequencies --   3013.2725              3041.2647              3052.3945
 Red. masses --      1.0576                 1.1090                 1.1081
 Frc consts  --      5.6580                 6.0436                 6.0827
 IR Inten    --     50.6639                37.7625                39.3495

                     46                     47                     48
                      A                      A                      A
 Frequencies --   3081.7852              3087.3688              3146.3966
 Red. masses --      1.0875                 1.0881                 1.0562
 Frc consts  --      6.0852                 6.1108                 6.1604
 IR Inten    --     50.9572                21.5828                14.1021

                     49                     50                     51
                      A                      A                      A
 Frequencies --   3156.8942              3170.1005              3235.5699
 Red. masses --      1.0883                 1.0920                 1.1144
 Frc consts  --      6.3901                 6.4659                 6.8736
 IR Inten    --     16.7921                15.8289                 5.9668

 - Thermochemistry -
 -------------------
 Temperature   298.150 Kelvin.  Pressure   1.00000 Atm.
 Atom     1 has atomic number  6 and mass  12.00000

 Molecular mass:   126.06808 amu.
 Principal axes and moments of inertia in atomic units:
                           1         2         3
     Eigenvalues --   701.98651 927.83079 948.74209
           X            0.99892  -0.04406   0.01471
           Y           -0.01492  -0.00451   0.99988
           Z            0.04398   0.99902   0.00516
 This molecule is an asymmetric top.
 Rotational symmetry number  1.
 Warning -- assumption of classical behavior for rotation
           may cause significant error
 Rotational temperatures (Kelvin)      0.12338     0.09335     0.09129
 Rotational constants (GHZ):           2.57091     1.94512     1.90225
 Zero-point vibrational energy     428799.2 (Joules/Mol)
                                  102.48546 (Kcal/Mol)
 Warning -- explicit consideration of   8 degrees of freedom as
           vibrations may cause significant error
 Vibrational temperatures:    291.52   433.85   455.59   500.19   593.74
          (Kelvin)            724.13   812.15   848.55   989.36  1075.15
                             1178.67  1205.42  1251.03  1267.30  1275.10
                             1326.91  1387.15  1418.94  1483.02  1494.56
                             1530.98  1542.46  1561.27  1586.48  1603.95
                             1616.11  1670.16  1730.22  1775.49  1785.00
                             1871.59  1908.81  1915.04  1931.60  1960.82
                             1998.75  2019.77  2030.40  2142.66  2177.57
                             2188.29  4321.32  4335.42  4375.70  4391.71
                             4434.00  4442.03  4526.96  4542.06  4561.06
                             4655.26

 Zero-point correction=                           0.163321 (Hartree/Particle)
 Thermal correction to Energy=                    0.169786
 Thermal correction to Enthalpy=                  0.170731
 Thermal correction to Gibbs Free Energy=         0.132935
 Sum of electronic and zero-point Energies=           -423.010336
 Sum of electronic and thermal Energies=              -423.003870
 Sum of electronic and thermal Enthalpies=            -423.002926
 Sum of electronic and thermal Free Energies=         -423.040722

                     E (Thermal)             CV                S
                      KCal/Mol        Cal/Mol-Kelvin    Cal/Mol-Kelvin
 Total                  106.543             27.610             79.548
 Electronic               0.000              0.000              0.000
 Translational            0.889              2.981             40.409
 Rotational               0.889              2.981             27.915
 Vibrational            104.765             21.648             11.224
 Vibration     1          0.639              1.836              2.109
 Vibration     2          0.694              1.671              1.408
 Vibration     3          0.704              1.642              1.327
 Vibration     4          0.725              1.580              1.177
 Vibration     5          0.776              1.443              0.917
 Vibration     6          0.859              1.243              0.650
 Vibration     7          0.920              1.108              0.515
 Vibration     8          0.947              1.054              0.468

 Optimization completed.
    -- Stationary point found.
 Normal termination of Gaussian 09 at Mon Jan 27 12:09:55 2020.
