 Gaussian 09, Revision D.01,
 Gaussian 09:  ES64L-G09RevD.01 24-Apr-2013

 -----------------------------
 # b3lyp 6-31G(2df,p) opt Freq
 -----------------------------

 -----
 titel
 -----
 Symbolic Z-matrix:
 Charge =  0 Multiplicity = 1

 SCF Done:  E(RB3LYP) =  -423.153227030     A.U. after   13 cycles
 Optimization completed.
    -- Stationary point found.
 Normal termination of Gaussian 09 at Mon Jan 27 12:06:11 2020.

 ----------------------------------------------------------------------
 #N Geom=AllCheck Guess=TCheck SCRF=Check GenChk RB3LYP/6-31G(2df,p) Fr
 eq
 ----------------------------------------------------------------------

 Structure from the checkpoint file:  "/scratch/puck/g09_eec6af5c-962a-44fe-aa18-32b55ec6bf52/Gau-22285.chk"
 -----
 titel
 -----
 Charge =  0 Multiplicity = 1

                         Standard orientation:
 ---------------------------------------------------------------------
 Center     Atomic      Atomic             Coordinates (Angstroms)
 Number     Number       Type             X           Y           Z
 ---------------------------------------------------------------------
      1          6           0        2.310325   -0.407031    0.380236
      2          8           0        1.962363    0.188527   -0.873649
      3          6           0        0.918911   -0.035910    0.097682
      4          6           0        0.315085    1.234949    0.666146
      5          6           0       -0.917743    1.612628   -0.156912
      6          8           0       -1.922091    0.611098   -0.040990
      7          6           0       -1.527134   -0.665775   -0.458513
      8          6           0       -1.121882   -1.640907    0.612337
      9          6           0       -0.077059   -1.072579   -0.330608
     10          1           0        2.609493   -1.453884    0.334219
     11          1           0        2.912675    0.215045    1.042573
     12          1           0        0.012010    1.090515    1.709869
     13          1           0        1.067143    2.028935    0.634695
     14          1           0       -1.376201    2.534193    0.210839
     15          1           0       -0.634938    1.763778   -1.209603
     16          1           0       -2.093484   -1.026342   -1.314204
     17          1           0       -1.153714   -1.267458    1.629894
     18          1           0       -1.381739   -2.687959    0.502849
     19          1           0        0.313561   -1.746074   -1.086225
 ---------------------------------------------------------------------

 SCF Done:  E(RB3LYP) =  -423.153227030     A.U. after    1 cycles

 The electronic state is 1-A.
 Alpha  occ. eigenvalues --  -19.14615 -19.14269 -10.24543 -10.23681 -10.23040
 Alpha  occ. eigenvalues --  -10.23021 -10.19701 -10.18838 -10.18816  -1.06655
 Alpha  occ. eigenvalues --   -1.03843  -0.85405  -0.78050  -0.67573  -0.64987
 Alpha  occ. eigenvalues --   -0.64445  -0.59094  -0.53546  -0.51561  -0.50590
 Alpha  occ. eigenvalues --   -0.48166  -0.45657  -0.43870  -0.42199  -0.41787
 Alpha  occ. eigenvalues --   -0.39095  -0.37236  -0.35914  -0.33555  -0.33075
 Alpha  occ. eigenvalues --   -0.31601  -0.26595  -0.26118  -0.24418
 Alpha virt. eigenvalues --    0.08279   0.09352   0.09874   0.11246   0.11593
 Alpha virt. eigenvalues --    0.13520   0.14054   0.14812   0.15962   0.17102
 Alpha virt. eigenvalues --    0.17626   0.17918   0.19845   0.20562   0.22766

 Mulliken charges:
               1
     1  C   -0.241369
     2  O   -0.284098
     3  C    0.408477
     4  C   -0.290344
     5  C   -0.076850
     6  O   -0.263791
     7  C    0.096569
     8  C   -0.328005
     9  C   -0.106092
    10  H    0.110047
    11  H    0.108180
    12  H    0.108966
    13  H    0.111815
    14  H    0.108762
    15  H    0.104868
    16  H    0.096120
    17  H    0.121471
    18  H    0.114605
    19  H    0.100671
 Sum of Mulliken charges =   0.00000

 Dipole moment (field-independent basis, Debye):
    X=              0.4037    Y=             -0.6063    Z=              1.1644  Tot=              1.3734
 Quadrupole moment (field-independent basis, Debye-Ang):
   XX=            -57.7503   YY=            -48.7902   ZZ=            -53.3045
   XY=              0.3582   XZ=              4.3438   YZ=              1.5390

  Exact polarizability:  82.700   0.351  78.507   2.613   0.337  63.644
 Approx polarizability: 115.230  -0.236 107.615  -0.581  -2.127 102.024

                      1                      2                      3
                      A                      A                      A
 Frequencies --     88.6927               194.0501               246.1963
 Red. masses --      4.0414                 3.1707                 2.4384
 Frc consts  --      0.0187                 0.0703                 0.0871
 IR Inten    --      3.2253                 1.6409                 4.5375

                      4                      5                      6
                      A                      A                      A
 Frequencies --    308.8049               361.9452               398.5901
 Red. masses --      2.5321                 4.0855                 3.0656
 Frc consts  --      0.1423                 0.3153                 0.2870
 IR Inten    --      0.5427                 3.9091                 2.8988

                      7                      8                      9
                      A                      A                      A
 Frequencies --    442.5022               489.7466               519.4081
 Red. masses --      2.8319                 2.4143                 3.8845
 Frc consts  --      0.3267                 0.3412                 0.6175
 IR Inten    --      3.6492                 3.9156                 4.5448

                     10                     11                     12
                      A                      A                      A
 Frequencies --    650.1756               705.7934               779.2533
 Red. masses --      3.3597                 2.3335                 2.5270
 Frc consts  --      0.8368                 0.6849                 0.9041
 IR Inten    --      7.2455                 5.5314                 3.7753

                     13                     14                     15
                      A                      A                      A
 Frequencies --    808.2584               830.5780               856.5531
 Red. masses --      2.8977                 1.6706                 1.9492
 Frc consts  --      1.1153                 0.6790                 0.8426
 IR Inten    --      8.9119                20.0594                 8.2300

                     16                     17                     18
                      A                      A                      A
 Frequencies --    896.1655               961.2513               976.9504
 Red. masses --      1.9877                 2.2236                 2.9356
 Frc consts  --      0.9406                 1.2105                 1.6508
 IR Inten    --      2.1067                19.0861                 7.6213

                     19                     20                     21
                      A                      A                      A
 Frequencies --    988.5785              1021.1304              1048.2456
 Red. masses --      2.1696                 2.9447                 1.6090
 Frc consts  --      1.2493                 1.8091                 1.0417
 IR Inten    --      5.0742                10.7255                17.1124

                     22                     23                     24
                      A                      A                      A
 Frequencies --   1060.7462              1073.7327              1103.2011
 Red. masses --      1.4867                 2.1482                 2.0670
 Frc consts  --      0.9856                 1.4592                 1.4822
 IR Inten    --      3.3032                25.1932                 5.4972

                     25                     26                     27
                      A                      A                      A
 Frequencies --   1126.2398              1131.1851              1160.5173
 Red. masses --      1.2535                 1.3477                 1.3565
 Frc consts  --      0.9368                 1.0161                 1.0764
 IR Inten    --      2.6349                 1.9410                 0.8966

                     28                     29                     30
                      A                      A                      A
 Frequencies --   1176.5493              1221.5933              1231.8210
 Red. masses --      1.8434                 1.3252                 2.0489
 Frc consts  --      1.5034                 1.1651                 1.8318
 IR Inten    --     24.6573                 1.9593                60.5858

                     31                     32                     33
                      A                      A                      A
 Frequencies --   1280.0757              1287.0337              1323.0998
 Red. masses --      1.5611                 1.4899                 1.9001
 Frc consts  --      1.5071                 1.4541                 1.9598
 IR Inten    --     33.5217                 3.3004                 7.7351

                     34                     35                     36
                      A                      A                      A
 Frequencies --   1368.6053              1371.0105              1415.1031
 Red. masses --      1.7162                 1.4871                 1.3706
 Frc consts  --      1.8940                 1.6469                 1.6171
 IR Inten    --      2.9212                18.0078                 8.8233

                     37                     38                     39
                      A                      A                      A
 Frequencies --   1439.2542              1465.3231              1480.7921
 Red. masses --      1.7098                 1.2017                 1.3577
 Frc consts  --      2.0868                 1.5202                 1.7540
 IR Inten    --     13.5555                 6.2296                10.5001

                     40                     41                     42
                      A                      A                      A
 Frequencies --   1504.6477              1530.6867              2996.4192
 Red. masses --      1.1052                 1.4077                 1.0691
 Frc consts  --      1.4742                 1.9432                 5.6554
 IR Inten    --      3.1552                 4.5888                45.1183

                     43                     44                     45
                      A                      A                      A
 Frequencies --   3039.9974              3072.8064              3096.2616
 Red. masses --      1.0617                 1.0505                 1.0939
 Frc consts  --      5.7808                 5.8443                 6.1790
 IR Inten    --     15.5793                31.2536                35.5891

                     46                     47                     48
                      A                      A                      A
 Frequencies --   3097.6646              3126.6407              3137.0333
 Red. masses --      1.1025                 1.0869                 1.0563
 Frc consts  --      6.2333                 6.2605                 6.1245
 IR Inten    --     20.0662                31.0620                10.9560

                     49                     50                     51
                      A                      A                      A
 Frequencies --   3157.4875              3164.3963              3226.7227
 Red. masses --      1.1186                 1.0903                 1.1166
 Frc consts  --      6.5704                 6.4322                 6.8496
 IR Inten    --     20.3783                 9.6120                 8.3812

 - Thermochemistry -
 -------------------
 Temperature   298.150 Kelvin.  Pressure   1.00000 Atm.
 Atom     1 has atomic number  6 and mass  12.00000

 Molecular mass:   126.06808 amu.
 Principal axes and moments of inertia in atomic units:
                           1         2         3
     Eigenvalues --   640.922161128.159621484.67787
           X            0.99975   0.00814   0.02071
           Y           -0.00838   0.99990   0.01125
           Z           -0.02061  -0.01142   0.99972
 This molecule is an asymmetric top.
 Rotational symmetry number  1.
 Warning -- assumption of classical behavior for rotation
           may cause significant error
 Rotational temperatures (Kelvin)      0.13514     0.07677     0.05834
 Rotational constants (GHZ):           2.81585     1.59972     1.21558
 Zero-point vibrational energy     421321.9 (Joules/Mol)
                                  100.69834 (Kcal/Mol)
 Warning -- explicit consideration of   9 degrees of freedom as
           vibrations may cause significant error
 Vibrational temperatures:    127.61   279.19   354.22   444.30   520.76
          (Kelvin)            573.48   636.66   704.64   747.31   935.46
                             1015.48  1121.17  1162.90  1195.02  1232.39
                             1289.38  1383.02  1405.61  1422.34  1469.18
                             1508.19  1526.18  1544.86  1587.26  1620.41
                             1627.52  1669.72  1692.79  1757.60  1772.31
                             1841.74  1851.75  1903.64  1969.12  1972.58
                             2036.02  2070.76  2108.27  2130.53  2164.85
                             2202.31  4311.17  4373.87  4421.08  4454.82
                             4456.84  4498.53  4513.49  4542.91  4552.85
                             4642.53

 Zero-point correction=                           0.160473 (Hartree/Particle)
 Thermal correction to Energy=                    0.167963
 Thermal correction to Enthalpy=                  0.168907
 Thermal correction to Gibbs Free Energy=         0.128606
 Sum of electronic and zero-point Energies=           -422.992754
 Sum of electronic and thermal Energies=              -422.985264
 Sum of electronic and thermal Enthalpies=            -422.984320
 Sum of electronic and thermal Free Energies=         -423.024621

                     E (Thermal)             CV                S
                      KCal/Mol        Cal/Mol-Kelvin    Cal/Mol-Kelvin
 Total                  105.398             30.130             84.820
 Electronic               0.000              0.000              0.000
 Translational            0.889              2.981             40.409
 Rotational               0.889              2.981             28.464
 Vibrational            103.621             24.168             15.948
 Vibration     1          0.602              1.957              3.689
 Vibration     2          0.635              1.848              2.189
 Vibration     3          0.661              1.769              1.758
 Vibration     4          0.698              1.657              1.369
 Vibration     5          0.736              1.551              1.114
 Vibration     6          0.765              1.473              0.968
 Vibration     7          0.802              1.377              0.819
 Vibration     8          0.846              1.273              0.684
 Vibration     9          0.874              1.207              0.611

 Normal termination of Gaussian 09 at Mon Jan 27 12:48:34 2020.
