 Gaussian 09, Revision D.01,
 Gaussian 09:  ES64L-G09RevD.01 24-Apr-2013

 -----------------------------
 # b3lyp 6-31G(2df,p) opt Freq
 -----------------------------

 -----
 titel
 -----
 Symbolic Z-matrix:
 Charge =  0 Multiplicity = 1

 SCF Done:  E(RB3LYP) =  -423.231944891     A.U. after   14 cycles
 Optimization completed.
    -- Stationary point found.
 Normal termination of Gaussian 09 at Mon Jan 27 22:03:53 2020.

 ----------------------------------------------------------------------
 #N Geom=AllCheck Guess=TCheck SCRF=Check GenChk RB3LYP/6-31G(2df,p) Fr
 eq
 ----------------------------------------------------------------------

 Structure from the checkpoint file:  "/scratch/puck/g09_97ac76c0-9112-46b4-b85a-8c723197c435/Gau-53255.chk"
 -----
 titel
 -----
 Charge =  0 Multiplicity = 1

                         Standard orientation:
 ---------------------------------------------------------------------
 Center     Atomic      Atomic             Coordinates (Angstroms)
 Number     Number       Type             X           Y           Z
 ---------------------------------------------------------------------
      1          6           0       -1.619905    1.824064    0.009410
      2          6           0       -0.435901    0.916077    0.009660
      3          6           0        0.859331    1.259460    0.057487
      4          6           0        1.733627    0.073499   -0.027354
      5          8           0        2.938909    0.039438    0.067040
      6          6           0        0.813349   -1.130232   -0.274441
      7          6           0       -0.622462   -0.601583   -0.049989
      8          6           0       -1.239276   -1.139594    1.251099
      9          8           0       -1.498625   -0.859149   -1.149141
     10          1           0       -2.238954    1.623910   -0.871085
     11          1           0       -2.255940    1.645670    0.884782
     12          1           0       -1.322354    2.874803    0.009562
     13          1           0        1.253004    2.265296    0.142312
     14          1           0        0.923103   -1.441527   -1.318074
     15          1           0        1.093666   -1.973389    0.362199
     16          1           0       -1.352226   -2.228598    1.189771
     17          1           0       -0.601216   -0.919284    2.112026
     18          1           0       -2.227270   -0.704740    1.424132
     19          1           0       -1.726662   -1.794586   -1.134054
 ---------------------------------------------------------------------

 SCF Done:  E(RB3LYP) =  -423.231944891     A.U. after    1 cycles

 The electronic state is 1-A.
 Alpha  occ. eigenvalues --  -19.14699 -19.11470 -10.25768 -10.25475 -10.21496
 Alpha  occ. eigenvalues --  -10.19314 -10.19164 -10.18572 -10.18398  -1.03185
 Alpha  occ. eigenvalues --   -1.02442  -0.85219  -0.76033  -0.74005  -0.68999
 Alpha  occ. eigenvalues --   -0.63590  -0.55446  -0.53273  -0.50355  -0.46926
 Alpha  occ. eigenvalues --   -0.44717  -0.44123  -0.43130  -0.42255  -0.41205
 Alpha  occ. eigenvalues --   -0.39510  -0.38893  -0.38003  -0.36749  -0.34816
 Alpha  occ. eigenvalues --   -0.32837  -0.28704  -0.26662  -0.23230
 Alpha virt. eigenvalues --   -0.04102   0.05852   0.06347   0.10052   0.12016
 Alpha virt. eigenvalues --    0.13054   0.14466   0.14748   0.15139   0.16537
 Alpha virt. eigenvalues --    0.18333   0.19538   0.19998   0.20940   0.21695

 Mulliken charges:
               1
     1  C   -0.496286
     2  C    0.340915
     3  C   -0.315003
     4  C    0.391615
     5  O   -0.334764
     6  C   -0.395626
     7  C    0.283792
     8  C   -0.442912
     9  O   -0.472255
    10  H    0.159542
    11  H    0.136054
    12  H    0.130147
    13  H    0.109851
    14  H    0.135806
    15  H    0.116950
    16  H    0.114182
    17  H    0.130812
    18  H    0.126162
    19  H    0.281018
 Sum of Mulliken charges =   0.00000

 Dipole moment (field-independent basis, Debye):
    X=             -3.6875    Y=             -0.7239    Z=              0.6791  Tot=              3.8187
 Quadrupole moment (field-independent basis, Debye-Ang):
   XX=            -64.4865   YY=            -45.9175   ZZ=            -53.8257
   XY=              1.2137   XZ=             -1.7562   YZ=              0.8494

  Exact polarizability:  99.621  -0.808  80.388  -0.196   0.694  57.902
 Approx polarizability: 162.974   0.133 111.091   3.880   1.677  88.503

                      1                      2                      3
                      A                      A                      A
 Frequencies --     62.2745               133.6307               184.0783
 Red. masses --      3.3845                 1.5906                 1.6676
 Frc consts  --      0.0077                 0.0167                 0.0333
 IR Inten    --      3.5752                 0.0345                 0.4591

                      4                      5                      6
                      A                      A                      A
 Frequencies --    232.7454               253.8935               265.6280
 Red. masses --      2.2965                 1.0757                 1.9908
 Frc consts  --      0.0733                 0.0409                 0.0828
 IR Inten    --      6.3759                79.2007                 2.1008

                      7                      8                      9
                      A                      A                      A
 Frequencies --    271.4908               338.3595               367.8901
 Red. masses --      1.3958                 2.8041                 3.7429
 Frc consts  --      0.0606                 0.1891                 0.2985
 IR Inten    --      2.9740                 5.0610                 8.6969

                     10                     11                     12
                      A                      A                      A
 Frequencies --    401.5372               531.5143               547.4470
 Red. masses --      3.2335                 2.4579                 3.2831
 Frc consts  --      0.3072                 0.4091                 0.5797
 IR Inten    --      7.0331                 4.2117                 3.2262

                     13                     14                     15
                      A                      A                      A
 Frequencies --    575.5690               584.6245               627.8586
 Red. masses --      5.1782                 4.3403                 3.0418
 Frc consts  --      1.0107                 0.8740                 0.7065
 IR Inten    --      1.1791                 0.6933                 3.7158

                     16                     17                     18
                      A                      A                      A
 Frequencies --    728.3496               846.3491               890.4284
 Red. masses --      3.3381                 3.2326                 1.3658
 Frc consts  --      1.0434                 1.3643                 0.6380
 IR Inten    --      3.2586                 6.9277                 6.0263

                     19                     20                     21
                      A                      A                      A
 Frequencies --    906.8549               926.0487               959.9631
 Red. masses --      2.0294                 2.1890                 1.9161
 Frc consts  --      0.9833                 1.1060                 1.0403
 IR Inten    --      7.5535                13.1103                13.7797

                     22                     23                     24
                      A                      A                      A
 Frequencies --   1011.7733              1054.9286              1064.3471
 Red. masses --      1.4766                 1.7033                 1.8665
 Frc consts  --      0.8906                 1.1168                 1.2458
 IR Inten    --      6.6211                23.5606                 9.1408

                     25                     26                     27
                      A                      A                      A
 Frequencies --   1097.8199              1158.9425              1184.6028
 Red. masses --      1.9010                 2.4160                 1.8099
 Frc consts  --      1.3499                 1.9120                 1.4964
 IR Inten    --     36.8966                50.5284                17.2235

                     28                     29                     30
                      A                      A                      A
 Frequencies --   1208.7076              1225.5220              1261.3311
 Red. masses --      2.3243                 1.8976                 2.0252
 Frc consts  --      2.0007                 1.6792                 1.8984
 IR Inten    --     42.5913                37.2882                26.9042

                     31                     32                     33
                      A                      A                      A
 Frequencies --   1303.9169              1383.9224              1404.5010
 Red. masses --      2.2082                 1.8428                 1.3241
 Frc consts  --      2.2120                 2.0795                 1.5390
 IR Inten    --     41.9164                20.4303                 4.1776

                     34                     35                     36
                      A                      A                      A
 Frequencies --   1406.2671              1448.7183              1472.2346
 Red. masses --      1.2356                 1.0970                 1.0477
 Frc consts  --      1.4396                 1.3566                 1.3379
 IR Inten    --      4.5496                 4.9826                10.0704

                     37                     38                     39
                      A                      A                      A
 Frequencies --   1480.2662              1491.5824              1497.8402
 Red. masses --      1.0700                 1.0591                 1.0716
 Frc consts  --      1.3813                 1.3883                 1.4165
 IR Inten    --     14.7419                 2.4475                 1.5385

                     40                     41                     42
                      A                      A                      A
 Frequencies --   1686.5829              1814.5651              3029.1424
 Red. masses --      7.4520                12.3520                 1.0378
 Frc consts  --     12.4893                23.9624                 5.6107
 IR Inten    --     58.2636               313.7864                14.2109

                     43                     44                     45
                      A                      A                      A
 Frequencies --   3034.5898              3059.8216              3091.2341
 Red. masses --      1.0390                 1.0597                 1.0942
 Frc consts  --      5.6374                 5.8457                 6.1607
 IR Inten    --     13.2733                 6.2317                 8.4479

                     46                     47                     48
                      A                      A                      A
 Frequencies --   3098.4660              3110.0424              3123.4058
 Red. masses --      1.0974                 1.1039                 1.1024
 Frc consts  --      6.2076                 6.2906                 6.3366
 IR Inten    --     19.8146                 7.1349                19.2874

                     49                     50                     51
                      A                      A                      A
 Frequencies --   3130.0519              3209.4695              3811.5215
 Red. masses --      1.1021                 1.0957                 1.0661
 Frc consts  --      6.3617                 6.6498                 9.1256
 IR Inten    --     12.3771                 5.4178                19.1078

 - Thermochemistry -
 -------------------
 Temperature   298.150 Kelvin.  Pressure   1.00000 Atm.
 Atom     1 has atomic number  6 and mass  12.00000

 Molecular mass:   126.06808 amu.
 Principal axes and moments of inertia in atomic units:
                           1         2         3
     Eigenvalues --   728.987661295.197711642.17360
           X            0.99956  -0.02261  -0.01902
           Y            0.02223   0.99956  -0.01967
           Z            0.01945   0.01923   0.99963
 This molecule is an asymmetric top.
 Rotational symmetry number  1.
 Warning -- assumption of classical behavior for rotation
           may cause significant error
 Rotational temperatures (Kelvin)      0.11881     0.06687     0.05274
 Rotational constants (GHZ):           2.47568     1.39341     1.09900
 Zero-point vibrational energy     412667.7 (Joules/Mol)
                                   98.62995 (Kcal/Mol)
 Warning -- explicit consideration of  14 degrees of freedom as
           vibrations may cause significant error
 Vibrational temperatures:     89.60   192.26   264.85   334.87   365.30
          (Kelvin)            382.18   390.61   486.82   529.31   577.72
                              764.73   787.65   828.11   841.14   903.35
                             1047.93  1217.71  1281.13  1304.76  1332.38
                             1381.17  1455.71  1517.81  1531.36  1579.52
                             1667.46  1704.38  1739.06  1763.25  1814.77
                             1876.04  1991.15  2020.76  2023.30  2084.38
                             2118.21  2129.77  2146.05  2155.06  2426.61
                             2610.75  4358.25  4366.09  4402.40  4447.59
                             4458.00  4474.65  4493.88  4503.44  4617.71
                             5483.92

 Zero-point correction=                           0.157177 (Hartree/Particle)
 Thermal correction to Energy=                    0.166530
 Thermal correction to Enthalpy=                  0.167474
 Thermal correction to Gibbs Free Energy=         0.123302
 Sum of electronic and zero-point Energies=           -423.074768
 Sum of electronic and thermal Energies=              -423.065415
 Sum of electronic and thermal Enthalpies=            -423.064471
 Sum of electronic and thermal Free Energies=         -423.108643

                     E (Thermal)             CV                S
                      KCal/Mol        Cal/Mol-Kelvin    Cal/Mol-Kelvin
 Total                  104.499             35.240             92.967
 Electronic               0.000              0.000              0.000
 Translational            0.889              2.981             40.409
 Rotational               0.889              2.981             28.829
 Vibrational            102.721             29.278             23.729
 Vibration     1          0.597              1.972              4.384
 Vibration     2          0.613              1.920              2.893
 Vibration     3          0.631              1.862              2.287
 Vibration     4          0.653              1.791              1.858
 Vibration     5          0.665              1.756              1.703
 Vibration     6          0.671              1.736              1.624
 Vibration     7          0.675              1.726              1.587
 Vibration     8          0.719              1.599              1.220
 Vibration     9          0.740              1.538              1.089
 Vibration    10          0.767              1.467              0.957
 Vibration    11          0.886              1.180              0.584
 Vibration    12          0.903              1.145              0.549
 Vibration    13          0.932              1.084              0.494
 Vibration    14          0.942              1.065              0.477

 Normal termination of Gaussian 09 at Mon Jan 27 22:52:22 2020.
