 Gaussian 09, Revision D.01,
 Gaussian 09:  ES64L-G09RevD.01 24-Apr-2013

 -----------------------------
 # b3lyp 6-31G(2df,p) opt Freq
 -----------------------------

 -----
 titel
 -----
 Symbolic Z-matrix:
 Charge =  0 Multiplicity = 1

 SCF Done:  E(RB3LYP) =  -423.116769320     A.U. after   12 cycles
 Optimization completed.
    -- Stationary point found.
 Normal termination of Gaussian 09 at Mon Jan 27 23:42:29 2020.

 ----------------------------------------------------------------------
 #N Geom=AllCheck Guess=TCheck SCRF=Check GenChk RB3LYP/6-31G(2df,p) Fr
 eq
 ----------------------------------------------------------------------

 Structure from the checkpoint file:  "/scratch/puck/g09_3092e67c-f54a-45dc-b80f-9c755d28bf17/Gau-67894.chk"
 -----
 titel
 -----
 Charge =  0 Multiplicity = 1

                         Standard orientation:
 ---------------------------------------------------------------------
 Center     Atomic      Atomic             Coordinates (Angstroms)
 Number     Number       Type             X           Y           Z
 ---------------------------------------------------------------------
      1          6           0        2.800466   -0.054809    0.444383
      2          6           0        1.349161   -0.479475    0.522313
      3          6           0        0.671080   -0.869125   -0.770162
      4          8           0       -0.632483   -1.411836   -0.521765
      5          6           0       -1.056784   -0.150872    0.030273
      6          6           0       -2.362148    0.466627   -0.327351
      7          6           0       -2.098191   -0.034988    1.089939
      8          6           0        0.324146    0.446035   -0.118662
      9          8           0        0.577088    1.743261   -0.516401
     10          1           0        3.059218    0.637929    1.253518
     11          1           0        3.463775   -0.921597    0.527538
     12          1           0        3.017782    0.450054   -0.501465
     13          1           0        1.059956   -1.028024    1.417340
     14          1           0        1.174710   -1.137441   -1.690995
     15          1           0       -2.378239    1.536362   -0.507148
     16          1           0       -3.033709   -0.116813   -0.947418
     17          1           0       -1.957738    0.690095    1.885665
     18          1           0       -2.598236   -0.948700    1.392237
     19          1           0        0.869257    2.246372    0.251658
 ---------------------------------------------------------------------

 SCF Done:  E(RB3LYP) =  -423.116769320     A.U. after    1 cycles

 The electronic state is 1-A.
 Alpha  occ. eigenvalues --  -19.15930 -19.13783 -10.24131 -10.23754 -10.23215
 Alpha  occ. eigenvalues --  -10.19445 -10.18571 -10.18375 -10.18200  -1.06090
 Alpha  occ. eigenvalues --   -1.03319  -0.84862  -0.83135  -0.71561  -0.63188
 Alpha  occ. eigenvalues --   -0.60792  -0.58502  -0.54515  -0.51618  -0.51077
 Alpha  occ. eigenvalues --   -0.46659  -0.43918  -0.43722  -0.41557  -0.39392
 Alpha  occ. eigenvalues --   -0.38858  -0.36907  -0.35665  -0.35202  -0.33068
 Alpha  occ. eigenvalues --   -0.30785  -0.27636  -0.24550  -0.22103
 Alpha virt. eigenvalues --    0.06122   0.07812   0.10944   0.11704   0.12552
 Alpha virt. eigenvalues --    0.13254   0.14497   0.15182   0.16792   0.17066
 Alpha virt. eigenvalues --    0.17884   0.18801   0.19661   0.22373   0.22707

 Mulliken charges:
               1
     1  C   -0.433399
     2  C   -0.108341
     3  C    0.015386
     4  O   -0.318662
     5  C    0.412421
     6  C   -0.340666
     7  C   -0.346057
     8  C    0.220166
     9  O   -0.450757
    10  H    0.114162
    11  H    0.125621
    12  H    0.130885
    13  H    0.089965
    14  H    0.111270
    15  H    0.123481
    16  H    0.125832
    17  H    0.110528
    18  H    0.126121
    19  H    0.292043
 Sum of Mulliken charges =   0.00000

 Dipole moment (field-independent basis, Debye):
    X=              1.1016    Y=              1.2991    Z=              1.4715  Tot=              2.2509
 Quadrupole moment (field-independent basis, Debye-Ang):
   XX=            -50.3495   YY=            -53.7707   ZZ=            -52.4528
   XY=             -0.4175   XZ=              0.0866   YZ=              2.7526

  Exact polarizability:  92.297  -2.513  69.067   0.646   1.349  67.950
 Approx polarizability: 114.254  -2.781 108.156   1.163   3.281 104.549

                      1                      2                      3
                      A                      A                      A
 Frequencies --    112.9560               172.9172               194.0952
 Red. masses --      3.6878                 1.0960                 2.7168
 Frc consts  --      0.0277                 0.0193                 0.0603
 IR Inten    --      1.0757                 2.8367                 1.2097

                      4                      5                      6
                      A                      A                      A
 Frequencies --    208.4021               224.3051               267.6506
 Red. masses --      2.2429                 4.1723                 1.5415
 Frc consts  --      0.0574                 0.1237                 0.0651
 IR Inten    --      3.9619                 4.6090                35.3031

                      7                      8                      9
                      A                      A                      A
 Frequencies --    278.5779               391.0918               449.1747
 Red. masses --      1.6080                 3.0054                 3.4198
 Frc consts  --      0.0735                 0.2708                 0.4065
 IR Inten    --     50.4153                 7.2067                 4.6568

                     10                     11                     12
                      A                      A                      A
 Frequencies --    462.7771               528.7685               601.5439
 Red. masses --      3.7618                 3.7360                 3.8705
 Frc consts  --      0.4747                 0.6154                 0.8252
 IR Inten    --      1.1219                 4.7870                 4.1488

                     13                     14                     15
                      A                      A                      A
 Frequencies --    680.8817               758.7917               814.5755
 Red. masses --      3.9135                 1.0966                 2.3600
 Frc consts  --      1.0690                 0.3720                 0.9226
 IR Inten    --      2.8759                 1.6613                 4.4911

                     16                     17                     18
                      A                      A                      A
 Frequencies --    838.0586               874.4245               924.8371
 Red. masses --      2.7010                 1.4074                 2.2255
 Frc consts  --      1.1177                 0.6340                 1.1215
 IR Inten    --     20.9541                 2.8557                 0.7837

                     19                     20                     21
                      A                      A                      A
 Frequencies --    954.4342               958.5986               989.8490
 Red. masses --      1.7582                 1.6596                 2.6172
 Frc consts  --      0.9436                 0.8985                 1.5109
 IR Inten    --     18.3871                12.7100                 5.7883

                     22                     23                     24
                      A                      A                      A
 Frequencies --   1003.4367              1031.4634              1046.9528
 Red. masses --      4.0440                 3.4734                 1.4611
 Frc consts  --      2.3991                 2.1773                 0.9436
 IR Inten    --     38.3316                42.0314                25.6111

                     25                     26                     27
                      A                      A                      A
 Frequencies --   1057.4810              1065.9673              1126.3731
 Red. masses --      1.8154                 1.4953                 2.4884
 Frc consts  --      1.1961                 1.0011                 1.8601
 IR Inten    --     22.8332                 0.0518                 4.1183

                     28                     29                     30
                      A                      A                      A
 Frequencies --   1141.8790              1145.1114              1186.2229
 Red. masses --      1.6149                 1.8329                 1.2592
 Frc consts  --      1.2406                 1.4161                 1.0440
 IR Inten    --      2.4452                 9.8377                 0.6292

                     31                     32                     33
                      A                      A                      A
 Frequencies --   1226.3076              1250.1512              1297.1494
 Red. masses --      1.9804                 2.0915                 1.4626
 Frc consts  --      1.7547                 1.9259                 1.4500
 IR Inten    --     58.3711                88.1788                45.6943

                     34                     35                     36
                      A                      A                      A
 Frequencies --   1346.8341              1399.9290              1415.0399
 Red. masses --      1.8116                 2.3134                 1.2748
 Frc consts  --      1.9361                 2.6713                 1.5039
 IR Inten    --     15.7430                 1.9604                 1.5984

                     37                     38                     39
                      A                      A                      A
 Frequencies --   1447.4276              1458.0437              1492.3608
 Red. masses --      1.0936                 2.3311                 1.0478
 Frc consts  --      1.3499                 2.9198                 1.3750
 IR Inten    --      1.9676                11.8226                 3.3459

                     40                     41                     42
                      A                      A                      A
 Frequencies --   1504.5301              1509.8870              3030.6114
 Red. masses --      1.4735                 1.4803                 1.0370
 Frc consts  --      1.9652                 1.9883                 5.6118
 IR Inten    --     13.6870                15.2984                35.9227

                     43                     44                     45
                      A                      A                      A
 Frequencies --   3089.0267              3106.6384              3122.9150
 Red. masses --      1.0991                 1.0966                 1.0919
 Frc consts  --      6.1792                 6.2358                 6.2744
 IR Inten    --     21.1422                 2.6836                24.5709

                     46                     47                     48
                      A                      A                      A
 Frequencies --   3126.5370              3134.0683              3189.2642
 Red. masses --      1.0543                 1.0546                 1.0942
 Frc consts  --      6.0724                 6.1033                 6.5576
 IR Inten    --     14.1631                 6.7209                15.1528

                     49                     50                     51
                      A                      A                      A
 Frequencies --   3211.9610              3228.4066              3794.0554
 Red. masses --      1.1173                 1.1157                 1.0664
 Frc consts  --      6.7917                 6.8511                 9.0446
 IR Inten    --      1.3494                 6.7287                21.9300

 - Thermochemistry -
 -------------------
 Temperature   298.150 Kelvin.  Pressure   1.00000 Atm.
 Atom     1 has atomic number  6 and mass  12.00000

 Molecular mass:   126.06808 amu.
 Principal axes and moments of inertia in atomic units:
                           1         2         3
     Eigenvalues --   575.347611349.671911562.11386
           X            0.99993  -0.01147   0.00252
           Y            0.01145   0.99991   0.00764
           Z           -0.00260  -0.00761   0.99997
 This molecule is an asymmetric top.
 Rotational symmetry number  1.
 Warning -- assumption of classical behavior for rotation
           may cause significant error
 Rotational temperatures (Kelvin)      0.15054     0.06417     0.05545
 Rotational constants (GHZ):           3.13678     1.33717     1.15532
 Zero-point vibrational energy     411950.5 (Joules/Mol)
                                   98.45853 (Kcal/Mol)
 Warning -- explicit consideration of  12 degrees of freedom as
           vibrations may cause significant error
 Vibrational temperatures:    162.52   248.79   279.26   299.84   322.72
          (Kelvin)            385.09   400.81   562.69   646.26   665.83
                              760.78   865.49   979.64  1091.73  1171.99
                             1205.78  1258.10  1330.63  1373.22  1379.21
                             1424.17  1443.72  1484.04  1506.33  1521.48
                             1533.69  1620.60  1642.91  1647.56  1706.71
                             1764.38  1798.69  1866.31  1937.79  2014.18
                             2035.92  2082.52  2097.80  2147.17  2164.68
                             2172.39  4360.37  4444.41  4469.75  4493.17
                             4498.38  4509.22  4588.63  4621.29  4644.95
                             5458.79

 Zero-point correction=                           0.156904 (Hartree/Particle)
 Thermal correction to Energy=                    0.165719
 Thermal correction to Enthalpy=                  0.166663
 Thermal correction to Gibbs Free Energy=         0.123949
 Sum of electronic and zero-point Energies=           -422.959866
 Sum of electronic and thermal Energies=              -422.951051
 Sum of electronic and thermal Enthalpies=            -422.950106
 Sum of electronic and thermal Free Energies=         -422.992820

                     E (Thermal)             CV                S
                      KCal/Mol        Cal/Mol-Kelvin    Cal/Mol-Kelvin
 Total                  103.990             34.034             89.898
 Electronic               0.000              0.000              0.000
 Translational            0.889              2.981             40.409
 Rotational               0.889              2.981             28.585
 Vibrational            102.213             28.073             20.904
 Vibration     1          0.607              1.939              3.217
 Vibration     2          0.626              1.876              2.404
 Vibration     3          0.635              1.848              2.188
 Vibration     4          0.642              1.828              2.058
 Vibration     5          0.649              1.804              1.924
 Vibration     6          0.673              1.733              1.611
 Vibration     7          0.679              1.713              1.542
 Vibration     8          0.759              1.489              0.996
 Vibration     9          0.808              1.363              0.798
 Vibration    10          0.820              1.333              0.758
 Vibration    11          0.884              1.186              0.590
 Vibration    12          0.960              1.029              0.447

 Normal termination of Gaussian 09 at Tue Jan 28 00:24:23 2020.
