 Gaussian 09, Revision D.01,
 Gaussian 09:  ES64L-G09RevD.01 24-Apr-2013

 -----------------------------
 # b3lyp 6-31G(2df,p) opt Freq
 -----------------------------

 -----
 titel
 -----
 Symbolic Z-matrix:
 Charge =  0 Multiplicity = 1

 SCF Done:  E(RB3LYP) =  -423.129362183     A.U. after   13 cycles
 Optimization completed.
    -- Stationary point found.
 Normal termination of Gaussian 09 at Tue Jan 28 14:05:18 2020.

 ----------------------------------------------------------------------
 #N Geom=AllCheck Guess=TCheck SCRF=Check GenChk RB3LYP/6-31G(2df,p) Fr
 eq
 ----------------------------------------------------------------------

 Structure from the checkpoint file:  "/scratch/puck/g09_98b86c8e-90c2-47ab-be87-23f93a9eb8de/Gau-147178.chk"
 -----
 titel
 -----
 Charge =  0 Multiplicity = 1

                         Standard orientation:
 ---------------------------------------------------------------------
 Center     Atomic      Atomic             Coordinates (Angstroms)
 Number     Number       Type             X           Y           Z
 ---------------------------------------------------------------------
      1          6           0       -3.037681   -0.653244   -0.098288
      2          8           0       -2.201588    0.486859   -0.150223
      3          6           0       -0.863275    0.173030   -0.360426
      4          6           0        0.107215    1.157282    0.217286
      5          8           0        1.387732    1.269158   -0.354434
      6          6           0        2.169286    0.143305   -0.025711
      7          6           0        1.856062   -1.172796   -0.686926
      8          6           0        1.315104   -0.866590    0.700508
      9          6           0       -0.035271   -0.206103    0.862743
     10          1           0       -2.744864   -1.336009    0.711997
     11          1           0       -4.054768   -0.297357    0.080967
     12          1           0       -3.017111   -1.212215   -1.045764
     13          1           0       -0.645831   -0.292239   -1.321271
     14          1           0       -0.272214    2.079454    0.645015
     15          1           0        3.186646    0.401894    0.247194
     16          1           0        1.191893   -1.188889   -1.542089
     17          1           0        2.664257   -1.895206   -0.740378
     18          1           0        1.692372   -1.434124    1.542330
     19          1           0       -0.558171   -0.322748    1.804133
 ---------------------------------------------------------------------

 SCF Done:  E(RB3LYP) =  -423.129362183     A.U. after    1 cycles

 The electronic state is 1-A.
 Alpha  occ. eigenvalues --  -19.14793 -19.14788 -10.23396 -10.23261 -10.23033
 Alpha  occ. eigenvalues --  -10.22638 -10.19837 -10.19334 -10.18717  -1.05421
 Alpha  occ. eigenvalues --   -1.03860  -0.85470  -0.83181  -0.69629  -0.63995
 Alpha  occ. eigenvalues --   -0.61987  -0.57681  -0.56206  -0.53426  -0.48624
 Alpha  occ. eigenvalues --   -0.47072  -0.46346  -0.43939  -0.43404  -0.42387
 Alpha  occ. eigenvalues --   -0.39326  -0.38265  -0.36490  -0.33499  -0.31062
 Alpha  occ. eigenvalues --   -0.29071  -0.28115  -0.24352  -0.23020
 Alpha virt. eigenvalues --    0.07628   0.09308   0.10581   0.11662   0.12276
 Alpha virt. eigenvalues --    0.14690   0.15359   0.15581   0.16177   0.16377
 Alpha virt. eigenvalues --    0.17042   0.18871   0.19289   0.21077   0.21716

 Mulliken charges:
               1
     1  C   -0.233203
     2  O   -0.243551
     3  C    0.047469
     4  C    0.054160
     5  O   -0.259425
     6  C    0.100997
     7  C   -0.328878
     8  C   -0.075230
     9  C   -0.135856
    10  H    0.108621
    11  H    0.128545
    12  H    0.108290
    13  H    0.089897
    14  H    0.110572
    15  H    0.100234
    16  H    0.122561
    17  H    0.112067
    18  H    0.093871
    19  H    0.098860
 Sum of Mulliken charges =   0.00000

 Dipole moment (field-independent basis, Debye):
    X=             -0.1027    Y=             -2.0987    Z=              0.8818  Tot=              2.2788
 Quadrupole moment (field-independent basis, Debye-Ang):
   XX=            -49.6229   YY=            -54.8101   ZZ=            -52.1427
   XY=             -0.1102   XZ=              1.0626   YZ=              1.4990

  Exact polarizability:  91.265  -2.139  68.620  -0.792   1.930  64.083
 Approx polarizability: 115.058  -1.535 106.618  -1.760  -0.519  99.925

                      1                      2                      3
                      A                      A                      A
 Frequencies --     95.6505               145.1831               182.1356
 Red. masses --      2.9026                 2.9917                 1.2483
 Frc consts  --      0.0156                 0.0372                 0.0244
 IR Inten    --      1.3318                 0.4823                 0.0869

                      4                      5                      6
                      A                      A                      A
 Frequencies --    232.2344               285.9377               335.7398
 Red. masses --      2.7413                 2.7327                 3.8240
 Frc consts  --      0.0871                 0.1316                 0.2540
 IR Inten    --      0.3085                 0.8654                11.1412

                      7                      8                      9
                      A                      A                      A
 Frequencies --    395.0339               471.2232               508.0531
 Red. masses --      4.2064                 2.6047                 3.1885
 Frc consts  --      0.3867                 0.3408                 0.4849
 IR Inten    --      0.7059                 2.4523                 2.2135

                     10                     11                     12
                      A                      A                      A
 Frequencies --    704.0829               714.8556               779.4635
 Red. masses --      4.0224                 3.9475                 1.6803
 Frc consts  --      1.1748                 1.1885                 0.6015
 IR Inten    --     12.3502                 2.1995                14.2116

                     13                     14                     15
                      A                      A                      A
 Frequencies --    783.2612               852.2225               910.6666
 Red. masses --      2.3249                 1.6570                 2.9694
 Frc consts  --      0.8404                 0.7091                 1.4509
 IR Inten    --      5.1921                 9.2712                 5.6049

                     16                     17                     18
                      A                      A                      A
 Frequencies --    921.7888               941.4511               967.3356
 Red. masses --      2.6258                 2.9648                 2.7526
 Frc consts  --      1.3146                 1.5482                 1.5176
 IR Inten    --      2.2662                20.2178                 9.0070

                     19                     20                     21
                      A                      A                      A
 Frequencies --   1004.9210              1011.3327              1034.7168
 Red. masses --      2.0402                 2.0497                 1.6435
 Frc consts  --      1.2139                 1.2352                 1.0367
 IR Inten    --      1.0417                18.9355                 9.2097

                     22                     23                     24
                      A                      A                      A
 Frequencies --   1045.3550              1079.5503              1090.0184
 Red. masses --      1.3045                 1.7137                 1.6095
 Frc consts  --      0.8399                 1.1767                 1.1267
 IR Inten    --      3.5298                23.0898                 9.9921

                     25                     26                     27
                      A                      A                      A
 Frequencies --   1092.0556              1104.8587              1153.0376
 Red. masses --      1.5405                 1.6948                 2.4590
 Frc consts  --      1.0825                 1.2189                 1.9262
 IR Inten    --     13.6270                 8.8638               101.5169

                     28                     29                     30
                      A                      A                      A
 Frequencies --   1174.6748              1183.4043              1194.3662
 Red. masses --      2.5745                 1.2914                 2.2740
 Frc consts  --      2.0930                 1.0656                 1.9112
 IR Inten    --     95.7080                 2.5598                23.7322

                     31                     32                     33
                      A                      A                      A
 Frequencies --   1205.3071              1238.9560              1279.0719
 Red. masses --      1.7616                 1.9943                 1.3898
 Frc consts  --      1.5078                 1.8036                 1.3396
 IR Inten    --     10.6206                65.0346                 1.3236

                     34                     35                     36
                      A                      A                      A
 Frequencies --   1293.7449              1342.2600              1376.2895
 Red. masses --      1.3461                 1.6163                 1.6909
 Frc consts  --      1.3274                 1.7158                 1.8870
 IR Inten    --      2.8215                 7.9236                12.1731

                     37                     38                     39
                      A                      A                      A
 Frequencies --   1427.9303              1478.9017              1484.8087
 Red. masses --      2.0266                 1.2291                 1.1871
 Frc consts  --      2.4346                 1.5839                 1.5420
 IR Inten    --     12.1097                 6.3519                 1.8682

                     40                     41                     42
                      A                      A                      A
 Frequencies --   1486.4024              1508.4871              2986.1016
 Red. masses --      1.0750                 1.0660                 1.0360
 Frc consts  --      1.3994                 1.4292                 5.4429
 IR Inten    --      4.4057                 7.4792                54.6208

                     43                     44                     45
                      A                      A                      A
 Frequencies --   3037.5866              3105.6330              3120.3253
 Red. masses --      1.1026                 1.0864                 1.0978
 Frc consts  --      5.9944                 6.1738                 6.2978
 IR Inten    --     49.0355                18.3978                30.6861

                     46                     47                     48
                      A                      A                      A
 Frequencies --   3138.7356              3165.4962              3169.5695
 Red. masses --      1.0563                 1.0890                 1.0921
 Frc consts  --      6.1312                 6.4291                 6.4642
 IR Inten    --     15.3151                21.0869                16.8976

                     49                     50                     51
                      A                      A                      A
 Frequencies --   3181.0375              3194.0340              3227.8888
 Red. masses --      1.0906                 1.0934                 1.1135
 Frc consts  --      6.5020                 6.5724                 6.8356
 IR Inten    --     11.2188                 9.5606                 9.7352

 - Thermochemistry -
 -------------------
 Temperature   298.150 Kelvin.  Pressure   1.00000 Atm.
 Atom     1 has atomic number  6 and mass  12.00000

 Molecular mass:   126.06808 amu.
 Principal axes and moments of inertia in atomic units:
                           1         2         3
     Eigenvalues --   463.984561571.250191767.60399
           X            1.00000   0.00265   0.00044
           Y           -0.00267   0.99894   0.04593
           Z           -0.00031  -0.04593   0.99894
 This molecule is an asymmetric top.
 Rotational symmetry number  1.
 Warning -- assumption of classical behavior for rotation
           may cause significant error
 Rotational temperatures (Kelvin)      0.18667     0.05512     0.04900
 Rotational constants (GHZ):           3.88966     1.14860     1.02101
 Zero-point vibrational energy     417755.0 (Joules/Mol)
                                   99.84584 (Kcal/Mol)
 Warning -- explicit consideration of   9 degrees of freedom as
           vibrations may cause significant error
 Vibrational temperatures:    137.62   208.89   262.05   334.13   411.40
          (Kelvin)            483.05   568.36   677.98   730.97  1013.02
                             1028.52  1121.47  1126.94  1226.16  1310.24
                             1326.25  1354.54  1391.78  1445.86  1455.08
                             1488.72  1504.03  1553.23  1568.29  1571.22
                             1589.64  1658.96  1690.09  1702.65  1718.42
                             1734.17  1782.58  1840.30  1861.41  1931.21
                             1980.17  2054.47  2127.81  2136.31  2138.60
                             2170.37  4296.33  4370.40  4468.31  4489.45
                             4515.93  4554.44  4560.30  4576.80  4595.50
                             4644.21

 Zero-point correction=                           0.159114 (Hartree/Particle)
 Thermal correction to Energy=                    0.167088
 Thermal correction to Enthalpy=                  0.168032
 Thermal correction to Gibbs Free Energy=         0.126555
 Sum of electronic and zero-point Energies=           -422.970248
 Sum of electronic and thermal Energies=              -422.962275
 Sum of electronic and thermal Enthalpies=            -422.961330
 Sum of electronic and thermal Free Energies=         -423.002808

                     E (Thermal)             CV                S
                      KCal/Mol        Cal/Mol-Kelvin    Cal/Mol-Kelvin
 Total                  104.849             30.965             87.296
 Electronic               0.000              0.000              0.000
 Translational            0.889              2.981             40.409
 Rotational               0.889              2.981             28.646
 Vibrational            103.072             25.003             18.242
 Vibration     1          0.603              1.952              3.541
 Vibration     2          0.617              1.908              2.734
 Vibration     3          0.630              1.864              2.306
 Vibration     4          0.653              1.792              1.862
 Vibration     5          0.684              1.700              1.498
 Vibration     6          0.717              1.604              1.232
 Vibration     7          0.762              1.481              0.981
 Vibration     8          0.828              1.314              0.734
 Vibration     9          0.863              1.232              0.638

 Optimization completed.
    -- Stationary point found.
 Normal termination of Gaussian 09 at Tue Jan 28 14:46:49 2020.
