 Gaussian 09, Revision D.01,
 Gaussian 09:  ES64L-G09RevD.01 24-Apr-2013

 -----------------------------
 # b3lyp 6-31G(2df,p) opt Freq
 -----------------------------

 -----
 titel
 -----
 Symbolic Z-matrix:
 Charge =  0 Multiplicity = 1

 SCF Done:  E(RB3LYP) =  -423.254163359     A.U. after   15 cycles
 Optimization completed.
    -- Stationary point found.
 Normal termination of Gaussian 09 at Tue Jan 28 13:22:01 2020.

 ----------------------------------------------------------------------
 #N Geom=AllCheck Guess=TCheck SCRF=Check GenChk RB3LYP/6-31G(2df,p) Fr
 eq
 ----------------------------------------------------------------------

 Structure from the checkpoint file:  "/scratch/puck/g09_7481181f-e562-411f-8785-2d4fae7c780a/Gau-144525.chk"
 -----
 titel
 -----
 Charge =  0 Multiplicity = 1

                         Standard orientation:
 ---------------------------------------------------------------------
 Center     Atomic      Atomic             Coordinates (Angstroms)
 Number     Number       Type             X           Y           Z
 ---------------------------------------------------------------------
      1          6           0        2.709236   -1.165793   -0.051707
      2          6           0        1.790148   -0.008428   -0.449473
      3          6           0        0.553462    0.102108    0.449472
      4          8           0       -0.212172   -1.105390    0.375301
      5          6           0       -1.500607   -0.825909   -0.022899
      6          8           0       -2.327815   -1.681596   -0.164349
      7          6           0       -1.595455    0.636896   -0.206739
      8          6           0       -0.415595    1.199227    0.067385
      9          6           0       -0.027306    2.639205    0.040209
     10          1           0        3.570861   -1.225697   -0.722689
     11          1           0        3.087133   -1.037808    0.968640
     12          1           0        2.172347   -2.116382   -0.094989
     13          1           0        2.336486    0.941307   -0.398855
     14          1           0        1.450552   -0.128656   -1.485018
     15          1           0        0.876710    0.226188    1.494489
     16          1           0       -2.513110    1.118330   -0.512891
     17          1           0        0.752730    2.824253   -0.707735
     18          1           0       -0.881769    3.278037   -0.193143
     19          1           0        0.384651    2.952468    1.007086
 ---------------------------------------------------------------------

 SCF Done:  E(RB3LYP) =  -423.254163359     A.U. after    1 cycles

 The electronic state is 1-A.
 Alpha  occ. eigenvalues --  -19.17145 -19.11159 -10.29465 -10.25562 -10.22371
 Alpha  occ. eigenvalues --  -10.20892 -10.20036 -10.19729 -10.18182  -1.09065
 Alpha  occ. eigenvalues --   -1.01218  -0.83546  -0.79199  -0.73277  -0.69973
 Alpha  occ. eigenvalues --   -0.61929  -0.57985  -0.55932  -0.51355  -0.47522
 Alpha  occ. eigenvalues --   -0.45396  -0.44645  -0.43332  -0.42756  -0.41507
 Alpha  occ. eigenvalues --   -0.40557  -0.39715  -0.37616  -0.36076  -0.35070
 Alpha  occ. eigenvalues --   -0.34092  -0.29485  -0.27121  -0.26148
 Alpha virt. eigenvalues --   -0.03539   0.07596   0.08671   0.10210   0.11913
 Alpha virt. eigenvalues --    0.12419   0.12604   0.14037   0.15341   0.16494
 Alpha virt. eigenvalues --    0.17135   0.17318   0.19886   0.21649   0.21775

 Mulliken charges:
               1
     1  C   -0.386272
     2  C   -0.187177
     3  C    0.021132
     4  O   -0.241142
     5  C    0.442848
     6  O   -0.352177
     7  C   -0.380387
     8  C    0.332012
     9  C   -0.499524
    10  H    0.116484
    11  H    0.115918
    12  H    0.147524
    13  H    0.101557
    14  H    0.111626
    15  H    0.102336
    16  H    0.126809
    17  H    0.146012
    18  H    0.141221
    19  H    0.141200
 Sum of Mulliken charges =   0.00000

 Dipole moment (field-independent basis, Debye):
    X=              2.9025    Y=              4.3740    Z=              0.0983  Tot=              5.2503
 Quadrupole moment (field-independent basis, Debye-Ang):
   XX=            -56.6690   YY=            -55.5192   ZZ=            -52.3238
   XY=             -6.6087   XZ=             -0.0095   YZ=              0.2114

  Exact polarizability:  96.208   7.728  85.346   5.251   0.879  56.410
 Approx polarizability: 142.592  25.363 124.098  12.418   3.545  88.542

                      1                      2                      3
                      A                      A                      A
 Frequencies --     94.2690               126.0990               138.6644
 Red. masses --      2.9691                 2.0356                 1.5054
 Frc consts  --      0.0155                 0.0191                 0.0171
 IR Inten    --      0.6225                 0.0103                 0.0492

                      4                      5                      6
                      A                      A                      A
 Frequencies --    172.0290               189.6896               241.7085
 Red. masses --      2.5881                 2.3034                 1.1991
 Frc consts  --      0.0451                 0.0488                 0.0413
 IR Inten    --      1.0311                 1.9165                 0.1384

                      7                      8                      9
                      A                      A                      A
 Frequencies --    265.5654               360.0767               419.6255
 Red. masses --      2.8766                 3.1598                 3.6217
 Frc consts  --      0.1195                 0.2414                 0.3757
 IR Inten    --      0.6454                 0.3898                 0.9111

                     10                     11                     12
                      A                      A                      A
 Frequencies --    535.8233               549.4540               588.2312
 Red. masses --      3.4438                 3.7953                 4.7285
 Frc consts  --      0.5825                 0.6751                 0.9640
 IR Inten    --      5.4840                 4.1943                 1.9966

                     13                     14                     15
                      A                      A                      A
 Frequencies --    686.7144               742.2444               790.2312
 Red. masses --      3.3891                 3.4801                 1.7402
 Frc consts  --      0.9416                 1.1296                 0.6403
 IR Inten    --      1.1060                 2.5880                 8.2510

                     16                     17                     18
                      A                      A                      A
 Frequencies --    857.6791               887.5837               910.8638
 Red. masses --      1.9927                 1.5306                 3.1199
 Frc consts  --      0.8637                 0.7104                 1.5251
 IR Inten    --      1.1778                31.8558                29.9648

                     19                     20                     21
                      A                      A                      A
 Frequencies --    964.7075               992.0706              1014.3783
 Red. masses --      2.6701                 2.6592                 1.5124
 Frc consts  --      1.4641                 1.5420                 0.9169
 IR Inten    --      2.7307                68.2100                 0.9001

                     22                     23                     24
                      A                      A                      A
 Frequencies --   1046.0064              1083.4418              1112.6429
 Red. masses --      1.5562                 2.4002                 2.6564
 Frc consts  --      1.0032                 1.6600                 1.9375
 IR Inten    --      3.7173                12.5696                29.4720

                     25                     26                     27
                      A                      A                      A
 Frequencies --   1138.5372              1164.2909              1183.5202
 Red. masses --      2.3040                 2.4497                 1.8002
 Frc consts  --      1.7597                 1.9565                 1.4857
 IR Inten    --      3.8551                55.5527                15.5951

                     28                     29                     30
                      A                      A                      A
 Frequencies --   1280.8287              1296.9677              1331.5603
 Red. masses --      1.3849                 1.3547                 2.3801
 Frc consts  --      1.3386                 1.3426                 2.4864
 IR Inten    --     16.6563                23.9935                10.8089

                     31                     32                     33
                      A                      A                      A
 Frequencies --   1361.3866              1377.5596              1412.0880
 Red. masses --      1.4119                 1.5335                 1.2411
 Frc consts  --      1.5418                 1.7146                 1.4581
 IR Inten    --      6.7869                 0.6847                 0.0853

                     34                     35                     36
                      A                      A                      A
 Frequencies --   1415.0687              1475.7296              1481.1997
 Red. masses --      1.2803                 1.0696                 1.0526
 Frc consts  --      1.5105                 1.3724                 1.3607
 IR Inten    --      4.3871                 3.8889                 5.2424

                     37                     38                     39
                      A                      A                      A
 Frequencies --   1482.2900              1496.6506              1509.0475
 Red. masses --      1.0646                 1.0419                 1.0546
 Frc consts  --      1.3781                 1.3751                 1.4149
 IR Inten    --      8.6730                 4.2098                 4.7337

                     40                     41                     42
                      A                      A                      A
 Frequencies --   1702.1008              1870.1014              2993.2181
 Red. masses --      7.5419                12.6472                 1.0819
 Frc consts  --     12.8737                26.0601                 5.7112
 IR Inten    --     38.7009               486.9758                20.0401

                     43                     44                     45
                      A                      A                      A
 Frequencies --   3028.6725              3031.4196              3040.2694
 Red. masses --      1.0440                 1.0538                 1.0382
 Frc consts  --      5.6422                 5.7054                 5.6539
 IR Inten    --      5.1321                27.6473                24.9208

                     46                     47                     48
                      A                      A                      A
 Frequencies --   3071.5721              3079.5178              3107.2990
 Red. masses --      1.1010                 1.0982                 1.1005
 Frc consts  --      6.1198                 6.1361                 6.2604
 IR Inten    --     19.1084                 8.9391                32.5914

                     49                     50                     51
                      A                      A                      A
 Frequencies --   3126.9206              3130.7004              3243.1813
 Red. masses --      1.0996                 1.1014                 1.0976
 Frc consts  --      6.3344                 6.3604                 6.8018
 IR Inten    --     12.2175                16.9146                 1.1532

 - Thermochemistry -
 -------------------
 Temperature   298.150 Kelvin.  Pressure   1.00000 Atm.
 Atom     1 has atomic number  6 and mass  12.00000

 Molecular mass:   126.06808 amu.
 Principal axes and moments of inertia in atomic units:
                           1         2         3
     Eigenvalues --   879.567171204.779911969.36072
           X            0.99158  -0.12946  -0.00102
           Y            0.12946   0.99158  -0.00009
           Z            0.00103  -0.00004   1.00000
 This molecule is an asymmetric top.
 Rotational symmetry number  1.
 Warning -- assumption of classical behavior for rotation
           may cause significant error
 Rotational temperatures (Kelvin)      0.09847     0.07189     0.04398
 Rotational constants (GHZ):           2.05185     1.49798     0.91641
 Zero-point vibrational energy     416309.4 (Joules/Mol)
                                   99.50034 (Kcal/Mol)
 Warning -- explicit consideration of  12 degrees of freedom as
           vibrations may cause significant error
 Vibrational temperatures:    135.63   181.43   199.51   247.51   272.92
          (Kelvin)            347.76   382.09   518.07   603.75   770.93
                              790.54   846.33   988.03  1067.92  1136.96
                             1234.01  1277.03  1310.53  1388.00  1427.37
                             1459.46  1504.97  1558.83  1600.84  1638.10
                             1675.15  1702.82  1842.82  1866.04  1915.82
                             1958.73  1982.00  2031.68  2035.97  2123.24
                             2131.11  2132.68  2153.34  2171.18  2448.94
                             2690.66  4306.57  4357.58  4361.53  4374.26
                             4419.30  4430.73  4470.70  4498.94  4504.37
                             4666.21

 Zero-point correction=                           0.158564 (Hartree/Particle)
 Thermal correction to Energy=                    0.167650
 Thermal correction to Enthalpy=                  0.168594
 Thermal correction to Gibbs Free Energy=         0.124547
 Sum of electronic and zero-point Energies=           -423.095599
 Sum of electronic and thermal Energies=              -423.086514
 Sum of electronic and thermal Enthalpies=            -423.085569
 Sum of electronic and thermal Free Energies=         -423.129616

                     E (Thermal)             CV                S
                      KCal/Mol        Cal/Mol-Kelvin    Cal/Mol-Kelvin
 Total                  105.202             33.263             92.704
 Electronic               0.000              0.000              0.000
 Translational            0.889              2.981             40.409
 Rotational               0.889              2.981             29.125
 Vibrational            103.424             27.301             23.170
 Vibration     1          0.603              1.953              3.569
 Vibration     2          0.611              1.927              3.005
 Vibration     3          0.614              1.915              2.822
 Vibration     4          0.626              1.877              2.413
 Vibration     5          0.633              1.854              2.231
 Vibration     6          0.658              1.776              1.790
 Vibration     7          0.671              1.736              1.625
 Vibration     8          0.735              1.555              1.122
 Vibration     9          0.782              1.428              0.893
 Vibration    10          0.891              1.171              0.574
 Vibration    11          0.905              1.141              0.545
 Vibration    12          0.945              1.057              0.470

 Optimization completed.
    -- Stationary point found.
 Normal termination of Gaussian 09 at Tue Jan 28 14:01:10 2020.
