 Gaussian 09, Revision D.01,
 Gaussian 09:  ES64L-G09RevD.01 24-Apr-2013

 -----------------------------
 # b3lyp 6-31G(2df,p) opt Freq
 -----------------------------

 -----
 titel
 -----
 Symbolic Z-matrix:
 Charge =  0 Multiplicity = 1

 SCF Done:  E(RB3LYP) =  -423.177771528     A.U. after   14 cycles
 Optimization completed.
    -- Stationary point found.
 Normal termination of Gaussian 09 at Tue Jan 28 00:06:13 2020.

 ----------------------------------------------------------------------
 #N Geom=AllCheck Guess=TCheck SCRF=Check GenChk RB3LYP/6-31G(2df,p) Fr
 eq
 ----------------------------------------------------------------------

 Structure from the checkpoint file:  "/scratch/puck/g09_8e8ea712-92ff-4ad4-acab-f2b2bb957e63/Gau-21323.chk"
 -----
 titel
 -----
 Charge =  0 Multiplicity = 1

                         Standard orientation:
 ---------------------------------------------------------------------
 Center     Atomic      Atomic             Coordinates (Angstroms)
 Number     Number       Type             X           Y           Z
 ---------------------------------------------------------------------
      1          8           0        2.458141   -0.062560   -0.752688
      2          6           0        1.452616    0.434245    0.125640
      3          6           0        1.124049   -0.645920    1.130459
      4          6           0       -0.112892   -1.120258    0.998042
      5          6           0       -0.882668   -0.457791   -0.111989
      6          8           0       -1.309460   -1.445441   -1.019821
      7          6           0       -1.931466    0.600048    0.344261
      8          6           0       -0.848378    1.703076    0.208402
      9          6           0        0.087827    0.705785   -0.537199
     10          1           0        2.767593    0.673354   -1.290613
     11          1           0        1.816746    1.344509    0.630607
     12          1           0        1.857744   -0.987935    1.851641
     13          1           0       -0.557009   -1.911241    1.592974
     14          1           0       -1.872959   -1.024774   -1.677329
     15          1           0       -2.723424    0.709336   -0.405632
     16          1           0       -2.402028    0.456229    1.320248
     17          1           0       -1.143181    2.596664   -0.345319
     18          1           0       -0.435331    2.017097    1.170847
     19          1           0        0.167866    0.875658   -1.613039
 ---------------------------------------------------------------------

 SCF Done:  E(RB3LYP) =  -423.177771528     A.U. after    1 cycles

 The electronic state is 1-A.
 Alpha  occ. eigenvalues --  -19.13428 -19.13003 -10.23335 -10.23042 -10.18343
 Alpha  occ. eigenvalues --  -10.18152 -10.18003 -10.17912 -10.17767  -1.01972
 Alpha  occ. eigenvalues --   -1.01118  -0.85563  -0.77434  -0.70235  -0.64938
 Alpha  occ. eigenvalues --   -0.62096  -0.56202  -0.53129  -0.51206  -0.50270
 Alpha  occ. eigenvalues --   -0.48324  -0.44098  -0.40465  -0.40020  -0.39140
 Alpha  occ. eigenvalues --   -0.37599  -0.37096  -0.34509  -0.32939  -0.31101
 Alpha  occ. eigenvalues --   -0.29416  -0.27413  -0.25805  -0.24303
 Alpha virt. eigenvalues --    0.01036   0.07856   0.09096   0.09852   0.11201
 Alpha virt. eigenvalues --    0.13002   0.14434   0.15193   0.16387   0.17720
 Alpha virt. eigenvalues --    0.18059   0.20132   0.21364   0.22611   0.23400

 Mulliken charges:
               1
     1  O   -0.439876
     2  C    0.070306
     3  C   -0.067792
     4  C   -0.099248
     5  C    0.390563
     6  O   -0.483128
     7  C   -0.293392
     8  C   -0.239196
     9  C   -0.113114
    10  H    0.278785
    11  H    0.064428
    12  H    0.100361
    13  H    0.100941
    14  H    0.274687
    15  H    0.088863
    16  H    0.102612
    17  H    0.099289
    18  H    0.104609
    19  H    0.060302
 Sum of Mulliken charges =   0.00000

 Dipole moment (field-independent basis, Debye):
    X=             -0.8542    Y=              2.5705    Z=             -0.1899  Tot=              2.7154
 Quadrupole moment (field-independent basis, Debye-Ang):
   XX=            -51.5078   YY=            -55.3540   ZZ=            -49.0390
   XY=              2.9370   XZ=              1.7489   YZ=             -4.1049

  Exact polarizability:  88.220   2.909  71.358   2.251  -4.759  69.014
 Approx polarizability: 128.635   9.178 105.886   3.839  -4.521 103.471

                      1                      2                      3
                      A                      A                      A
 Frequencies --     98.2519               175.3842               221.1936
 Red. masses --      3.4061                 2.6997                 2.6114
 Frc consts  --      0.0194                 0.0489                 0.0753
 IR Inten    --      0.6332                 0.2314                 6.1599

                      4                      5                      6
                      A                      A                      A
 Frequencies --    263.9096               284.2975               339.0221
 Red. masses --      1.1284                 1.1622                 3.0723
 Frc consts  --      0.0463                 0.0553                 0.2080
 IR Inten    --    108.4732                58.2861                25.0413

                      7                      8                      9
                      A                      A                      A
 Frequencies --    362.3237               379.9112               425.7787
 Red. masses --      4.2912                 3.4784                 2.8713
 Frc consts  --      0.3319                 0.2958                 0.3067
 IR Inten    --     11.0839                 5.6192                 0.4461

                     10                     11                     12
                      A                      A                      A
 Frequencies --    568.5632               622.9076               662.0911
 Red. masses --      3.8026                 4.1080                 2.5580
 Frc consts  --      0.7243                 0.9391                 0.6607
 IR Inten    --     13.8960                11.3018                 3.7299

                     13                     14                     15
                      A                      A                      A
 Frequencies --    727.7420               767.0565               812.9194
 Red. masses --      2.5665                 2.1645                 1.6092
 Frc consts  --      0.8008                 0.7504                 0.6265
 IR Inten    --      3.2532                 2.4383                 6.5371

                     16                     17                     18
                      A                      A                      A
 Frequencies --    840.0056               874.9017               944.1887
 Red. masses --      1.8826                 2.2868                 2.2906
 Frc consts  --      0.7827                 1.0313                 1.2032
 IR Inten    --      2.5646                 6.2385                 9.5540

                     19                     20                     21
                      A                      A                      A
 Frequencies --    947.7748               969.6409               986.0388
 Red. masses --      2.4706                 1.8360                 1.3213
 Frc consts  --      1.3076                 1.0171                 0.7569
 IR Inten    --      1.2868                 3.5836                 0.0815

                     22                     23                     24
                      A                      A                      A
 Frequencies --   1023.7568              1051.8901              1060.8244
 Red. masses --      3.2402                 3.3171                 1.7317
 Frc consts  --      2.0009                 2.1625                 1.1482
 IR Inten    --     23.5969                46.4193                19.2016

                     25                     26                     27
                      A                      A                      A
 Frequencies --   1098.9779              1122.3784              1131.7770
 Red. masses --      2.0092                 1.7180                 2.1268
 Frc consts  --      1.4298                 1.2751                 1.6051
 IR Inten    --      5.0246                13.3307                69.3479

                     28                     29                     30
                      A                      A                      A
 Frequencies --   1168.4996              1204.4123              1217.7653
 Red. masses --      1.6015                 1.6841                 1.2401
 Frc consts  --      1.2884                 1.4394                 1.0835
 IR Inten    --     24.4222                91.8813                28.2927

                     31                     32                     33
                      A                      A                      A
 Frequencies --   1230.6647              1255.5024              1267.0158
 Red. masses --      1.2223                 1.4257                 1.7627
 Frc consts  --      1.0907                 1.3240                 1.6673
 IR Inten    --     31.4629                11.2626                35.4453

                     34                     35                     36
                      A                      A                      A
 Frequencies --   1287.4774              1321.4981              1347.9423
 Red. masses --      1.5259                 1.3821                 1.4220
 Frc consts  --      1.4902                 1.4221                 1.5222
 IR Inten    --      2.1092                16.9163                28.5907

                     37                     38                     39
                      A                      A                      A
 Frequencies --   1412.0443              1429.8265              1476.2097
 Red. masses --      1.8279                 1.5579                 1.0960
 Frc consts  --      2.1473                 1.8766                 1.4072
 IR Inten    --     22.8564                13.8613                 1.6528

                     40                     41                     42
                      A                      A                      A
 Frequencies --   1492.1260              1685.1357              2957.8226
 Red. masses --      1.1266                 6.8562                 1.0824
 Frc consts  --      1.4779                11.4710                 5.5791
 IR Inten    --      3.3181                 1.5975                56.3191

                     43                     44                     45
                      A                      A                      A
 Frequencies --   3035.9803              3062.3863              3087.5301
 Red. masses --      1.0622                 1.0599                 1.0906
 Frc consts  --      5.7684                 5.8566                 6.1256
 IR Inten    --     41.2574                30.9866                23.7590

                     46                     47                     48
                      A                      A                      A
 Frequencies --   3095.7996              3117.3260              3184.8419
 Red. masses --      1.1007                 1.1061                 1.0849
 Frc consts  --      6.2154                 6.3332                 6.4839
 IR Inten    --      8.6326                42.9249                 5.8623

                     49                     50                     51
                      A                      A                      A
 Frequencies --   3210.1337              3809.9872              3812.7242
 Red. masses --      1.1039                 1.0659                 1.0662
 Frc consts  --      6.7024                 9.1161                 9.1315
 IR Inten    --     16.8052                12.3786                15.5030

 - Thermochemistry -
 -------------------
 Temperature   298.150 Kelvin.  Pressure   1.00000 Atm.
 Atom     1 has atomic number  8 and mass  15.99491

 Molecular mass:   126.06808 amu.
 Principal axes and moments of inertia in atomic units:
                           1         2         3
     Eigenvalues --   711.780601200.793681373.09469
           X            0.99994  -0.00950   0.00463
           Y            0.00974   0.99833  -0.05687
           Z           -0.00409   0.05691   0.99837
 This molecule is an asymmetric top.
 Rotational symmetry number  1.
 Warning -- assumption of classical behavior for rotation
           may cause significant error
 Rotational temperatures (Kelvin)      0.12169     0.07213     0.06308
 Rotational constants (GHZ):           2.53553     1.50296     1.31436
 Zero-point vibrational energy     418299.2 (Joules/Mol)
                                   99.97590 (Kcal/Mol)
 Warning -- explicit consideration of  10 degrees of freedom as
           vibrations may cause significant error
 Vibrational temperatures:    141.36   252.34   318.25   379.71   409.04
          (Kelvin)            487.78   521.30   546.61   612.60   818.03
                              896.22   952.60  1047.06  1103.62  1169.61
                             1208.58  1258.79  1358.48  1363.63  1395.10
                             1418.69  1472.96  1513.43  1526.29  1581.18
                             1614.85  1628.37  1681.21  1732.88  1752.09
                             1770.65  1806.39  1822.95  1852.39  1901.34
                             1939.39  2031.61  2057.20  2123.93  2146.83
                             2424.53  4255.64  4368.09  4406.09  4442.26
                             4454.16  4485.13  4582.27  4618.66  5481.71
                             5485.65

 Zero-point correction=                           0.159322 (Hartree/Particle)
 Thermal correction to Energy=                    0.167595
 Thermal correction to Enthalpy=                  0.168539
 Thermal correction to Gibbs Free Energy=         0.126877
 Sum of electronic and zero-point Energies=           -423.018450
 Sum of electronic and thermal Energies=              -423.010177
 Sum of electronic and thermal Enthalpies=            -423.009233
 Sum of electronic and thermal Free Energies=         -423.050895

                     E (Thermal)             CV                S
                      KCal/Mol        Cal/Mol-Kelvin    Cal/Mol-Kelvin
 Total                  105.167             32.761             87.685
 Electronic               0.000              0.000              0.000
 Translational            0.889              2.981             40.409
 Rotational               0.889              2.981             28.553
 Vibrational            103.390             26.800             18.723
 Vibration     1          0.604              1.950              3.489
 Vibration     2          0.627              1.873              2.377
 Vibration     3          0.648              1.809              1.949
 Vibration     4          0.670              1.739              1.636
 Vibration     5          0.683              1.703              1.508
 Vibration     6          0.719              1.598              1.217
 Vibration     7          0.736              1.550              1.112
 Vibration     8          0.750              1.513              1.040
 Vibration     9          0.788              1.414              0.873
 Vibration    10          0.925              1.099              0.507

 Optimization completed.
    -- Stationary point found.
 Normal termination of Gaussian 09 at Tue Jan 28 00:58:22 2020.
