 Gaussian 09, Revision D.01,
 Gaussian 09:  ES64L-G09RevD.01 24-Apr-2013

 -----------------------------
 # b3lyp 6-31G(2df,p) opt Freq
 -----------------------------

 -----
 titel
 -----
 Symbolic Z-matrix:
 Charge =  0 Multiplicity = 1

 SCF Done:  E(RB3LYP) =  -423.124645218     A.U. after   14 cycles
 Optimization completed.
    -- Stationary point found.
 Normal termination of Gaussian 09 at Mon Jan 27 11:52:04 2020.

 ----------------------------------------------------------------------
 #N Geom=AllCheck Guess=TCheck SCRF=Check GenChk RB3LYP/6-31G(2df,p) Fr
 eq
 ----------------------------------------------------------------------

 Structure from the checkpoint file:  "/scratch/puck/g09_ebd93dc6-076e-4ad0-8d2b-a02cf2b1a9c9/Gau-71107.chk"
 -----
 titel
 -----
 Charge =  0 Multiplicity = 1

                         Standard orientation:
 ---------------------------------------------------------------------
 Center     Atomic      Atomic             Coordinates (Angstroms)
 Number     Number       Type             X           Y           Z
 ---------------------------------------------------------------------
      1          6           0       -2.569787    0.815984    0.000006
      2          8           0       -2.707414   -0.614112   -0.000038
      3          6           0       -1.404817   -0.069543   -0.000004
      4          6           0       -0.358161   -0.285644   -1.095019
      5          6           0        0.733419   -0.127320    0.000025
      6          6           0        1.659014    1.108021    0.000055
      7          8           0        2.839376    0.281978   -0.000062
      8          6           0        2.048680   -0.923964   -0.000003
      9          6           0       -0.358191   -0.285708    1.095027
     10          1           0       -2.874681    1.312769   -0.920481
     11          1           0       -2.874707    1.312715    0.920513
     12          1           0       -0.398567   -1.305999   -1.490765
     13          1           0       -0.336672    0.418809   -1.930879
     14          1           0        1.602064    1.743643   -0.893884
     15          1           0        1.602150    1.743508    0.894097
     16          1           0        2.229530   -1.536000   -0.893901
     17          1           0        2.229582   -1.535943    0.893927
     18          1           0       -0.398607   -1.306085    1.490715
     19          1           0       -0.336724    0.418697    1.930928
 ---------------------------------------------------------------------

 SCF Done:  E(RB3LYP) =  -423.124645218     A.U. after    1 cycles

 The electronic state is 1-A.
 Alpha  occ. eigenvalues --  -19.15266 -19.13213 -10.24610 -10.23565 -10.23157
 Alpha  occ. eigenvalues --  -10.23030 -10.20677 -10.19148 -10.19148  -1.07443
 Alpha  occ. eigenvalues --   -1.03799  -0.84899  -0.69868  -0.69335  -0.68116
 Alpha  occ. eigenvalues --   -0.66387  -0.56485  -0.53613  -0.50560  -0.49698
 Alpha  occ. eigenvalues --   -0.47797  -0.47296  -0.44960  -0.41750  -0.41739
 Alpha  occ. eigenvalues --   -0.38850  -0.38521  -0.35607  -0.32687  -0.32574
 Alpha  occ. eigenvalues --   -0.29875  -0.28849  -0.26622  -0.24783
 Alpha virt. eigenvalues --    0.06185   0.06927   0.08495   0.11051   0.11603
 Alpha virt. eigenvalues --    0.11925   0.13988   0.14583   0.15104   0.15254
 Alpha virt. eigenvalues --    0.16198   0.17379   0.19351   0.20308   0.20647

 Mulliken charges:
               1
     1  C   -0.267373
     2  O   -0.270667
     3  C    0.470520
     4  C   -0.391872
     5  C    0.300941
     6  C   -0.123085
     7  O   -0.273159
     8  C   -0.139262
     9  C   -0.391879
    10  H    0.116615
    11  H    0.116615
    12  H    0.116874
    13  H    0.109282
    14  H    0.099218
    15  H    0.099215
    16  H    0.100933
    17  H    0.100930
    18  H    0.116874
    19  H    0.109281
 Sum of Mulliken charges =   0.00000

 Dipole moment (field-independent basis, Debye):
    X=             -0.5612    Y=              0.8892    Z=              0.0002  Tot=              1.0515
 Quadrupole moment (field-independent basis, Debye-Ang):
   XX=            -66.1459   YY=            -50.5602   ZZ=            -51.1706
   XY=             -6.2659   XZ=              0.0002   YZ=              0.0000

  Exact polarizability:  83.978  -6.542  72.958   0.000   0.000  69.057
 Approx polarizability: 108.918  -4.785 110.609   0.000   0.000 100.914

                      1                      2                      3
                      A                      A                      A
 Frequencies --     48.8340                58.8999               223.9950
 Red. masses --      3.9115                 3.8654                 2.2266
 Frc consts  --      0.0055                 0.0079                 0.0658
 IR Inten    --      2.5697                 6.7425                 0.9552

                      4                      5                      6
                      A                      A                      A
 Frequencies --    286.2547               308.4986               331.8643
 Red. masses --      3.0815                 3.5805                 1.8993
 Frc consts  --      0.1488                 0.2008                 0.1232
 IR Inten    --      1.9574                 3.7655                 0.4526

                      7                      8                      9
                      A                      A                      A
 Frequencies --    380.2836               417.1136               431.4262
 Red. masses --      2.4253                 3.0724                 2.3140
 Frc consts  --      0.2066                 0.3149                 0.2538
 IR Inten    --      0.5050                 3.0800                 0.8051

                     10                     11                     12
                      A                      A                      A
 Frequencies --    641.1644               805.7163               832.0199
 Red. masses --      3.7133                 3.2152                 1.4402
 Frc consts  --      0.8994                 1.2297                 0.5874
 IR Inten    --      3.1617                16.9600                 0.0190

                     13                     14                     15
                      A                      A                      A
 Frequencies --    857.8742               867.2452               870.3992
 Red. masses --      3.7922                 1.9285                 4.2288
 Frc consts  --      1.6443                 0.8546                 1.8876
 IR Inten    --      1.2671                 0.2380                35.3940

                     16                     17                     18
                      A                      A                      A
 Frequencies --    897.6807               910.6643               963.1342
 Red. masses --      1.3964                 2.5262                 3.8674
 Frc consts  --      0.6630                 1.2343                 2.1137
 IR Inten    --      2.5211                10.2108                12.2666

                     19                     20                     21
                      A                      A                      A
 Frequencies --    980.5103               992.8359              1041.0458
 Red. masses --      1.3867                 4.8564                11.5928
 Frc consts  --      0.7855                 2.8205                 7.4025
 IR Inten    --      0.3094                14.2778                88.7109

                     22                     23                     24
                      A                      A                      A
 Frequencies --   1069.9800              1126.2911              1142.5348
 Red. masses --      1.0771                 1.2773                 1.5854
 Frc consts  --      0.7265                 0.9547                 1.2194
 IR Inten    --      0.2192                 2.8594                 9.8063

                     25                     26                     27
                      A                      A                      A
 Frequencies --   1145.7193              1149.4183              1157.7338
 Red. masses --      1.6014                 2.1170                 1.0707
 Frc consts  --      1.2385                 1.6479                 0.8455
 IR Inten    --      1.4686                15.8785                 0.0148

                     28                     29                     30
                      A                      A                      A
 Frequencies --   1168.3048              1193.3938              1212.7149
 Red. masses --      1.7999                 2.0609                 1.5685
 Frc consts  --      1.4475                 1.7294                 1.3591
 IR Inten    --      2.2490                 0.3040                 1.1860

                     31                     32                     33
                      A                      A                      A
 Frequencies --   1242.1702              1255.5678              1295.5101
 Red. masses --      2.3973                 1.7398                 2.2501
 Frc consts  --      2.1794                 1.6159                 2.2250
 IR Inten    --      1.0239                 1.0894                 3.7272

                     34                     35                     36
                      A                      A                      A
 Frequencies --   1308.6144              1382.4396              1435.9637
 Red. masses --      1.3069                 1.6451                 1.9938
 Frc consts  --      1.3186                 1.8524                 2.4223
 IR Inten    --      1.4302                 2.1387                29.3129

                     37                     38                     39
                      A                      A                      A
 Frequencies --   1459.8556              1483.1345              1506.4636
 Red. masses --      1.0916                 1.1707                 1.0804
 Frc consts  --      1.3707                 1.5173                 1.4446
 IR Inten    --      5.8371                 1.9383                 1.3046

                     40                     41                     42
                      A                      A                      A
 Frequencies --   1531.8002              1538.0669              2992.3226
 Red. masses --      1.1115                 1.6682                 1.0518
 Frc consts  --      1.5366                 2.3251                 5.5489
 IR Inten    --      0.0089                11.4295               125.7653

                     43                     44                     45
                      A                      A                      A
 Frequencies --   3004.5967              3039.7293              3040.9977
 Red. masses --      1.0573                 1.1092                 1.1028
 Frc consts  --      5.6237                 6.0383                 6.0088
 IR Inten    --      3.2717                24.7043                14.8255

                     46                     47                     48
                      A                      A                      A
 Frequencies --   3044.7277              3049.9540              3078.3908
 Red. masses --      1.0663                 1.0596                 1.0502
 Frc consts  --      5.8241                 5.8074                 5.8637
 IR Inten    --     79.4290                 3.8648                25.4111

                     49                     50                     51
                      A                      A                      A
 Frequencies --   3102.0355              3102.1126              3165.5115
 Red. masses --      1.1077                 1.1068                 1.1195
 Frc consts  --      6.2800                 6.2754                 6.6095
 IR Inten    --     24.1371                 9.3577                21.9412

 - Thermochemistry -
 -------------------
 Temperature   298.150 Kelvin.  Pressure   1.00000 Atm.
 Atom     1 has atomic number  6 and mass  12.00000

 Molecular mass:   126.06808 amu.
 Principal axes and moments of inertia in atomic units:
                           1         2         3
     Eigenvalues --   379.126881858.037641910.75612
           X            0.99981  -0.01925   0.00000
           Y            0.01925   0.99981   0.00000
           Z            0.00000   0.00000   1.00000
 This molecule is an asymmetric top.
 Rotational symmetry number  1.
 Rotational temperatures (Kelvin)      0.22846     0.04662     0.04533
 Rotational constants (GHZ):           4.76026     0.97132     0.94452
 Zero-point vibrational energy     416142.0 (Joules/Mol)
                                   99.46033 (Kcal/Mol)
 Warning -- explicit consideration of   9 degrees of freedom as
           vibrations may cause significant error
 Vibrational temperatures:     70.26    84.74   322.28   411.86   443.86
          (Kelvin)            477.48   547.14   600.13   620.73   922.49
                             1159.24  1197.09  1234.29  1247.77  1252.31
                             1291.56  1310.24  1385.73  1410.73  1428.47
                             1497.83  1539.46  1620.48  1643.85  1648.43
                             1653.75  1665.72  1680.93  1717.03  1744.82
                             1787.20  1806.48  1863.95  1882.80  1989.02
                             2066.03  2100.40  2133.90  2167.46  2203.92
                             2212.93  4305.28  4322.94  4373.49  4375.31
                             4380.68  4388.20  4429.11  4463.13  4463.24
                             4554.46

 Zero-point correction=                           0.158500 (Hartree/Particle)
 Thermal correction to Energy=                    0.166643
 Thermal correction to Enthalpy=                  0.167587
 Thermal correction to Gibbs Free Energy=         0.124883
 Sum of electronic and zero-point Energies=           -422.966145
 Sum of electronic and thermal Energies=              -422.958003
 Sum of electronic and thermal Enthalpies=            -422.957058
 Sum of electronic and thermal Free Energies=         -422.999762

                     E (Thermal)             CV                S
                      KCal/Mol        Cal/Mol-Kelvin    Cal/Mol-Kelvin
 Total                  104.570             30.779             89.878
 Electronic               0.000              0.000              0.000
 Translational            0.889              2.981             40.409
 Rotational               0.889              2.981             28.689
 Vibrational            102.792             24.817             20.781
 Vibration     1          0.595              1.978              4.864
 Vibration     2          0.596              1.974              4.494
 Vibration     3          0.649              1.805              1.927
 Vibration     4          0.684              1.699              1.496
 Vibration     5          0.698              1.658              1.370
 Vibration     6          0.714              1.612              1.251
 Vibration     7          0.750              1.512              1.038
 Vibration     8          0.780              1.433              0.902
 Vibration     9          0.792              1.402              0.854

 Optimization completed.
    -- Stationary point found.
 Normal termination of Gaussian 09 at Mon Jan 27 12:31:47 2020.
