 Gaussian 09, Revision D.01,
 Gaussian 09:  ES64L-G09RevD.01 24-Apr-2013

 -----------------------------
 # b3lyp 6-31G(2df,p) opt Freq
 -----------------------------

 -----
 titel
 -----
 Symbolic Z-matrix:
 Charge =  0 Multiplicity = 1

 SCF Done:  E(RB3LYP) =  -423.217536173     A.U. after   14 cycles
 Optimization completed.
    -- Stationary point found.
 Normal termination of Gaussian 09 at Mon Jan 27 11:12:39 2020.

 ----------------------------------------------------------------------
 #N Geom=AllCheck Guess=TCheck SCRF=Check GenChk RB3LYP/6-31G(2df,p) Fr
 eq
 ----------------------------------------------------------------------

 Structure from the checkpoint file:  "/scratch/puck/g09_0cd2fecf-a563-4674-8e80-6402fdaa8b6d/Gau-94687.chk"
 -----
 titel
 -----
 Charge =  0 Multiplicity = 1

                         Standard orientation:
 ---------------------------------------------------------------------
 Center     Atomic      Atomic             Coordinates (Angstroms)
 Number     Number       Type             X           Y           Z
 ---------------------------------------------------------------------
      1          6           0        3.335505   -0.937149   -0.130890
      2          6           0        1.997517   -0.303575    0.003977
      3          6           0        0.770673   -0.768924    0.361597
      4          6           0       -0.139257    0.347013    0.307689
      5          6           0       -1.609274    0.342111    0.597197
      6          6           0       -2.419954   -0.389053   -0.474904
      7          8           0       -3.782640   -0.356058   -0.080946
      8          6           0        0.621200    1.403149   -0.083946
      9          8           0        1.918132    1.029963   -0.272351
     10          1           0        3.722991   -0.846563   -1.152155
     11          1           0        4.069494   -0.474106    0.538527
     12          1           0        3.269579   -1.998916    0.116521
     13          1           0        0.534712   -1.784864    0.641102
     14          1           0       -1.811619   -0.139592    1.561325
     15          1           0       -1.985044    1.367868    0.673604
     16          1           0       -2.266683    0.104742   -1.447243
     17          1           0       -2.055185   -1.423842   -0.574086
     18          1           0       -4.302244   -0.801272   -0.756337
     19          1           0        0.401598    2.443867   -0.259204
 ---------------------------------------------------------------------

 SCF Done:  E(RB3LYP) =  -423.217536173     A.U. after    1 cycles

 The electronic state is 1-A.
 Alpha  occ. eigenvalues --  -19.19185 -19.13132 -10.22747 -10.22478 -10.21570
 Alpha  occ. eigenvalues --  -10.18918 -10.18256 -10.17901 -10.16934  -1.09538
 Alpha  occ. eigenvalues --   -1.01241  -0.80722  -0.77580  -0.73308  -0.67946
 Alpha  occ. eigenvalues --   -0.62070  -0.57172  -0.54011  -0.51539  -0.48859
 Alpha  occ. eigenvalues --   -0.46127  -0.45232  -0.42329  -0.40866  -0.40061
 Alpha  occ. eigenvalues --   -0.39429  -0.39100  -0.37182  -0.36264  -0.33784
 Alpha  occ. eigenvalues --   -0.32791  -0.26518  -0.25902  -0.20996
 Alpha virt. eigenvalues --    0.02439   0.07538   0.08196   0.11004   0.11633
 Alpha virt. eigenvalues --    0.12897   0.14239   0.15520   0.16245   0.18027
 Alpha virt. eigenvalues --    0.18340   0.19425   0.20088   0.21014   0.23058

 Mulliken charges:
               1
     1  C   -0.488318
     2  C    0.380255
     3  C   -0.382666
     4  C    0.254604
     5  C   -0.306617
     6  C   -0.060311
     7  O   -0.418389
     8  C   -0.123953
     9  O   -0.180923
    10  H    0.137117
    11  H    0.137901
    12  H    0.134164
    13  H    0.102309
    14  H    0.114259
    15  H    0.109532
    16  H    0.089286
    17  H    0.087288
    18  H    0.285772
    19  H    0.128689
 Sum of Mulliken charges =   0.00000

 Dipole moment (field-independent basis, Debye):
    X=              0.2493    Y=             -1.1601    Z=             -1.0461  Tot=              1.5818
 Quadrupole moment (field-independent basis, Debye-Ang):
   XX=            -51.5327   YY=            -49.5843   ZZ=            -53.3719
   XY=              0.0393   XZ=              5.0709   YZ=              0.5094

  Exact polarizability: 106.143  -3.403  77.358  -4.169  -2.868  55.281
 Approx polarizability: 139.213   1.098 124.831 -10.607  -8.662  85.385

                      1                      2                      3
                      A                      A                      A
 Frequencies --     54.4039                88.6108                95.2315
 Red. masses --      2.6396                 2.9721                 3.2578
 Frc consts  --      0.0046                 0.0137                 0.0174
 IR Inten    --      1.2378                 5.3311                 0.5500

                      4                      5                      6
                      A                      A                      A
 Frequencies --    126.1753               219.7555               255.3699
 Red. masses --      1.1423                 3.0350                 1.0768
 Frc consts  --      0.0107                 0.0864                 0.0414
 IR Inten    --      0.1203                 3.6094               101.4130

                      7                      8                      9
                      A                      A                      A
 Frequencies --    266.7156               342.3004               375.4466
 Red. masses --      2.6196                 5.6402                 3.3505
 Frc consts  --      0.1098                 0.3894                 0.2783
 IR Inten    --      4.7367                 7.9799                 0.2697

                     10                     11                     12
                      A                      A                      A
 Frequencies --    396.8467               619.2269               638.2378
 Red. masses --      3.4563                 3.4940                 4.3134
 Frc consts  --      0.3207                 0.7894                 1.0352
 IR Inten    --      0.6551                 7.9883                 1.8191

                     13                     14                     15
                      A                      A                      A
 Frequencies --    671.5524               739.4158               770.1357
 Red. masses --      3.1277                 1.4626                 3.0330
 Frc consts  --      0.8311                 0.4712                 1.0599
 IR Inten    --      5.6468                 8.6498                17.9446

                     16                     17                     18
                      A                      A                      A
 Frequencies --    799.7489               816.1232               942.6775
 Red. masses --      1.1673                 1.4709                 2.7432
 Frc consts  --      0.4399                 0.5772                 1.4363
 IR Inten    --      1.5842                24.9979                22.8195

                     19                     20                     21
                      A                      A                      A
 Frequencies --    992.5347              1008.5357              1020.2924
 Red. masses --      3.2619                 2.1838                 2.2440
 Frc consts  --      1.8933                 1.3087                 1.3763
 IR Inten    --      0.1620                32.3550                 0.7626

                     22                     23                     24
                      A                      A                      A
 Frequencies --   1058.3360              1064.6671              1078.8075
 Red. masses --      1.6474                 1.4775                 5.5717
 Frc consts  --      1.0872                 0.9867                 3.8205
 IR Inten    --      4.2218                 2.0027                90.0104

                     25                     26                     27
                      A                      A                      A
 Frequencies --   1162.5522              1171.3940              1211.3951
 Red. masses --      2.2606                 2.7198                 1.3738
 Frc consts  --      1.8001                 2.1988                 1.1878
 IR Inten    --     20.5698                 9.8057                 0.3248

                     28                     29                     30
                      A                      A                      A
 Frequencies --   1237.6874              1249.5413              1292.4269
 Red. masses --      1.1896                 1.5219                 2.1988
 Frc consts  --      1.0737                 1.4001                 2.1640
 IR Inten    --     37.1301                 9.1794                 6.7045

                     31                     32                     33
                      A                      A                      A
 Frequencies --   1309.8350              1344.5731              1406.3725
 Red. masses --      1.1506                 1.6577                 3.1932
 Frc consts  --      1.1631                 1.7657                 3.7211
 IR Inten    --      2.3180                12.6437                 6.3467

                     34                     35                     36
                      A                      A                      A
 Frequencies --   1415.5870              1455.2098              1472.6612
 Red. masses --      1.2921                 1.4426                 1.0426
 Frc consts  --      1.5255                 1.7999                 1.3323
 IR Inten    --      4.0223                 7.5630                 5.1258

                     37                     38                     39
                      A                      A                      A
 Frequencies --   1488.5022              1491.0006              1526.1079
 Red. masses --      1.0965                 1.1171                 1.0859
 Frc consts  --      1.4314                 1.4632                 1.4901
 IR Inten    --      2.7862                 5.3061                 2.8894

                     40                     41                     42
                      A                      A                      A
 Frequencies --   1589.7547              1660.3994              2969.8115
 Red. masses --      5.5089                 6.4666                 1.0547
 Frc consts  --      8.2030                10.5039                 5.4805
 IR Inten    --     17.5902                11.8303                49.6569

                     43                     44                     45
                      A                      A                      A
 Frequencies --   2998.6330              3030.0042              3036.0433
 Red. masses --      1.1058                 1.0382                 1.0605
 Frc consts  --      5.8585                 5.6157                 5.7592
 IR Inten    --     44.5523                35.9616                30.0241

                     46                     47                     48
                      A                      A                      A
 Frequencies --   3079.8468              3082.7998              3129.1162
 Red. masses --      1.1002                 1.1023                 1.0983
 Frc consts  --      6.1484                 6.1724                 6.3357
 IR Inten    --     15.5084                26.4765                10.3402

                     49                     50                     51
                      A                      A                      A
 Frequencies --   3244.2281              3270.2993              3832.0984
 Red. masses --      1.0965                 1.0978                 1.0664
 Frc consts  --      6.7994                 6.9173                 9.2263
 IR Inten    --      3.2163                 0.5055                22.0925

 - Thermochemistry -
 -------------------
 Temperature   298.150 Kelvin.  Pressure   1.00000 Atm.
 Atom     1 has atomic number  6 and mass  12.00000

 Molecular mass:   126.06808 amu.
 Principal axes and moments of inertia in atomic units:
                           1         2         3
     Eigenvalues --   371.236342425.177392658.46103
           X            0.99990  -0.01364   0.00308
           Y            0.01361   0.99985   0.01027
           Z           -0.00322  -0.01023   0.99994
 This molecule is an asymmetric top.
 Rotational symmetry number  1.
 Rotational temperatures (Kelvin)      0.23331     0.03571     0.03258
 Rotational constants (GHZ):           4.86143     0.74417     0.67887
 Zero-point vibrational energy     416294.6 (Joules/Mol)
                                   99.49681 (Kcal/Mol)
 Warning -- explicit consideration of  11 degrees of freedom as
           vibrations may cause significant error
 Vibrational temperatures:     78.28   127.49   137.02   181.54   316.18
          (Kelvin)            367.42   383.74   492.49   540.18   570.97
                              890.93   918.28   966.21  1063.85  1108.05
                             1150.66  1174.22  1356.30  1428.03  1451.06
                             1467.97  1522.71  1531.82  1552.16  1672.65
                             1685.37  1742.93  1780.75  1797.81  1859.51
                             1884.56  1934.54  2023.45  2036.71  2093.72
                             2118.83  2141.62  2145.21  2195.73  2287.30
                             2388.94  4272.89  4314.36  4359.49  4368.18
                             4431.21  4435.46  4502.09  4667.71  4705.23
                             5513.53

 Zero-point correction=                           0.158558 (Hartree/Particle)
 Thermal correction to Energy=                    0.168043
 Thermal correction to Enthalpy=                  0.168987
 Thermal correction to Gibbs Free Energy=         0.123322
 Sum of electronic and zero-point Energies=           -423.058978
 Sum of electronic and thermal Energies=              -423.049493
 Sum of electronic and thermal Enthalpies=            -423.048549
 Sum of electronic and thermal Free Energies=         -423.094214

                     E (Thermal)             CV                S
                      KCal/Mol        Cal/Mol-Kelvin    Cal/Mol-Kelvin
 Total                  105.448             33.832             96.110
 Electronic               0.000              0.000              0.000
 Translational            0.889              2.981             40.409
 Rotational               0.889              2.981             29.261
 Vibrational            103.671             27.870             26.441
 Vibration     1          0.596              1.976              4.651
 Vibration     2          0.601              1.957              3.691
 Vibration     3          0.603              1.953              3.550
 Vibration     4          0.611              1.927              3.004
 Vibration     5          0.647              1.811              1.961
 Vibration     6          0.666              1.754              1.693
 Vibration     7          0.672              1.734              1.617
 Vibration     8          0.721              1.591              1.201
 Vibration     9          0.746              1.522              1.057
 Vibration    10          0.763              1.477              0.974
 Vibration    11          0.979              0.991              0.418

 Optimization completed.
    -- Stationary point found.
 Normal termination of Gaussian 09 at Mon Jan 27 11:47:03 2020.
