 Gaussian 09, Revision D.01,
 Gaussian 09:  ES64L-G09RevD.01 24-Apr-2013

 -----------------------------
 # b3lyp 6-31G(2df,p) opt Freq
 -----------------------------

 -----
 titel
 -----
 Symbolic Z-matrix:
 Charge =  0 Multiplicity = 1

 SCF Done:  E(RB3LYP) =  -423.148858259     A.U. after   12 cycles
 Optimization completed.
    -- Stationary point found.
 Normal termination of Gaussian 09 at Mon Jan 27 17:28:55 2020.

 ----------------------------------------------------------------------
 #N Geom=AllCheck Guess=TCheck SCRF=Check GenChk RB3LYP/6-31G(2df,p) Fr
 eq
 ----------------------------------------------------------------------

 Structure from the checkpoint file:  "/scratch/puck/g09_5b254d6a-3c72-4490-9d25-4a9cb0f9057d/Gau-1882.chk"
 -----
 titel
 -----
 Charge =  0 Multiplicity = 1

                         Standard orientation:
 ---------------------------------------------------------------------
 Center     Atomic      Atomic             Coordinates (Angstroms)
 Number     Number       Type             X           Y           Z
 ---------------------------------------------------------------------
      1          6           0       -2.515118   -0.149647   -0.759011
      2          6           0       -1.237219    0.037168    0.008906
      3          6           0       -1.033346   -0.511905    1.398600
      4          6           0       -0.168278   -1.000552    0.248346
      5          6           0        1.154178   -0.322561   -0.070160
      6          8           0        2.059011   -1.039377   -0.851727
      7          6           0        1.638767    0.819224    0.800041
      8          6           0        0.787331    1.085187   -0.430274
      9          8           0       -0.596161    1.271464   -0.285072
     10          1           0       -3.230528    0.642905   -0.515152
     11          1           0       -2.329371   -0.120585   -1.837319
     12          1           0       -2.976019   -1.109633   -0.509756
     13          1           0       -0.607989    0.126092    2.163975
     14          1           0       -1.783195   -1.204992    1.767283
     15          1           0       -0.265530   -2.021280   -0.102052
     16          1           0        2.595166   -1.580584   -0.261796
     17          1           0        1.231104    0.978573    1.790936
     18          1           0        2.688873    1.071844    0.690279
     19          1           0        1.216797    1.619463   -1.270690
 ---------------------------------------------------------------------

 SCF Done:  E(RB3LYP) =  -423.148858259     A.U. after    1 cycles

 The electronic state is 1-A.
 Alpha  occ. eigenvalues --  -19.14770 -19.14340 -10.24157 -10.23756 -10.22930
 Alpha  occ. eigenvalues --  -10.19090 -10.18411 -10.18324 -10.17763  -1.05179
 Alpha  occ. eigenvalues --   -1.02825  -0.85044  -0.83457  -0.71726  -0.64698
 Alpha  occ. eigenvalues --   -0.61374  -0.57145  -0.55542  -0.53138  -0.48221
 Alpha  occ. eigenvalues --   -0.46031  -0.44157  -0.42949  -0.42628  -0.40028
 Alpha  occ. eigenvalues --   -0.39215  -0.37203  -0.36699  -0.36143  -0.30302
 Alpha  occ. eigenvalues --   -0.29841  -0.28445  -0.24851  -0.22552
 Alpha virt. eigenvalues --    0.07533   0.08707   0.09815   0.11836   0.12228
 Alpha virt. eigenvalues --    0.12981   0.15165   0.16773   0.16995   0.17782
 Alpha virt. eigenvalues --    0.19124   0.19643   0.20003   0.21217   0.22839

 Mulliken charges:
               1
     1  C   -0.460173
     2  C    0.440693
     3  C   -0.363540
     4  C   -0.188138
     5  C    0.366482
     6  O   -0.469433
     7  C   -0.393132
     8  C    0.047609
     9  O   -0.297901
    10  H    0.129028
    11  H    0.125582
    12  H    0.116101
    13  H    0.116732
    14  H    0.110127
    15  H    0.094390
    16  H    0.284806
    17  H    0.117816
    18  H    0.114575
    19  H    0.108378
 Sum of Mulliken charges =   0.00000

 Dipole moment (field-independent basis, Debye):
    X=              0.4576    Y=             -1.4276    Z=              1.2038  Tot=              1.9227
 Quadrupole moment (field-independent basis, Debye-Ang):
   XX=            -48.7257   YY=            -52.9846   ZZ=            -54.0203
   XY=              1.1194   XZ=              2.2193   YZ=             -1.3327

  Exact polarizability:  86.128   2.905  68.297   0.837  -1.115  69.066
 Approx polarizability: 112.985  -1.285 106.394  -0.175  -2.064 104.898

                      1                      2                      3
                      A                      A                      A
 Frequencies --    143.6099               200.8198               206.7748
 Red. masses --      3.3885                 1.2720                 2.1525
 Frc consts  --      0.0412                 0.0302                 0.0542
 IR Inten    --      1.3157                 0.6116                 2.5096

                      4                      5                      6
                      A                      A                      A
 Frequencies --    294.1235               301.2353               365.2707
 Red. masses --      1.7340                 1.5336                 2.8221
 Frc consts  --      0.0884                 0.0820                 0.2218
 IR Inten    --     20.3377                52.2921                 0.6823

                      7                      8                      9
                      A                      A                      A
 Frequencies --    371.2831               386.5020               477.7754
 Red. masses --      3.7944                 2.6767                 2.3426
 Frc consts  --      0.3082                 0.2356                 0.3151
 IR Inten    --     12.5367                20.2430                 0.6002

                     10                     11                     12
                      A                      A                      A
 Frequencies --    491.1353               594.3692               629.3379
 Red. masses --      2.6819                 3.5330                 2.7772
 Frc consts  --      0.3811                 0.7354                 0.6481
 IR Inten    --      4.2670                 0.6770                 5.8287

                     13                     14                     15
                      A                      A                      A
 Frequencies --    706.0339               772.7792               813.0747
 Red. masses --      4.5778                 3.8275                 2.2164
 Frc consts  --      1.3445                 1.3467                 0.8633
 IR Inten    --     10.2351                 4.7375                 8.6481

                     16                     17                     18
                      A                      A                      A
 Frequencies --    843.8280               884.9100               903.3736
 Red. masses --      2.0572                 1.5622                 2.1811
 Frc consts  --      0.8630                 0.7208                 1.0487
 IR Inten    --      2.2253                10.6465                14.8086

                     19                     20                     21
                      A                      A                      A
 Frequencies --    942.0671               948.5753               978.2067
 Red. masses --      1.8912                 1.6112                 2.2676
 Frc consts  --      0.9889                 0.8542                 1.2784
 IR Inten    --     14.0776                 4.8646                15.8130

                     22                     23                     24
                      A                      A                      A
 Frequencies --   1004.0798              1011.7845              1034.5847
 Red. masses --      1.4635                 1.6977                 1.4161
 Frc consts  --      0.8693                 1.0239                 0.8930
 IR Inten    --     11.2315                 9.4275                 2.1545

                     25                     26                     27
                      A                      A                      A
 Frequencies --   1051.2399              1085.3239              1095.7936
 Red. masses --      1.3665                 2.4765                 1.7260
 Frc consts  --      0.8897                 1.7187                 1.2211
 IR Inten    --      8.8141                10.1937                 4.4953

                     28                     29                     30
                      A                      A                      A
 Frequencies --   1128.8199              1151.7601              1201.4012
 Red. masses --      1.8212                 3.2369                 1.8843
 Frc consts  --      1.3673                 2.5299                 1.6024
 IR Inten    --      7.1446                99.9750                75.3176

                     31                     32                     33
                      A                      A                      A
 Frequencies --   1226.1268              1263.8334              1297.4767
 Red. masses --      2.1960                 1.7540                 3.1344
 Frc consts  --      1.9452                 1.6507                 3.1088
 IR Inten    --     31.4010                74.0228                35.6526

                     34                     35                     36
                      A                      A                      A
 Frequencies --   1342.4348              1375.8989              1405.2075
 Red. masses --      1.4154                 2.0337                 1.4797
 Frc consts  --      1.5028                 2.2684                 1.7215
 IR Inten    --     17.2005                21.3344                 2.4250

                     37                     38                     39
                      A                      A                      A
 Frequencies --   1419.8827              1476.2990              1477.5659
 Red. masses --      1.5357                 1.7149                 1.0774
 Frc consts  --      1.8242                 2.2021                 1.3858
 IR Inten    --     10.8040                 9.7376                 1.3339

                     40                     41                     42
                      A                      A                      A
 Frequencies --   1487.0602              1500.5554              3035.3519
 Red. masses --      1.2594                 1.0968                 1.0350
 Frc consts  --      1.6409                 1.4551                 5.6184
 IR Inten    --     14.5851                 2.1291                26.4197

                     43                     44                     45
                      A                      A                      A
 Frequencies --   3101.2369              3115.3657              3128.4384
 Red. masses --      1.1014                 1.1009                 1.0545
 Frc consts  --      6.2412                 6.2951                 6.0804
 IR Inten    --     18.5478                15.9139                 8.3161

                     46                     47                     48
                      A                      A                      A
 Frequencies --   3134.7629              3172.6910              3182.4748
 Red. masses --      1.0551                 1.0921                 1.0916
 Frc consts  --      6.1090                 6.4771                 6.5140
 IR Inten    --     12.9845                15.8614                 5.3052

                     49                     50                     51
                      A                      A                      A
 Frequencies --   3217.1335              3226.1661              3794.2842
 Red. masses --      1.1158                 1.1145                 1.0662
 Frc consts  --      6.8044                 6.8346                 9.0438
 IR Inten    --     11.1040                 6.5807                21.1880

 - Thermochemistry -
 -------------------
 Temperature   298.150 Kelvin.  Pressure   1.00000 Atm.
 Atom     1 has atomic number  6 and mass  12.00000

 Molecular mass:   126.06808 amu.
 Principal axes and moments of inertia in atomic units:
                           1         2         3
     Eigenvalues --   597.881561262.431321352.70519
           X            0.99921   0.03276   0.02228
           Y           -0.03257   0.99943  -0.00901
           Z           -0.02256   0.00828   0.99971
 This molecule is an asymmetric top.
 Rotational symmetry number  1.
 Warning -- assumption of classical behavior for rotation
           may cause significant error
 Rotational temperatures (Kelvin)      0.14487     0.06861     0.06403
 Rotational constants (GHZ):           3.01856     1.42958     1.33417
 Zero-point vibrational energy     415104.9 (Joules/Mol)
                                   99.21245 (Kcal/Mol)
 Warning -- explicit consideration of  11 degrees of freedom as
           vibrations may cause significant error
 Vibrational temperatures:    206.62   288.93   297.50   423.18   433.41
          (Kelvin)            525.54   534.19   556.09   687.41   706.63
                              855.16   905.48  1015.82  1111.86  1169.83
                             1214.08  1273.19  1299.75  1355.42  1364.79
                             1407.42  1444.65  1455.73  1488.53  1512.50
                             1561.54  1576.60  1624.12  1657.12  1728.55
                             1764.12  1818.37  1866.78  1931.46  1979.61
                             2021.78  2042.89  2124.06  2125.89  2139.55
                             2158.96  4367.19  4461.98  4482.31  4501.12
                             4510.22  4564.79  4578.87  4628.73  4641.73
                             5459.12

 Zero-point correction=                           0.158105 (Hartree/Particle)
 Thermal correction to Energy=                    0.166250
 Thermal correction to Enthalpy=                  0.167194
 Thermal correction to Gibbs Free Energy=         0.126122
 Sum of electronic and zero-point Energies=           -422.990753
 Sum of electronic and thermal Energies=              -422.982608
 Sum of electronic and thermal Enthalpies=            -422.981664
 Sum of electronic and thermal Free Energies=         -423.022736

                     E (Thermal)             CV                S
                      KCal/Mol        Cal/Mol-Kelvin    Cal/Mol-Kelvin
 Total                  104.323             33.023             86.442
 Electronic               0.000              0.000              0.000
 Translational            0.889              2.981             40.409
 Rotational               0.889              2.981             28.414
 Vibrational            102.546             27.062             17.620
 Vibration     1          0.616              1.910              2.755
 Vibration     2          0.638              1.839              2.126
 Vibration     3          0.641              1.830              2.072
 Vibration     4          0.689              1.685              1.450
 Vibration     5          0.693              1.671              1.410
 Vibration     6          0.738              1.544              1.100
 Vibration     7          0.743              1.531              1.074
 Vibration     8          0.755              1.499              1.014
 Vibration     9          0.834              1.299              0.716
 Vibration    10          0.847              1.270              0.681
 Vibration    11          0.952              1.044              0.459

 Optimization completed.
    -- Stationary point found.
 Normal termination of Gaussian 09 at Mon Jan 27 18:17:14 2020.
