 Gaussian 09, Revision D.01,
 Gaussian 09:  ES64L-G09RevD.01 24-Apr-2013

 -----------------------------
 # b3lyp 6-31G(2df,p) opt Freq
 -----------------------------

 -----
 titel
 -----
 Symbolic Z-matrix:
 Charge =  0 Multiplicity = 1

 SCF Done:  E(RB3LYP) =  -423.120084339     A.U. after   14 cycles
 Optimization completed.
    -- Stationary point found.
 Normal termination of Gaussian 09 at Mon Jan 27 14:17:37 2020.

 ----------------------------------------------------------------------
 #N Geom=AllCheck Guess=TCheck SCRF=Check GenChk RB3LYP/6-31G(2df,p) Fr
 eq
 ----------------------------------------------------------------------

 Structure from the checkpoint file:  "/scratch/puck/g09_3429ce50-c6b6-45b5-9378-003496040f94/Gau-78472.chk"
 -----
 titel
 -----
 Charge =  0 Multiplicity = 1

                         Standard orientation:
 ---------------------------------------------------------------------
 Center     Atomic      Atomic             Coordinates (Angstroms)
 Number     Number       Type             X           Y           Z
 ---------------------------------------------------------------------
      1          6           0        1.187323    1.759511   -0.515592
      2          6           0        0.722898    0.416221    0.063376
      3          8           0        0.484836    0.662002    1.452524
      4          6           0        1.763204   -0.611756   -0.099047
      5          6           0        2.584893   -1.481718   -0.217262
      6          6           0       -0.563688   -0.060540   -0.643911
      7          6           0       -1.870740    0.685685   -0.292773
      8          8           0       -2.478032   -0.526036    0.203518
      9          6           0       -1.289574   -1.292073   -0.062263
     10          1           0        0.404100    2.509136   -0.371277
     11          1           0        2.088336    2.094492    0.001822
     12          1           0        1.402170    1.667581   -1.582738
     13          1           0        0.414166   -0.187089    1.901573
     14          1           0        3.322565   -2.239041   -0.321796
     15          1           0       -0.367401   -0.141199   -1.715033
     16          1           0       -1.770405    1.441572    0.493586
     17          1           0       -2.426011    1.104155   -1.140351
     18          1           0       -0.854699   -1.715078    0.854622
     19          1           0       -1.473138   -2.114247   -0.763913
 ---------------------------------------------------------------------

 SCF Done:  E(RB3LYP) =  -423.120084339     A.U. after    1 cycles

 The electronic state is 1-A.
 Alpha  occ. eigenvalues --  -19.14859 -19.12971 -10.27024 -10.23180 -10.22714
 Alpha  occ. eigenvalues --  -10.19834 -10.18971 -10.18610 -10.18531  -1.04010
 Alpha  occ. eigenvalues --   -1.02870  -0.80881  -0.74573  -0.72457  -0.69100
 Alpha  occ. eigenvalues --   -0.63625  -0.55973  -0.55693  -0.51578  -0.50625
 Alpha  occ. eigenvalues --   -0.49170  -0.44408  -0.42473  -0.41195  -0.40203
 Alpha  occ. eigenvalues --   -0.39460  -0.37892  -0.36548  -0.32191  -0.31038
 Alpha  occ. eigenvalues --   -0.29538  -0.27882  -0.27076  -0.24638
 Alpha virt. eigenvalues --    0.02921   0.04249   0.07189   0.07820   0.10302
 Alpha virt. eigenvalues --    0.11765   0.12476   0.14030   0.15378   0.16263
 Alpha virt. eigenvalues --    0.18331   0.18918   0.19918   0.20189   0.21524

 Mulliken charges:
               1
     1  C   -0.402416
     2  C    0.117554
     3  O   -0.442058
     4  C    0.320172
     5  C   -0.479689
     6  C   -0.023992
     7  C   -0.097123
     8  O   -0.271236
     9  C   -0.097544
    10  H    0.129238
    11  H    0.136413
    12  H    0.124542
    13  H    0.290131
    14  H    0.202653
    15  H    0.089518
    16  H    0.116354
    17  H    0.097199
    18  H    0.085229
    19  H    0.105055
 Sum of Mulliken charges =   0.00000

 Dipole moment (field-independent basis, Debye):
    X=              1.5843    Y=             -0.5583    Z=             -1.1800  Tot=              2.0528
 Quadrupole moment (field-independent basis, Debye-Ang):
   XX=            -57.7735   YY=            -49.7826   ZZ=            -52.5110
   XY=             -4.4957   XZ=              1.0561   YZ=             -2.3760

  Exact polarizability:  84.672 -11.697  82.739  -0.771  -0.528  62.329
 Approx polarizability: 117.127 -23.647 123.184  -3.930   2.265  95.935

                      1                      2                      3
                      A                      A                      A
 Frequencies --     61.4783                87.0261               134.8823
 Red. masses --      3.6757                 4.0348                 3.2013
 Frc consts  --      0.0082                 0.0180                 0.0343
 IR Inten    --      5.5175                 1.7561                 1.0092

                      4                      5                      6
                      A                      A                      A
 Frequencies --    177.2104               222.4502               245.7664
 Red. masses --      2.4920                 1.3850                 1.8839
 Frc consts  --      0.0461                 0.0404                 0.0670
 IR Inten    --      5.4565                 5.8576                 0.9026

                      7                      8                      9
                      A                      A                      A
 Frequencies --    266.6630               289.1765               366.3076
 Red. masses --      1.6607                 1.7883                 2.9995
 Frc consts  --      0.0696                 0.0881                 0.2371
 IR Inten    --     93.9564                12.0355                 6.9070

                     10                     11                     12
                      A                      A                      A
 Frequencies --    415.0272               458.1855               550.6963
 Red. masses --      3.3579                 4.6844                 4.9636
 Frc consts  --      0.3408                 0.5794                 0.8869
 IR Inten    --      4.7128                 0.1341                13.1441

                     13                     14                     15
                      A                      A                      A
 Frequencies --    589.1109               636.5737               666.9854
 Red. masses --      3.9211                 1.2341                 1.2566
 Frc consts  --      0.8018                 0.2946                 0.3294
 IR Inten    --      6.6109                43.2668                35.7673

                     16                     17                     18
                      A                      A                      A
 Frequencies --    685.5522               822.5806               886.0569
 Red. masses --      3.0536                 4.4522                 1.8173
 Frc consts  --      0.8456                 1.7749                 0.8406
 IR Inten    --      1.4801                14.3368                 4.7827

                     19                     20                     21
                      A                      A                      A
 Frequencies --    889.6099               939.4857               971.9114
 Red. masses --      1.5562                 2.2635                 2.9443
 Frc consts  --      0.7256                 1.1771                 1.6386
 IR Inten    --      3.1145                24.1089                14.6204

                     22                     23                     24
                      A                      A                      A
 Frequencies --   1007.4569              1045.3580              1048.4829
 Red. masses --      2.9396                 9.6916                 1.7097
 Frc consts  --      1.7579                 6.2399                 1.1074
 IR Inten    --     21.6297                79.4134                12.1818

                     25                     26                     27
                      A                      A                      A
 Frequencies --   1071.6307              1113.1804              1154.7532
 Red. masses --      2.8229                 2.4882                 1.1748
 Frc consts  --      1.9100                 1.8166                 0.9230
 IR Inten    --     32.4093                11.8158                 1.6854

                     28                     29                     30
                      A                      A                      A
 Frequencies --   1170.5910              1182.8791              1207.9060
 Red. masses --      1.3531                 1.6212                 2.5273
 Frc consts  --      1.0924                 1.3365                 2.1725
 IR Inten    --      5.4829                26.9187                29.3623

                     31                     32                     33
                      A                      A                      A
 Frequencies --   1261.2665              1311.4750              1336.5556
 Red. masses --      1.3937                 1.2844                 1.5204
 Frc consts  --      1.3063                 1.3016                 1.6002
 IR Inten    --      4.2757                 3.2446                31.5151

                     34                     35                     36
                      A                      A                      A
 Frequencies --   1361.4076              1390.7761              1404.7406
 Red. masses --      1.5072                 1.5659                 1.2837
 Frc consts  --      1.6459                 1.7845                 1.4924
 IR Inten    --     45.2311                 5.6987                 9.3187

                     37                     38                     39
                      A                      A                      A
 Frequencies --   1480.5392              1493.6429              1505.9124
 Red. masses --      1.0530                 1.0491                 1.0808
 Frc consts  --      1.3600                 1.3790                 1.4440
 IR Inten    --      1.1965                 1.4301                 1.0507

                     40                     41                     42
                      A                      A                      A
 Frequencies --   1534.4206              2228.1699              2995.6677
 Red. masses --      1.1110                 5.9025                 1.0613
 Frc consts  --      1.5412                17.2657                 5.6116
 IR Inten    --      1.6664                 0.7867                84.1655

                     43                     44                     45
                      A                      A                      A
 Frequencies --   3025.1679              3046.3293              3052.0565
 Red. masses --      1.0582                 1.1006                 1.0348
 Frc consts  --      5.7059                 6.0178                 5.6790
 IR Inten    --     40.6836                42.3953                12.8904

                     46                     47                     48
                      A                      A                      A
 Frequencies --   3073.1591              3091.7130              3129.4562
 Red. masses --      1.1052                 1.0901                 1.1017
 Frc consts  --      6.1499                 6.1393                 6.3571
 IR Inten    --     13.7572                34.3679                17.2951

                     49                     50                     51
                      A                      A                      A
 Frequencies --   3141.9501              3498.3403              3815.3692
 Red. masses --      1.1030                 1.1623                 1.0662
 Frc consts  --      6.4155                 8.3810                 9.1442
 IR Inten    --     13.9385                66.4019                18.9628

 - Thermochemistry -
 -------------------
 Temperature   298.150 Kelvin.  Pressure   1.00000 Atm.
 Atom     1 has atomic number  6 and mass  12.00000

 Molecular mass:   126.06808 amu.
 Principal axes and moments of inertia in atomic units:
                           1         2         3
     Eigenvalues --   690.032071410.024751696.93992
           X            1.00000  -0.00175   0.00096
           Y            0.00179   0.99911  -0.04208
           Z           -0.00088   0.04208   0.99911
 This molecule is an asymmetric top.
 Rotational symmetry number  1.
 Warning -- assumption of classical behavior for rotation
           may cause significant error
 Rotational temperatures (Kelvin)      0.12552     0.06143     0.05104
 Rotational constants (GHZ):           2.61545     1.27994     1.06353
 Zero-point vibrational energy     409978.7 (Joules/Mol)
                                   97.98727 (Kcal/Mol)
 Warning -- explicit consideration of  13 degrees of freedom as
           vibrations may cause significant error
 Vibrational temperatures:     88.45   125.21   194.07   254.97   320.06
          (Kelvin)            353.60   383.67   416.06   527.03   597.13
                              659.23   792.33   847.60   915.89   959.64
                              986.36  1183.51  1274.84  1279.95  1351.71
                             1398.36  1449.50  1504.04  1508.53  1541.84
                             1601.62  1661.43  1684.22  1701.90  1737.91
                             1814.68  1886.92  1923.00  1958.76  2001.01
                             2021.11  2130.16  2149.02  2166.67  2207.69
                             3205.84  4310.09  4352.54  4382.98  4391.22
                             4421.58  4448.28  4502.58  4520.56  5033.33
                             5489.46

 Zero-point correction=                           0.156153 (Hartree/Particle)
 Thermal correction to Energy=                    0.165948
 Thermal correction to Enthalpy=                  0.166892
 Thermal correction to Gibbs Free Energy=         0.121392
 Sum of electronic and zero-point Energies=           -422.963932
 Sum of electronic and thermal Energies=              -422.954136
 Sum of electronic and thermal Enthalpies=            -422.953192
 Sum of electronic and thermal Free Energies=         -422.998692

                     E (Thermal)             CV                S
                      KCal/Mol        Cal/Mol-Kelvin    Cal/Mol-Kelvin
 Total                  104.134             35.969             95.762
 Electronic               0.000              0.000              0.000
 Translational            0.889              2.981             40.409
 Rotational               0.889              2.981             28.892
 Vibrational            102.356             30.007             26.462
 Vibration     1          0.597              1.973              4.409
 Vibration     2          0.601              1.958              3.726
 Vibration     3          0.613              1.919              2.875
 Vibration     4          0.628              1.870              2.358
 Vibration     5          0.648              1.807              1.939
 Vibration     6          0.660              1.770              1.761
 Vibration     7          0.672              1.734              1.618
 Vibration     8          0.686              1.694              1.479
 Vibration     9          0.739              1.542              1.095
 Vibration    10          0.778              1.438              0.909
 Vibration    11          0.816              1.343              0.771
 Vibration    12          0.906              1.138              0.543
 Vibration    13          0.946              1.055              0.469

 Optimization completed.
    -- Stationary point found.
 Normal termination of Gaussian 09 at Mon Jan 27 15:02:21 2020.
