 Gaussian 09, Revision D.01,
 Gaussian 09:  ES64L-G09RevD.01 24-Apr-2013

 -----------------------------
 # b3lyp 6-31G(2df,p) opt Freq
 -----------------------------

 -----
 titel
 -----
 Symbolic Z-matrix:
 Charge =  0 Multiplicity = 1

 SCF Done:  E(RB3LYP) =  -423.203242837     A.U. after   14 cycles
 Optimization completed.
    -- Stationary point found.
 Normal termination of Gaussian 09 at Tue Jan 28 03:07:14 2020.

 ----------------------------------------------------------------------
 #N Geom=AllCheck Guess=TCheck SCRF=Check GenChk RB3LYP/6-31G(2df,p) Fr
 eq
 ----------------------------------------------------------------------

 Structure from the checkpoint file:  "/scratch/puck/g09_fcac14bd-e935-4071-84c8-70bd91079c74/Gau-65594.chk"
 -----
 titel
 -----
 Charge =  0 Multiplicity = 1

                         Standard orientation:
 ---------------------------------------------------------------------
 Center     Atomic      Atomic             Coordinates (Angstroms)
 Number     Number       Type             X           Y           Z
 ---------------------------------------------------------------------
      1          8           0       -2.257163   -1.327688   -0.048648
      2          6           0       -1.067585   -0.703368    0.338547
      3          6           0        0.199627   -1.137634   -0.411230
      4          6           0        1.165889    0.014318   -0.122301
      5          6           0        2.594644   -0.014677   -0.580370
      6          6           0        2.274447   -0.168988    0.887921
      7          6           0        0.331594    1.297019   -0.130844
      8          6           0       -1.096848    0.804395    0.083676
      9          8           0       -2.122317    1.431878   -0.018477
     10          1           0       -2.917205   -0.619700   -0.101840
     11          1           0       -0.884932   -0.830691    1.423315
     12          1           0        0.582857   -2.107752   -0.086551
     13          1           0       -0.030287   -1.204726   -1.482260
     14          1           0        2.937833   -0.888970   -1.123992
     15          1           0        3.044601    0.916725   -0.908697
     16          1           0        2.401265   -1.148342    1.337766
     17          1           0        2.508021    0.658958    1.549563
     18          1           0        0.618161    2.026541    0.633207
     19          1           0        0.364918    1.818048   -1.095906
 ---------------------------------------------------------------------

 SCF Done:  E(RB3LYP) =  -423.203242837     A.U. after    1 cycles

 The electronic state is 1-A.
 Alpha  occ. eigenvalues --  -19.14671 -19.13572 -10.27495 -10.23782 -10.21089
 Alpha  occ. eigenvalues --  -10.20127 -10.19416 -10.19362 -10.19249  -1.06056
 Alpha  occ. eigenvalues --   -1.01742  -0.88341  -0.79998  -0.72425  -0.65054
 Alpha  occ. eigenvalues --   -0.61100  -0.56530  -0.55327  -0.50189  -0.49718
 Alpha  occ. eigenvalues --   -0.47610  -0.46326  -0.44050  -0.43790  -0.40812
 Alpha  occ. eigenvalues --   -0.39002  -0.37632  -0.36109  -0.35510  -0.34070
 Alpha  occ. eigenvalues --   -0.31191  -0.28622  -0.26938  -0.25125
 Alpha virt. eigenvalues --   -0.02837   0.08613   0.09663   0.10060   0.11159
 Alpha virt. eigenvalues --    0.11678   0.14149   0.15018   0.15448   0.16360
 Alpha virt. eigenvalues --    0.17501   0.18901   0.21567   0.22675   0.23512

 Mulliken charges:
               1
     1  O   -0.445237
     2  C    0.067385
     3  C   -0.324412
     4  C    0.368476
     5  C   -0.327930
     6  C   -0.308026
     7  C   -0.412550
     8  C    0.370282
     9  O   -0.330155
    10  H    0.290775
    11  H    0.094817
    12  H    0.109769
    13  H    0.112457
    14  H    0.116105
    15  H    0.114677
    16  H    0.116386
    17  H    0.113226
    18  H    0.134440
    19  H    0.139515
 Sum of Mulliken charges =   0.00000

 Dipole moment (field-independent basis, Debye):
    X=              2.6940    Y=              0.2476    Z=              0.2772  Tot=              2.7195
 Quadrupole moment (field-independent basis, Debye-Ang):
   XX=            -57.8482   YY=            -56.3059   ZZ=            -51.5966
   XY=              0.8201   XZ=             -0.3956   YZ=             -0.1109

  Exact polarizability:  89.531  -1.423  73.101   1.038  -0.806  63.580
 Approx polarizability: 120.760  -5.498 108.473   3.191  -1.819  99.195

                      1                      2                      3
                      A                      A                      A
 Frequencies --     72.2689               111.1759               241.6905
 Red. masses --      3.4500                 3.6337                 3.2447
 Frc consts  --      0.0106                 0.0265                 0.1117
 IR Inten    --      1.3811                 1.3246                 5.7808

                      4                      5                      6
                      A                      A                      A
 Frequencies --    271.8370               315.4356               362.1896
 Red. masses --      3.5665                 2.2662                 4.4523
 Frc consts  --      0.1553                 0.1329                 0.3441
 IR Inten    --     14.8025                 2.1123                12.6820

                      7                      8                      9
                      A                      A                      A
 Frequencies --    373.4159               407.4837               471.6453
 Red. masses --      1.8600                 1.2078                 3.9877
 Frc consts  --      0.1528                 0.1182                 0.5226
 IR Inten    --      2.3320                57.8473                 3.2127

                     10                     11                     12
                      A                      A                      A
 Frequencies --    491.4496               590.4141               624.1698
 Red. masses --      2.8542                 3.1675                 3.0285
 Frc consts  --      0.4062                 0.6506                 0.6952
 IR Inten    --      9.3112                 5.8996                 1.1821

                     13                     14                     15
                      A                      A                      A
 Frequencies --    745.3108               766.9742               780.9442
 Red. masses --      3.3145                 3.3497                 1.0325
 Frc consts  --      1.0848                 1.1609                 0.3710
 IR Inten    --      7.6847                 0.4545                 0.0965

                     16                     17                     18
                      A                      A                      A
 Frequencies --    861.5454               906.2309               945.2807
 Red. masses --      2.5855                 1.4392                 1.6736
 Frc consts  --      1.1307                 0.6964                 0.8811
 IR Inten    --      1.6379                 0.3816                 2.5351

                     19                     20                     21
                      A                      A                      A
 Frequencies --    952.7173               976.8939               992.2085
 Red. masses --      1.5656                 2.3489                 2.3973
 Frc consts  --      0.8373                 1.3207                 1.3905
 IR Inten    --      2.9811                 3.1163                 7.0397

                     22                     23                     24
                      A                      A                      A
 Frequencies --   1050.0980              1057.7215              1083.9287
 Red. masses --      2.3120                 1.3872                 1.4083
 Frc consts  --      1.5021                 0.9144                 0.9749
 IR Inten    --      4.3655                 1.9166                 1.2701

                     25                     26                     27
                      A                      A                      A
 Frequencies --   1107.8301              1151.6989              1176.9174
 Red. masses --      4.3818                 1.6122                 1.4739
 Frc consts  --      3.1685                 1.2599                 1.2028
 IR Inten    --    163.8006                 3.9528                12.4019

                     28                     29                     30
                      A                      A                      A
 Frequencies --   1177.5541              1188.5926              1245.4668
 Red. masses --      2.4066                 1.2985                 1.4464
 Frc consts  --      1.9662                 1.0808                 1.3219
 IR Inten    --     31.8882                 0.1256                 8.0978

                     31                     32                     33
                      A                      A                      A
 Frequencies --   1266.8413              1274.7146              1294.1837
 Red. masses --      1.3075                 1.4789                 2.2645
 Frc consts  --      1.2363                 1.4158                 2.2347
 IR Inten    --      9.1945                 1.5490                 6.9055

                     34                     35                     36
                      A                      A                      A
 Frequencies --   1371.9395              1381.0496              1417.5608
 Red. masses --      1.5919                 2.3759                 1.4533
 Frc consts  --      1.7653                 2.6700                 1.7206
 IR Inten    --     10.8116                 0.4766                54.2907

                     37                     38                     39
                      A                      A                      A
 Frequencies --   1445.8676              1466.7767              1497.1953
 Red. masses --      1.0939                 1.0869                 1.1679
 Frc consts  --      1.3474                 1.3777                 1.5425
 IR Inten    --      8.9898                 1.9432                 1.4028

                     40                     41                     42
                      A                      A                      A
 Frequencies --   1504.8193              1838.1302              2920.4184
 Red. masses --      1.3429                12.6671                 1.0784
 Frc consts  --      1.7917                25.2163                 5.4190
 IR Inten    --      1.9559               198.9756                30.7674

                     43                     44                     45
                      A                      A                      A
 Frequencies --   3033.2539              3037.6411              3083.5455
 Red. masses --      1.0646                 1.0636                 1.0988
 Frc consts  --      5.7713                 5.7825                 6.1557
 IR Inten    --     23.8155                13.2705                 5.3844

                     46                     47                     48
                      A                      A                      A
 Frequencies --   3103.2100              3123.6274              3128.0069
 Red. masses --      1.0994                 1.0503                 1.0585
 Frc consts  --      6.2378                 6.0378                 6.1019
 IR Inten    --     17.5256                18.7024                10.1105

                     49                     50                     51
                      A                      A                      A
 Frequencies --   3202.3329              3216.9568              3710.8658
 Red. masses --      1.1180                 1.1157                 1.0651
 Frc consts  --      6.7552                 6.8030                 8.6417
 IR Inten    --      0.0292                16.5586                44.1822

 - Thermochemistry -
 -------------------
 Temperature   298.150 Kelvin.  Pressure   1.00000 Atm.
 Atom     1 has atomic number  8 and mass  15.99491

 Molecular mass:   126.06808 amu.
 Principal axes and moments of inertia in atomic units:
                           1         2         3
     Eigenvalues --   565.161021471.706651825.19927
           X            0.99996   0.00879   0.00017
           Y           -0.00879   0.99996  -0.00211
           Z           -0.00019   0.00211   1.00000
 This molecule is an asymmetric top.
 Rotational symmetry number  1.
 Warning -- assumption of classical behavior for rotation
           may cause significant error
 Rotational temperatures (Kelvin)      0.15326     0.05885     0.04745
 Rotational constants (GHZ):           3.19332     1.22629     0.98879
 Zero-point vibrational energy     417616.5 (Joules/Mol)
                                   99.81274 (Kcal/Mol)
 Warning -- explicit consideration of  11 degrees of freedom as
           vibrations may cause significant error
 Vibrational temperatures:    103.98   159.96   347.74   391.11   453.84
          (Kelvin)            521.11   537.26   586.28   678.59   707.09
                              849.47   898.04  1072.33  1103.50  1123.60
                             1239.57  1303.86  1360.05  1370.75  1405.53
                             1427.56  1510.85  1521.82  1559.53  1593.92
                             1657.04  1693.32  1694.24  1710.12  1791.95
                             1822.70  1834.03  1862.04  1973.91  1987.02
                             2039.55  2080.28  2110.36  2154.13  2165.10
                             2644.66  4201.83  4364.17  4370.48  4436.53
                             4464.82  4494.20  4500.50  4607.44  4628.48
                             5339.10

 Zero-point correction=                           0.159062 (Hartree/Particle)
 Thermal correction to Energy=                    0.167361
 Thermal correction to Enthalpy=                  0.168305
 Thermal correction to Gibbs Free Energy=         0.126110
 Sum of electronic and zero-point Energies=           -423.044181
 Sum of electronic and thermal Energies=              -423.035882
 Sum of electronic and thermal Enthalpies=            -423.034938
 Sum of electronic and thermal Free Energies=         -423.077133

                     E (Thermal)             CV                S
                      KCal/Mol        Cal/Mol-Kelvin    Cal/Mol-Kelvin
 Total                  105.021             32.436             88.808
 Electronic               0.000              0.000              0.000
 Translational            0.889              2.981             40.409
 Rotational               0.889              2.981             28.808
 Vibrational            103.243             26.474             19.591
 Vibration     1          0.598              1.967              4.091
 Vibration     2          0.607              1.940              3.248
 Vibration     3          0.658              1.776              1.790
 Vibration     4          0.675              1.725              1.585
 Vibration     5          0.703              1.644              1.334
 Vibration     6          0.736              1.550              1.113
 Vibration     7          0.745              1.527              1.066
 Vibration     8          0.772              1.454              0.936
 Vibration     9          0.829              1.313              0.733
 Vibration    10          0.847              1.269              0.680
 Vibration    11          0.948              1.052              0.466

 Optimization completed.
    -- Stationary point found.
 Normal termination of Gaussian 09 at Tue Jan 28 04:05:29 2020.
