 Gaussian 09, Revision D.01,
 Gaussian 09:  ES64L-G09RevD.01 24-Apr-2013

 -----------------------------
 # b3lyp 6-31G(2df,p) opt Freq
 -----------------------------

 -----
 titel
 -----
 Symbolic Z-matrix:
 Charge =  0 Multiplicity = 1

 SCF Done:  E(RB3LYP) =  -423.214946247     A.U. after   14 cycles
 Optimization completed.
    -- Stationary point found.
 Normal termination of Gaussian 09 at Mon Jan 27 10:18:24 2020.

 ----------------------------------------------------------------------
 #N Geom=AllCheck Guess=TCheck SCRF=Check GenChk RB3LYP/6-31G(2df,p) Fr
 eq
 ----------------------------------------------------------------------

 Structure from the checkpoint file:  "/scratch/puck/g09_b6bfbc1f-f715-449a-9a1a-dc6130603d34/Gau-91830.chk"
 -----
 titel
 -----
 Charge =  0 Multiplicity = 1

                         Standard orientation:
 ---------------------------------------------------------------------
 Center     Atomic      Atomic             Coordinates (Angstroms)
 Number     Number       Type             X           Y           Z
 ---------------------------------------------------------------------
      1          6           0        2.690195   -0.751006    0.583355
      2          6           0        1.589941   -0.742823   -0.491883
      3          6           0        0.530684    0.293595   -0.245705
      4          6           0       -0.745002    0.080168    0.196313
      5          6           0       -1.524131   -1.151668    0.529931
      6          8           0       -1.487115   -2.138676   -0.497153
      7          8           0       -1.410497    1.271027    0.315778
      8          6           0       -0.543558    2.250342   -0.044852
      9          6           0        0.653345    1.717686   -0.399684
     10          1           0        3.447206   -1.509481    0.360274
     11          1           0        3.192784    0.219709    0.644437
     12          1           0        2.271412   -0.968564    1.570910
     13          1           0        2.051187   -0.563824   -1.471572
     14          1           0        1.115227   -1.726656   -0.548491
     15          1           0       -1.115029   -1.653092    1.413949
     16          1           0       -2.553005   -0.849213    0.773606
     17          1           0       -1.733072   -1.703785   -1.320707
     18          1           0       -0.927231    3.256412    0.000934
     19          1           0        1.522572    2.261916   -0.737193
 ---------------------------------------------------------------------

 SCF Done:  E(RB3LYP) =  -423.214946247     A.U. after    1 cycles

 The electronic state is 1-A.
 Alpha  occ. eigenvalues --  -19.20001 -19.13942 -10.23640 -10.22609 -10.22257
 Alpha  occ. eigenvalues --  -10.18375 -10.18179 -10.17697 -10.17384  -1.10252
 Alpha  occ. eigenvalues --   -1.01852  -0.81173  -0.76455  -0.74214  -0.67277
 Alpha  occ. eigenvalues --   -0.62962  -0.58096  -0.54919  -0.51241  -0.48310
 Alpha  occ. eigenvalues --   -0.46015  -0.45143  -0.43620  -0.42055  -0.41473
 Alpha  occ. eigenvalues --   -0.39015  -0.37667  -0.36706  -0.34465  -0.34024
 Alpha  occ. eigenvalues --   -0.33447  -0.27686  -0.26377  -0.21603
 Alpha virt. eigenvalues --    0.01206   0.06013   0.09575   0.10810   0.13059
 Alpha virt. eigenvalues --    0.13480   0.13925   0.15359   0.16086   0.17031
 Alpha virt. eigenvalues --    0.17253   0.18955   0.20291   0.21384   0.23223

 Mulliken charges:
               1
     1  C   -0.365790
     2  C   -0.313110
     3  C    0.180497
     4  C    0.211069
     5  C   -0.174731
     6  O   -0.405622
     7  O   -0.175672
     8  C   -0.023125
     9  C   -0.268042
    10  H    0.112291
    11  H    0.116556
    12  H    0.118746
    13  H    0.102776
    14  H    0.125041
    15  H    0.124350
    16  H    0.111028
    17  H    0.282523
    18  H    0.133051
    19  H    0.108164
 Sum of Mulliken charges =   0.00000

 Dipole moment (field-independent basis, Debye):
    X=              0.3630    Y=              1.1523    Z=             -0.4962  Tot=              1.3060
 Quadrupole moment (field-independent basis, Debye-Ang):
   XX=            -51.7448   YY=            -54.5160   ZZ=            -51.8540
   XY=             -0.7329   XZ=              0.2097   YZ=             -0.9041

  Exact polarizability:  87.994  -0.740  90.655  -6.004  -2.189  57.715
 Approx polarizability: 130.959  -0.400 133.800 -14.551  -2.707  89.337

                      1                      2                      3
                      A                      A                      A
 Frequencies --     49.8785                56.5938               154.0906
 Red. masses --      2.6131                 2.7195                 3.5729
 Frc consts  --      0.0038                 0.0051                 0.0500
 IR Inten    --      0.4290                 1.6593                 0.3355

                      4                      5                      6
                      A                      A                      A
 Frequencies --    156.5491               198.1661               253.7343
 Red. masses --      3.6231                 1.4128                 1.6764
 Frc consts  --      0.0523                 0.0327                 0.0636
 IR Inten    --      0.0012                 1.5721                 3.7610

                      7                      8                      9
                      A                      A                      A
 Frequencies --    333.9098               347.6117               423.2637
 Red. masses --      1.3704                 2.2364                 3.4903
 Frc consts  --      0.0900                 0.1592                 0.3684
 IR Inten    --     97.3740                22.2953                 6.1957

                     10                     11                     12
                      A                      A                      A
 Frequencies --    427.2162               618.1550               654.0915
 Red. masses --      3.8785                 4.2529                 4.1068
 Frc consts  --      0.4171                 0.9575                 1.0352
 IR Inten    --     21.9925                 6.3913                 3.7074

                     13                     14                     15
                      A                      A                      A
 Frequencies --    674.6475               740.7646               770.2718
 Red. masses --      3.7010                 1.6520                 2.4822
 Frc consts  --      0.9925                 0.5341                 0.8677
 IR Inten    --     11.2761                21.3313                18.1588

                     16                     17                     18
                      A                      A                      A
 Frequencies --    794.4021               831.5159               910.1144
 Red. masses --      1.2054                 1.2690                 5.3179
 Frc consts  --      0.4482                 0.5169                 2.5953
 IR Inten    --      1.1183                 5.5402                12.4608

                     19                     20                     21
                      A                      A                      A
 Frequencies --    948.7424               971.3166              1040.9420
 Red. masses --      1.9713                 1.9874                 2.7401
 Frc consts  --      1.0454                 1.1047                 1.7493
 IR Inten    --     19.3311                 6.0371                31.3057

                     22                     23                     24
                      A                      A                      A
 Frequencies --   1047.8094              1072.6964              1086.7315
 Red. masses --      2.5151                 1.9243                 1.7181
 Frc consts  --      1.6269                 1.3046                 1.1955
 IR Inten    --     60.0811                 6.4554                 5.5400

                     25                     26                     27
                      A                      A                      A
 Frequencies --   1140.9929              1186.8450              1192.4501
 Red. masses --      2.1559                 2.0547                 1.8455
 Frc consts  --      1.6537                 1.7053                 1.5461
 IR Inten    --     16.7474                17.1386                 4.0521

                     28                     29                     30
                      A                      A                      A
 Frequencies --   1256.5880              1271.1631              1306.7706
 Red. masses --      1.9255                 1.7633                 1.3015
 Frc consts  --      1.7914                 1.6787                 1.3094
 IR Inten    --      5.6286                 2.7007                 0.3440

                     31                     32                     33
                      A                      A                      A
 Frequencies --   1357.6894              1369.9858              1406.1214
 Red. masses --      1.4240                 1.4218                 1.2309
 Frc consts  --      1.5465                 1.5723                 1.4339
 IR Inten    --      4.8113                 4.7628                 1.0741

                     34                     35                     36
                      A                      A                      A
 Frequencies --   1420.1600              1449.1115              1491.5796
 Red. masses --      1.3454                 2.7430                 1.0510
 Frc consts  --      1.5987                 3.3938                 1.3776
 IR Inten    --     54.6533                17.4563                 0.2397

                     37                     38                     39
                      A                      A                      A
 Frequencies --   1496.1691              1501.5453              1509.3445
 Red. masses --      1.0429                 1.0913                 1.0965
 Frc consts  --      1.3755                 1.4496                 1.4717
 IR Inten    --      4.7670                 1.6711                 4.1508

                     40                     41                     42
                      A                      A                      A
 Frequencies --   1534.9954              1651.0427              3004.5953
 Red. masses --      4.5162                 7.5621                 1.0660
 Frc consts  --      6.2695                12.1454                 5.6699
 IR Inten    --     12.0795                 0.9745                49.5029

                     43                     44                     45
                      A                      A                      A
 Frequencies --   3025.6081              3034.5012              3063.1275
 Red. masses --      1.0675                 1.0345                 1.0960
 Frc consts  --      5.7575                 5.6127                 6.0589
 IR Inten    --     24.5191                28.6346                20.5155

                     46                     47                     48
                      A                      A                      A
 Frequencies --   3084.1020              3106.7688              3110.5608
 Red. masses --      1.0949                 1.1012                 1.1019
 Frc consts  --      6.1358                 6.2624                 6.2818
 IR Inten    --      0.0726                37.2608                32.4041

                     49                     50                     51
                      A                      A                      A
 Frequencies --   3244.9276              3280.2434              3808.5952
 Red. masses --      1.0909                 1.1041                 1.0661
 Frc consts  --      6.7680                 6.9995                 9.1115
 IR Inten    --      2.4246                 1.4335                17.6442

 - Thermochemistry -
 -------------------
 Temperature   298.150 Kelvin.  Pressure   1.00000 Atm.
 Atom     1 has atomic number  6 and mass  12.00000

 Molecular mass:   126.06808 amu.
 Principal axes and moments of inertia in atomic units:
                           1         2         3
     Eigenvalues --  1012.646291097.264801899.62426
           X            0.99415  -0.10796   0.00368
           Y            0.10800   0.99409  -0.01136
           Z           -0.00244   0.01169   0.99993
 This molecule is an asymmetric top.
 Rotational symmetry number  1.
 Warning -- assumption of classical behavior for rotation
           may cause significant error
 Rotational temperatures (Kelvin)      0.08553     0.07894     0.04560
 Rotational constants (GHZ):           1.78220     1.64476     0.95005
 Zero-point vibrational energy     417908.2 (Joules/Mol)
                                   99.88246 (Kcal/Mol)
 Warning -- explicit consideration of  11 degrees of freedom as
           vibrations may cause significant error
 Vibrational temperatures:     71.76    81.43   221.70   225.24   285.12
          (Kelvin)            365.07   480.42   500.14   608.98   614.67
                              889.39   941.09   970.67  1065.79  1108.25
                             1142.97  1196.36  1309.45  1365.03  1397.51
                             1497.68  1507.56  1543.37  1563.56  1641.63
                             1707.60  1715.67  1807.95  1828.92  1880.15
                             1953.41  1971.10  2023.09  2043.29  2084.95
                             2146.05  2152.65  2160.39  2171.61  2208.51
                             2375.48  4322.94  4353.17  4365.97  4407.15
                             4437.33  4469.94  4475.40  4668.72  4719.53
                             5479.71

 Zero-point correction=                           0.159173 (Hartree/Particle)
 Thermal correction to Energy=                    0.168441
 Thermal correction to Enthalpy=                  0.169385
 Thermal correction to Gibbs Free Energy=         0.124146
 Sum of electronic and zero-point Energies=           -423.055773
 Sum of electronic and thermal Energies=              -423.046505
 Sum of electronic and thermal Enthalpies=            -423.045561
 Sum of electronic and thermal Free Energies=         -423.090800

                     E (Thermal)             CV                S
                      KCal/Mol        Cal/Mol-Kelvin    Cal/Mol-Kelvin
 Total                  105.698             33.513             95.214
 Electronic               0.000              0.000              0.000
 Translational            0.889              2.981             40.409
 Rotational               0.889              2.981             29.136
 Vibrational            103.921             27.551             25.669
 Vibration     1          0.595              1.978              4.822
 Vibration     2          0.596              1.975              4.573
 Vibration     3          0.620              1.898              2.621
 Vibration     4          0.620              1.895              2.591
 Vibration     5          0.637              1.842              2.150
 Vibration     6          0.665              1.756              1.704
 Vibration     7          0.715              1.608              1.241
 Vibration     8          0.725              1.580              1.177
 Vibration     9          0.785              1.420              0.881
 Vibration    10          0.789              1.411              0.868
 Vibration    11          0.978              0.994              0.419

 Normal termination of Gaussian 09 at Mon Jan 27 10:57:02 2020.
