 Gaussian 09, Revision D.01,
 Gaussian 09:  ES64L-G09RevD.01 24-Apr-2013

 -----------------------------
 # b3lyp 6-31G(2df,p) opt Freq
 -----------------------------

 -----
 titel
 -----
 Symbolic Z-matrix:
 Charge =  0 Multiplicity = 1

 SCF Done:  E(RB3LYP) =  -423.176311487     A.U. after   14 cycles
 Optimization completed.
    -- Stationary point found.
 Normal termination of Gaussian 09 at Tue Jan 28 03:20:44 2020.

 ----------------------------------------------------------------------
 #N Geom=AllCheck Guess=TCheck SCRF=Check GenChk RB3LYP/6-31G(2df,p) Fr
 eq
 ----------------------------------------------------------------------

 Structure from the checkpoint file:  "/scratch/puck/g09_65797933-591c-4156-8ddb-9f63021f898b/Gau-173869.chk"
 -----
 titel
 -----
 Charge =  0 Multiplicity = 1

                         Standard orientation:
 ---------------------------------------------------------------------
 Center     Atomic      Atomic             Coordinates (Angstroms)
 Number     Number       Type             X           Y           Z
 ---------------------------------------------------------------------
      1          6           0        2.182937    1.347431    0.157219
      2          6           0        0.835176    0.731771   -0.091478
      3          6           0       -0.292949    1.448521   -0.098598
      4          6           0       -1.616908    0.832162   -0.359219
      5          8           0       -2.278311    0.187592    0.751754
      6          6           0       -1.731494   -0.629988   -0.288285
      7          6           0       -0.492387   -1.436748    0.069004
      8          6           0        0.807601   -0.766657   -0.391922
      9          8           0        1.861361   -1.477555    0.253054
     10          1           0        2.859331    1.187349   -0.694632
     11          1           0        2.103481    2.424738    0.320380
     12          1           0        2.662759    0.895817    1.032040
     13          1           0       -0.263269    2.519706    0.086491
     14          1           0       -2.298296    1.391783   -0.999687
     15          1           0       -2.484983   -1.128538   -0.897027
     16          1           0       -0.444174   -1.540808    1.157271
     17          1           0       -0.544860   -2.443801   -0.354518
     18          1           0        0.903860   -0.886283   -1.485670
     19          1           0        2.689890   -1.259210   -0.183441
 ---------------------------------------------------------------------

 SCF Done:  E(RB3LYP) =  -423.176311487     A.U. after    1 cycles

 The electronic state is 1-A.
 Alpha  occ. eigenvalues --  -19.14135 -19.14034 -10.24121 -10.23236 -10.23200
 Alpha  occ. eigenvalues --  -10.19620 -10.18774 -10.18279 -10.18016  -1.05943
 Alpha  occ. eigenvalues --   -1.02390  -0.81980  -0.75976  -0.71735  -0.66491
 Alpha  occ. eigenvalues --   -0.61630  -0.59724  -0.52609  -0.51573  -0.49697
 Alpha  occ. eigenvalues --   -0.47149  -0.43904  -0.42118  -0.41647  -0.40360
 Alpha  occ. eigenvalues --   -0.39711  -0.37730  -0.35785  -0.34659  -0.33641
 Alpha  occ. eigenvalues --   -0.30201  -0.27248  -0.26210  -0.23915
 Alpha virt. eigenvalues --    0.00185   0.06633   0.09878   0.10112   0.12476
 Alpha virt. eigenvalues --    0.13977   0.14796   0.15237   0.15776   0.16561
 Alpha virt. eigenvalues --    0.16629   0.19235   0.20253   0.21941   0.23184

 Mulliken charges:
               1
     1  C   -0.501475
     2  C    0.309886
     3  C   -0.180716
     4  C    0.016590
     5  O   -0.256359
     6  C    0.012657
     7  C   -0.226328
     8  C    0.000345
     9  O   -0.425167
    10  H    0.115297
    11  H    0.126732
    12  H    0.143322
    13  H    0.086366
    14  H    0.089605
    15  H    0.090516
    16  H    0.131749
    17  H    0.103536
    18  H    0.078225
    19  H    0.285219
 Sum of Mulliken charges =   0.00000

 Dipole moment (field-independent basis, Debye):
    X=              1.8461    Y=              0.5264    Z=             -2.4194  Tot=              3.0885
 Quadrupole moment (field-independent basis, Debye-Ang):
   XX=            -51.5836   YY=            -52.2126   ZZ=            -54.4747
   XY=              1.8858   XZ=              1.8386   YZ=              1.4665

  Exact polarizability:  93.667  -1.297  80.838   2.054   1.006  56.243
 Approx polarizability: 132.251 -10.581 117.465  -1.796   0.677  92.311

                      1                      2                      3
                      A                      A                      A
 Frequencies --     82.0649               138.3438               218.2645
 Red. masses --      3.3615                 3.3803                 1.0712
 Frc consts  --      0.0133                 0.0381                 0.0301
 IR Inten    --      0.4484                 2.2058                 7.0955

                      4                      5                      6
                      A                      A                      A
 Frequencies --    270.9322               298.2060               326.4401
 Red. masses --      1.6020                 1.6532                 2.6293
 Frc consts  --      0.0693                 0.0866                 0.1651
 IR Inten    --     85.4311                30.1538                 2.0079

                      7                      8                      9
                      A                      A                      A
 Frequencies --    361.5288               405.2065               440.4029
 Red. masses --      3.8444                 3.7160                 4.6999
 Frc consts  --      0.2961                 0.3595                 0.5371
 IR Inten    --      2.3167                 7.9917                 4.2500

                     10                     11                     12
                      A                      A                      A
 Frequencies --    462.1578               526.4313               620.7941
 Red. masses --      3.7501                 3.1938                 3.4504
 Frc consts  --      0.4719                 0.5215                 0.7835
 IR Inten    --      0.4302                10.5937                14.9947

                     13                     14                     15
                      A                      A                      A
 Frequencies --    740.3216               754.6600               783.1898
 Red. masses --      3.2325                 2.9148                 4.6265
 Frc consts  --      1.0438                 0.9781                 1.6720
 IR Inten    --      1.2812                 1.7794                 8.8125

                     16                     17                     18
                      A                      A                      A
 Frequencies --    837.6438               875.0564               954.9328
 Red. masses --      2.6195                 1.6005                 2.4053
 Frc consts  --      1.0829                 0.7221                 1.2923
 IR Inten    --     19.7482                14.8787                17.0022

                     19                     20                     21
                      A                      A                      A
 Frequencies --    962.9835              1026.5974              1035.4257
 Red. masses --      2.3239                 1.9867                 1.6954
 Frc consts  --      1.2697                 1.2336                 1.0709
 IR Inten    --      6.7674                15.8046                 0.5241

                     22                     23                     24
                      A                      A                      A
 Frequencies --   1048.1051              1069.8771              1083.8401
 Red. masses --      1.9977                 1.6959                 1.5453
 Frc consts  --      1.2930                 1.1437                 1.0695
 IR Inten    --     46.1465                 5.0483                27.2865

                     25                     26                     27
                      A                      A                      A
 Frequencies --   1100.3169              1153.5278              1193.9676
 Red. masses --      3.9076                 1.3674                 1.3907
 Frc consts  --      2.7874                 1.0721                 1.1680
 IR Inten    --     28.8514                 1.7422                13.0480

                     28                     29                     30
                      A                      A                      A
 Frequencies --   1201.6549              1271.5558              1287.0568
 Red. masses --      2.2132                 1.2316                 1.2905
 Frc consts  --      1.8829                 1.1732                 1.2595
 IR Inten    --      0.6037                35.1520                 1.8023

                     31                     32                     33
                      A                      A                      A
 Frequencies --   1327.9190              1334.3256              1378.0746
 Red. masses --      1.3431                 1.2889                 1.7466
 Frc consts  --      1.3954                 1.3520                 1.9543
 IR Inten    --     11.6844                 2.6838                23.0041

                     34                     35                     36
                      A                      A                      A
 Frequencies --   1380.3998              1402.8043              1415.4384
 Red. masses --      1.4443                 1.3157                 1.4480
 Frc consts  --      1.6215                 1.5254                 1.7092
 IR Inten    --      3.7044                 9.3961                 6.3801

                     37                     38                     39
                      A                      A                      A
 Frequencies --   1465.2014              1478.8252              1479.1427
 Red. masses --      2.9718                 1.1157                 1.0657
 Frc consts  --      3.7590                 1.4375                 1.3737
 IR Inten    --     14.8914                 2.1162                10.8634

                     40                     41                     42
                      A                      A                      A
 Frequencies --   1495.6095              1722.1881              2936.7213
 Red. masses --      1.0624                 7.5515                 1.0814
 Frc consts  --      1.4002                13.1960                 5.4950
 IR Inten    --      6.7988                 7.4751                44.0447

                     43                     44                     45
                      A                      A                      A
 Frequencies --   3009.4115              3056.2192              3073.5798
 Red. masses --      1.0472                 1.0594                 1.0871
 Frc consts  --      5.5880                 5.8299                 6.0508
 IR Inten    --     31.5208                18.0271                13.9755

                     46                     47                     48
                      A                      A                      A
 Frequencies --   3099.5256              3107.0550              3118.6233
 Red. masses --      1.0966                 1.0901                 1.0934
 Frc consts  --      6.2072                 6.2005                 6.2656
 IR Inten    --      2.8857                23.1333                63.3786

                     49                     50                     51
                      A                      A                      A
 Frequencies --   3121.5620              3153.3040              3831.9819
 Red. masses --      1.1002                 1.0901                 1.0663
 Frc consts  --      6.3163                 6.3863                 9.2256
 IR Inten    --     13.9010                22.8820                20.4853

 - Thermochemistry -
 -------------------
 Temperature   298.150 Kelvin.  Pressure   1.00000 Atm.
 Atom     1 has atomic number  6 and mass  12.00000

 Molecular mass:   126.06808 amu.
 Principal axes and moments of inertia in atomic units:
                           1         2         3
     Eigenvalues --   657.654661233.930751733.34070
           X            0.99882   0.04705   0.01244
           Y           -0.04718   0.99884   0.01007
           Z           -0.01195  -0.01064   0.99987
 This molecule is an asymmetric top.
 Rotational symmetry number  1.
 Warning -- assumption of classical behavior for rotation
           may cause significant error
 Rotational temperatures (Kelvin)      0.13170     0.07019     0.04997
 Rotational constants (GHZ):           2.74421     1.46260     1.04119
 Zero-point vibrational energy     418210.9 (Joules/Mol)
                                   99.95480 (Kcal/Mol)
 Warning -- explicit consideration of  11 degrees of freedom as
           vibrations may cause significant error
 Vibrational temperatures:    118.07   199.05   314.03   389.81   429.05
          (Kelvin)            469.67   520.16   583.00   633.64   664.94
                              757.42   893.18  1065.16  1085.79  1126.83
                             1205.18  1259.01  1373.93  1385.52  1477.04
                             1489.74  1507.99  1539.31  1559.40  1583.11
                             1659.67  1717.85  1728.91  1829.48  1851.79
                             1910.58  1919.79  1982.74  1986.08  2018.32
                             2036.50  2108.10  2127.70  2128.15  2151.85
                             2477.84  4225.28  4329.87  4397.21  4422.19
                             4459.52  4470.35  4487.00  4491.23  4536.90
                             5513.36

 Zero-point correction=                           0.159288 (Hartree/Particle)
 Thermal correction to Energy=                    0.167703
 Thermal correction to Enthalpy=                  0.168647
 Thermal correction to Gibbs Free Energy=         0.126441
 Sum of electronic and zero-point Energies=           -423.017023
 Sum of electronic and thermal Energies=              -423.008609
 Sum of electronic and thermal Enthalpies=            -423.007665
 Sum of electronic and thermal Free Energies=         -423.049870

                     E (Thermal)             CV                S
                      KCal/Mol        Cal/Mol-Kelvin    Cal/Mol-Kelvin
 Total                  105.235             32.640             88.829
 Electronic               0.000              0.000              0.000
 Translational            0.889              2.981             40.409
 Rotational               0.889              2.981             28.733
 Vibrational            103.457             26.678             19.687
 Vibration     1          0.600              1.961              3.841
 Vibration     2          0.614              1.915              2.827
 Vibration     3          0.646              1.813              1.973
 Vibration     4          0.675              1.727              1.590
 Vibration     5          0.691              1.677              1.427
 Vibration     6          0.710              1.623              1.278
 Vibration     7          0.736              1.552              1.116
 Vibration     8          0.770              1.459              0.944
 Vibration     9          0.800              1.382              0.825
 Vibration    10          0.820              1.334              0.760
 Vibration    11          0.881              1.191              0.595

 Optimization completed.
    -- Stationary point found.
 Normal termination of Gaussian 09 at Tue Jan 28 03:54:59 2020.
