 Gaussian 09, Revision D.01,
 Gaussian 09:  ES64L-G09RevD.01 24-Apr-2013

 -----------------------------
 # b3lyp 6-31G(2df,p) opt Freq
 -----------------------------

 -----
 titel
 -----
 Symbolic Z-matrix:
 Charge =  0 Multiplicity = 1

 SCF Done:  E(RB3LYP) =  -423.193229862     A.U. after   14 cycles
 Optimization completed.
    -- Stationary point found.
 Normal termination of Gaussian 09 at Mon Jan 27 13:15:32 2020.

 ----------------------------------------------------------------------
 #N Geom=AllCheck Guess=TCheck SCRF=Check GenChk RB3LYP/6-31G(2df,p) Fr
 eq
 ----------------------------------------------------------------------

 Structure from the checkpoint file:  "/scratch/puck/g09_65fe07d8-f876-49f6-91bc-ae6ce1ccd0ce/Gau-38320.chk"
 -----
 titel
 -----
 Charge =  0 Multiplicity = 1

                         Standard orientation:
 ---------------------------------------------------------------------
 Center     Atomic      Atomic             Coordinates (Angstroms)
 Number     Number       Type             X           Y           Z
 ---------------------------------------------------------------------
      1          8           0       -2.743236   -0.706179   -0.531969
      2          6           0       -2.045178    0.250371   -0.293759
      3          6           0       -0.655601    0.176414    0.204192
      4          6           0       -0.187612    1.313717    1.098600
      5          6           0        0.308803    1.259537   -0.307910
      6          6           0        1.752959    0.862112   -0.607923
      7          6           0        1.963955   -0.655183   -0.521788
      8          8           0        1.309690   -1.209458    0.606752
      9          6           0       -0.096117   -1.217973    0.432667
     10          1           0       -2.422692    1.290622   -0.442098
     11          1           0       -0.909502    2.076815    1.370856
     12          1           0        0.502316    1.028365    1.885579
     13          1           0       -0.128902    1.982523   -0.990215
     14          1           0        2.032011    1.203815   -1.610046
     15          1           0        2.423158    1.366795    0.096725
     16          1           0        1.594272   -1.142118   -1.438989
     17          1           0        3.025701   -0.895036   -0.417801
     18          1           0       -0.376813   -1.859843   -0.415987
     19          1           0       -0.518442   -1.660818    1.339240
 ---------------------------------------------------------------------

 SCF Done:  E(RB3LYP) =  -423.193229862     A.U. after    1 cycles

 The electronic state is 1-A.
 Alpha  occ. eigenvalues --  -19.14588 -19.13491 -10.26926 -10.23377 -10.23195
 Alpha  occ. eigenvalues --  -10.21510 -10.20958 -10.20261 -10.19658  -1.04426
 Alpha  occ. eigenvalues --   -1.03929  -0.88446  -0.77786  -0.69941  -0.67217
 Alpha  occ. eigenvalues --   -0.62561  -0.58463  -0.54702  -0.50831  -0.49200
 Alpha  occ. eigenvalues --   -0.47982  -0.45278  -0.43969  -0.42578  -0.41226
 Alpha  occ. eigenvalues --   -0.40993  -0.39566  -0.36972  -0.36296  -0.31933
 Alpha  occ. eigenvalues --   -0.31528  -0.28401  -0.26149  -0.24791
 Alpha virt. eigenvalues --   -0.01986   0.07854   0.09824   0.10621   0.11635
 Alpha virt. eigenvalues --    0.12325   0.13157   0.14582   0.15143   0.16574
 Alpha virt. eigenvalues --    0.17103   0.18860   0.19915   0.21311   0.23021

 Mulliken charges:
               1
     1  O   -0.274603
     2  C    0.103920
     3  C    0.210578
     4  C   -0.322218
     5  C   -0.068200
     6  C   -0.236850
     7  C   -0.074942
     8  O   -0.246200
     9  C   -0.165108
    10  H    0.065814
    11  H    0.119524
    12  H    0.137354
    13  H    0.096185
    14  H    0.106993
    15  H    0.114378
    16  H    0.093464
    17  H    0.109961
    18  H    0.110572
    19  H    0.119379
 Sum of Mulliken charges =   0.00000

 Dipole moment (field-independent basis, Debye):
    X=              1.9522    Y=              2.3664    Z=             -0.2916  Tot=              3.0816
 Quadrupole moment (field-independent basis, Debye-Ang):
   XX=            -59.4178   YY=            -53.6192   ZZ=            -52.2973
   XY=             -2.9241   XZ=             -4.2609   YZ=              0.1376

  Exact polarizability:  87.810   4.120  76.116  -0.630   1.864  64.969
 Approx polarizability: 121.917  14.273 115.738   3.652   3.726 101.770

                      1                      2                      3
                      A                      A                      A
 Frequencies --     94.2326               127.4866               209.7865
 Red. masses --      4.3899                 2.3555                 4.6259
 Frc consts  --      0.0230                 0.0226                 0.1199
 IR Inten    --      4.1884                 1.7741                 5.8504

                      4                      5                      6
                      A                      A                      A
 Frequencies --    236.1826               325.9135               384.6202
 Red. masses --      2.4899                 2.6798                 2.8208
 Frc consts  --      0.0818                 0.1677                 0.2459
 IR Inten    --      2.1461                 1.3092                 0.1838

                      7                      8                      9
                      A                      A                      A
 Frequencies --    395.2204               432.5841               497.4542
 Red. masses --      2.0857                 3.0082                 4.5561
 Frc consts  --      0.1919                 0.3317                 0.6643
 IR Inten    --      5.6387                 0.3852                 2.7835

                     10                     11                     12
                      A                      A                      A
 Frequencies --    537.8150               682.1249               751.4286
 Red. masses --      2.8727                 3.1230                 3.1973
 Frc consts  --      0.4896                 0.8561                 1.0637
 IR Inten    --      4.2425                38.1814                 0.6097

                     13                     14                     15
                      A                      A                      A
 Frequencies --    759.4114               846.7634               852.2143
 Red. masses --      3.6522                 1.5973                 2.7517
 Frc consts  --      1.2410                 0.6748                 1.1775
 IR Inten    --      0.4817                 6.1279                 8.0272

                     16                     17                     18
                      A                      A                      A
 Frequencies --    926.2983               948.2600               967.3593
 Red. masses --      1.4194                 2.2520                 1.6563
 Frc consts  --      0.7176                 1.1931                 0.9132
 IR Inten    --     24.9467                 7.3346                28.2785

                     19                     20                     21
                      A                      A                      A
 Frequencies --   1006.2010              1045.6800              1069.4841
 Red. masses --      2.7259                 1.7742                 1.6732
 Frc consts  --      1.6260                 1.1430                 1.1276
 IR Inten    --      1.7267                 2.6628                 6.3599

                     22                     23                     24
                      A                      A                      A
 Frequencies --   1074.9798              1111.4584              1119.8180
 Red. masses --      1.5948                 2.3805                 2.0159
 Frc consts  --      1.0858                 1.7327                 1.4894
 IR Inten    --      7.3844                12.9220                27.8584

                     25                     26                     27
                      A                      A                      A
 Frequencies --   1138.2599              1149.6492              1240.1721
 Red. masses --      1.9083                 2.3975                 1.3707
 Frc consts  --      1.4567                 1.8670                 1.2421
 IR Inten    --     19.0610                44.3896                 6.9122

                     28                     29                     30
                      A                      A                      A
 Frequencies --   1258.9502              1274.9502              1317.8286
 Red. masses --      1.3707                 1.4259                 1.4283
 Frc consts  --      1.2800                 1.3656                 1.4615
 IR Inten    --      3.9880                19.1445                 5.8357

                     31                     32                     33
                      A                      A                      A
 Frequencies --   1326.7294              1365.9567              1372.0576
 Red. masses --      1.9500                 1.3777                 1.4837
 Frc consts  --      2.0223                 1.5145                 1.6457
 IR Inten    --     23.7921                 2.2319                 1.5697

                     34                     35                     36
                      A                      A                      A
 Frequencies --   1415.2407              1424.2033              1438.0880
 Red. masses --      1.4493                 1.4136                 1.2898
 Frc consts  --      1.7103                 1.6894                 1.5716
 IR Inten    --     11.7505                14.0851                 6.1768

                     37                     38                     39
                      A                      A                      A
 Frequencies --   1476.3962              1488.6336              1495.5277
 Red. masses --      1.2366                 1.1340                 1.1167
 Frc consts  --      1.5881                 1.4806                 1.4716
 IR Inten    --      3.8171                 3.5391                 3.0108

                     40                     41                     42
                      A                      A                      A
 Frequencies --   1505.3761              1807.6219              2842.9396
 Red. masses --      1.0998                10.6014                 1.0819
 Frc consts  --      1.4684                20.4093                 5.1519
 IR Inten    --      3.4339               252.5566               110.9590

                     43                     44                     45
                      A                      A                      A
 Frequencies --   2973.7945              2997.9935              3038.6304
 Red. masses --      1.0705                 1.0679                 1.0610
 Frc consts  --      5.5777                 5.6551                 5.7718
 IR Inten    --     44.6290                39.8035                27.5410

                     46                     47                     48
                      A                      A                      A
 Frequencies --   3079.1956              3085.5157              3091.5341
 Red. masses --      1.0985                 1.0949                 1.0971
 Frc consts  --      6.1366                 6.1413                 6.1781
 IR Inten    --     26.8460                22.3697                36.6632

                     49                     50                     51
                      A                      A                      A
 Frequencies --   3130.1253              3145.0658              3221.6765
 Red. masses --      1.0537                 1.0888                 1.1169
 Frc consts  --      6.0829                 6.3452                 6.8300
 IR Inten    --     10.1066                13.7796                 3.5722

 - Thermochemistry -
 -------------------
 Temperature   298.150 Kelvin.  Pressure   1.00000 Atm.
 Atom     1 has atomic number  8 and mass  15.99491

 Molecular mass:   126.06808 amu.
 Principal axes and moments of inertia in atomic units:
                           1         2         3
     Eigenvalues --   634.570441314.612601585.73619
           X            0.99969  -0.00906  -0.02337
           Y            0.00938   0.99986   0.01355
           Z            0.02325  -0.01377   0.99963
 This molecule is an asymmetric top.
 Rotational symmetry number  1.
 Warning -- assumption of classical behavior for rotation
           may cause significant error
 Rotational temperatures (Kelvin)      0.13649     0.06589     0.05462
 Rotational constants (GHZ):           2.84404     1.37283     1.13811
 Zero-point vibrational energy     421712.9 (Joules/Mol)
                                  100.79180 (Kcal/Mol)
 Warning -- explicit consideration of  10 degrees of freedom as
           vibrations may cause significant error
 Vibrational temperatures:    135.58   183.42   301.84   339.81   468.92
          (Kelvin)            553.38   568.63   622.39   715.72   773.79
                              981.42  1081.14  1092.62  1218.30  1226.14
                             1332.74  1364.33  1391.81  1447.70  1504.50
                             1538.75  1546.65  1599.14  1611.17  1637.70
                             1654.09  1784.33  1811.35  1834.37  1896.06
                             1908.87  1965.30  1974.08  2036.21  2049.11
                             2069.09  2124.20  2141.81  2151.73  2165.90
                             2600.76  4090.35  4278.62  4313.44  4371.91
                             4430.27  4439.36  4448.02  4503.55  4525.04
                             4635.27

 Zero-point correction=                           0.160622 (Hartree/Particle)
 Thermal correction to Energy=                    0.168566
 Thermal correction to Enthalpy=                  0.169511
 Thermal correction to Gibbs Free Energy=         0.128076
 Sum of electronic and zero-point Energies=           -423.032608
 Sum of electronic and thermal Energies=              -423.024663
 Sum of electronic and thermal Enthalpies=            -423.023719
 Sum of electronic and thermal Free Energies=         -423.065154

                     E (Thermal)             CV                S
                      KCal/Mol        Cal/Mol-Kelvin    Cal/Mol-Kelvin
 Total                  105.777             30.639             87.207
 Electronic               0.000              0.000              0.000
 Translational            0.889              2.981             40.409
 Rotational               0.889              2.981             28.672
 Vibrational            104.000             24.677             18.126
 Vibration     1          0.603              1.953              3.570
 Vibration     2          0.611              1.926              2.984
 Vibration     3          0.642              1.826              2.046
 Vibration     4          0.655              1.785              1.831
 Vibration     5          0.710              1.624              1.280
 Vibration     6          0.754              1.503              1.021
 Vibration     7          0.762              1.480              0.980
 Vibration     8          0.793              1.399              0.850
 Vibration     9          0.853              1.256              0.665
 Vibration    10          0.893              1.166              0.570

 Optimization completed.
    -- Stationary point found.
 Normal termination of Gaussian 09 at Mon Jan 27 13:59:54 2020.
