 Gaussian 09, Revision D.01,
 Gaussian 09:  ES64L-G09RevD.01 24-Apr-2013

 -----------------------------
 # b3lyp 6-31G(2df,p) opt Freq
 -----------------------------

 -----
 titel
 -----
 Symbolic Z-matrix:
 Charge =  0 Multiplicity = 1

 SCF Done:  E(RB3LYP) =  -423.232943953     A.U. after   14 cycles
 Optimization completed.
    -- Stationary point found.
 Normal termination of Gaussian 09 at Mon Jan 27 16:40:54 2020.

 ----------------------------------------------------------------------
 #N Geom=AllCheck Guess=TCheck SCRF=Check GenChk RB3LYP/6-31G(2df,p) Fr
 eq
 ----------------------------------------------------------------------

 Structure from the checkpoint file:  "/scratch/puck/g09_8142e55b-11b2-4c18-a13f-0c83795b50e9/Gau-57347.chk"
 -----
 titel
 -----
 Charge =  0 Multiplicity = 1

                         Standard orientation:
 ---------------------------------------------------------------------
 Center     Atomic      Atomic             Coordinates (Angstroms)
 Number     Number       Type             X           Y           Z
 ---------------------------------------------------------------------
      1          6           0        0.736249    1.507690    1.094507
      2          6           0        0.660505    0.301599    0.142005
      3          6           0        0.182146   -0.989777    0.854380
      4          6           0       -1.350916   -0.912250    0.863596
      5          6           0       -1.720442   -0.037399   -0.337617
      6          8           0       -2.829571    0.176409   -0.748505
      7          6           0       -0.427992    0.533222   -0.941981
      8          6           0        2.008597    0.124725   -0.536366
      9          8           0        2.577764   -0.924933   -0.692086
     10          1           0        1.072869    2.406533    0.566375
     11          1           0       -0.244076    1.730819    1.527266
     12          1           0        1.431153    1.317638    1.918805
     13          1           0        0.528935   -1.851742    0.277769
     14          1           0        0.613341   -1.080539    1.854455
     15          1           0       -1.855493   -1.879816    0.801266
     16          1           0       -1.737268   -0.417417    1.763141
     17          1           0       -0.215388   -0.051623   -1.847126
     18          1           0       -0.559563    1.573402   -1.248414
     19          1           0        2.451059    1.074072   -0.919946
 ---------------------------------------------------------------------

 SCF Done:  E(RB3LYP) =  -423.232943953     A.U. after    1 cycles

 The electronic state is 1-A.
 Alpha  occ. eigenvalues --  -19.14929 -19.13656 -10.27684 -10.27667 -10.21802
 Alpha  occ. eigenvalues --  -10.20503 -10.19867 -10.19752 -10.19434  -1.05621
 Alpha  occ. eigenvalues --   -1.04825  -0.86178  -0.76510  -0.72522  -0.67802
 Alpha  occ. eigenvalues --   -0.63430  -0.55346  -0.53464  -0.50299  -0.48211
 Alpha  occ. eigenvalues --   -0.46356  -0.44928  -0.43617  -0.42859  -0.41744
 Alpha  occ. eigenvalues --   -0.40347  -0.39326  -0.38281  -0.37046  -0.35005
 Alpha  occ. eigenvalues --   -0.34624  -0.33709  -0.26277  -0.24502
 Alpha virt. eigenvalues --   -0.02989  -0.02392   0.06832   0.10500   0.11586
 Alpha virt. eigenvalues --    0.12464   0.13618   0.14108   0.14738   0.16136
 Alpha virt. eigenvalues --    0.16632   0.18337   0.19094   0.20812   0.22305

 Mulliken charges:
               1
     1  C   -0.447689
     2  C    0.175767
     3  C   -0.251990
     4  C   -0.332300
     5  C    0.407262
     6  O   -0.305182
     7  C   -0.362909
     8  C    0.124059
     9  O   -0.253874
    10  H    0.125520
    11  H    0.129780
    12  H    0.129757
    13  H    0.129971
    14  H    0.108028
    15  H    0.136080
    16  H    0.135405
    17  H    0.142894
    18  H    0.131861
    19  H    0.077561
 Sum of Mulliken charges =   0.00000

 Dipole moment (field-independent basis, Debye):
    X=              0.8283    Y=              1.3259    Z=              1.5193  Tot=              2.1800
 Quadrupole moment (field-independent basis, Debye-Ang):
   XX=            -68.5831   YY=            -52.3038   ZZ=            -51.7556
   XY=              6.2685   XZ=             -1.6748   YZ=             -0.9740

  Exact polarizability:  86.470   0.553  72.914  -1.114  -3.078  68.181
 Approx polarizability: 125.273  -7.650 112.236   0.824  -3.009 101.241

                      1                      2                      3
                      A                      A                      A
 Frequencies --     54.0595                70.0845               142.8888
 Red. masses --      6.6076                 3.0515                 2.1847
 Frc consts  --      0.0114                 0.0088                 0.0263
 IR Inten    --      8.7104                 2.4828                 1.4337

                      4                      5                      6
                      A                      A                      A
 Frequencies --    222.5007               237.3990               290.9071
 Red. masses --      2.5733                 1.1362                 2.6184
 Frc consts  --      0.0751                 0.0377                 0.1306
 IR Inten    --      7.0684                 1.6682                 1.2557

                      7                      8                      9
                      A                      A                      A
 Frequencies --    331.2707               356.2642               448.4972
 Red. masses --      2.3216                 2.3074                 2.2013
 Frc consts  --      0.1501                 0.1725                 0.2609
 IR Inten    --      3.1347                 1.7210                 0.6392

                     10                     11                     12
                      A                      A                      A
 Frequencies --    476.2923               507.3110               586.4439
 Red. masses --      3.6125                 3.7328                 3.2513
 Frc consts  --      0.4828                 0.5660                 0.6588
 IR Inten    --      2.6405                 2.5445                 5.0251

                     13                     14                     15
                      A                      A                      A
 Frequencies --    684.5200               718.9873               764.4886
 Red. masses --      4.8101                 1.8683                 3.5498
 Frc consts  --      1.3279                 0.5690                 1.2223
 IR Inten    --     15.0602                 3.4205                 2.0940

                     16                     17                     18
                      A                      A                      A
 Frequencies --    809.2136               882.2588               930.0400
 Red. masses --      2.5430                 1.9066                 1.7407
 Frc consts  --      0.9811                 0.8744                 0.8871
 IR Inten    --      4.3249                10.2328                30.6238

                     19                     20                     21
                      A                      A                      A
 Frequencies --    945.1202               969.9729              1003.8046
 Red. masses --      1.9663                 1.5772                 1.8696
 Frc consts  --      1.0349                 0.8743                 1.1099
 IR Inten    --      0.1119                 0.4834                 0.8677

                     22                     23                     24
                      A                      A                      A
 Frequencies --   1016.7362              1046.6855              1126.0567
 Red. masses --      1.6162                 1.7719                 3.9918
 Frc consts  --      0.9844                 1.1437                 2.9822
 IR Inten    --      1.8593                 4.4106                93.4762

                     25                     26                     27
                      A                      A                      A
 Frequencies --   1156.2683              1189.0949              1226.5056
 Red. masses --      1.9023                 1.6351                 1.5699
 Frc consts  --      1.4984                 1.3622                 1.3915
 IR Inten    --      0.1144                 2.8989                 0.7180

                     28                     29                     30
                      A                      A                      A
 Frequencies --   1240.1871              1264.4825              1274.5731
 Red. masses --      1.9537                 1.8585                 1.7747
 Frc consts  --      1.7704                 1.7508                 1.6987
 IR Inten    --      3.1459                 0.8904                 1.2349

                     31                     32                     33
                      A                      A                      A
 Frequencies --   1308.3218              1341.7469              1408.7102
 Red. masses --      1.4401                 1.5825                 1.2209
 Frc consts  --      1.4524                 1.6785                 1.4275
 IR Inten    --      8.0785                 0.7216                 5.2834

                     34                     35                     36
                      A                      A                      A
 Frequencies --   1428.8589              1446.4110              1453.6836
 Red. masses --      1.1946                 1.0848                 1.0837
 Frc consts  --      1.4369                 1.3372                 1.3493
 IR Inten    --      5.0571                12.6503                 3.2011

                     37                     38                     39
                      A                      A                      A
 Frequencies --   1493.9941              1497.0242              1506.5243
 Red. masses --      1.0687                 1.0518                 1.0782
 Frc consts  --      1.4054                 1.3888                 1.4417
 IR Inten    --      3.9390                 3.7399                 7.5485

                     40                     41                     42
                      A                      A                      A
 Frequencies --   1826.4576              1850.0079              2857.3424
 Red. masses --     10.9199                12.7480                 1.0823
 Frc consts  --     21.4629                25.7063                 5.2061
 IR Inten    --    178.4417               219.4998               115.5637

                     43                     44                     45
                      A                      A                      A
 Frequencies --   3029.6157              3031.6572              3044.1127
 Red. masses --      1.0626                 1.0393                 1.0670
 Frc consts  --      5.7464                 5.6279                 5.8254
 IR Inten    --     12.8097                10.5971                 9.1321

                     46                     47                     48
                      A                      A                      A
 Frequencies --   3066.6490              3099.4057              3100.0865
 Red. masses --      1.0604                 1.0961                 1.1010
 Frc consts  --      5.8757                 6.2038                 6.2342
 IR Inten    --     13.0259                 6.9679                17.6211

                     49                     50                     51
                      A                      A                      A
 Frequencies --   3106.1185              3110.6794              3113.3859
 Red. masses --      1.1014                 1.0957                 1.1037
 Frc consts  --      6.2608                 6.2469                 6.3032
 IR Inten    --     13.3355                12.9386                17.1158

 - Thermochemistry -
 -------------------
 Temperature   298.150 Kelvin.  Pressure   1.00000 Atm.
 Atom     1 has atomic number  6 and mass  12.00000

 Molecular mass:   126.06808 amu.
 Principal axes and moments of inertia in atomic units:
                           1         2         3
     Eigenvalues --   621.524871625.836931649.88465
           X            0.99955   0.02856  -0.00911
           Y           -0.02961   0.98804  -0.15135
           Z            0.00468   0.15156   0.98844
 This molecule is an asymmetric top.
 Rotational symmetry number  1.
 Warning -- assumption of classical behavior for rotation
           may cause significant error
 Rotational temperatures (Kelvin)      0.13936     0.05327     0.05250
 Rotational constants (GHZ):           2.90373     1.11004     1.09386
 Zero-point vibrational energy     413272.1 (Joules/Mol)
                                   98.77441 (Kcal/Mol)
 Warning -- explicit consideration of  12 degrees of freedom as
           vibrations may cause significant error
 Vibrational temperatures:     77.78   100.84   205.58   320.13   341.56
          (Kelvin)            418.55   476.62   512.58   645.29   685.28
                              729.91   843.76   984.87  1034.46  1099.93
                             1164.28  1269.37  1338.12  1359.82  1395.57
                             1444.25  1462.85  1505.95  1620.14  1663.61
                             1710.84  1764.67  1784.35  1819.31  1833.82
                             1882.38  1930.47  2026.82  2055.81  2081.06
                             2091.52  2149.52  2153.88  2167.55  2627.86
                             2661.75  4111.07  4358.94  4361.87  4379.79
                             4412.22  4459.35  4460.33  4469.01  4475.57
                             4479.46

 Zero-point correction=                           0.157407 (Hartree/Particle)
 Thermal correction to Energy=                    0.166470
 Thermal correction to Enthalpy=                  0.167414
 Thermal correction to Gibbs Free Energy=         0.123046
 Sum of electronic and zero-point Energies=           -423.075537
 Sum of electronic and thermal Energies=              -423.066474
 Sum of electronic and thermal Enthalpies=            -423.065530
 Sum of electronic and thermal Free Energies=         -423.109898

                     E (Thermal)             CV                S
                      KCal/Mol        Cal/Mol-Kelvin    Cal/Mol-Kelvin
 Total                  104.461             33.454             93.381
 Electronic               0.000              0.000              0.000
 Translational            0.889              2.981             40.409
 Rotational               0.889              2.981             28.901
 Vibrational            102.684             27.492             24.071
 Vibration     1          0.596              1.976              4.663
 Vibration     2          0.598              1.968              4.151
 Vibration     3          0.616              1.910              2.765
 Vibration     4          0.648              1.807              1.939
 Vibration     5          0.656              1.783              1.822
 Vibration     6          0.687              1.691              1.469
 Vibration     7          0.714              1.613              1.254
 Vibration     8          0.732              1.562              1.138
 Vibration     9          0.808              1.364              0.800
 Vibration    10          0.833              1.303              0.720
 Vibration    11          0.863              1.234              0.640
 Vibration    12          0.944              1.061              0.474

 Normal termination of Gaussian 09 at Mon Jan 27 17:23:22 2020.
