 Gaussian 09, Revision D.01,
 Gaussian 09:  ES64L-G09RevD.01 24-Apr-2013

 -----------------------------
 # b3lyp 6-31G(2df,p) opt Freq
 -----------------------------

 -----
 titel
 -----
 Symbolic Z-matrix:
 Charge =  0 Multiplicity = 1

 SCF Done:  E(RB3LYP) =  -423.119176496     A.U. after   13 cycles
 Optimization completed.
    -- Stationary point found.
 Normal termination of Gaussian 09 at Mon Jan 27 22:03:29 2020.

 ----------------------------------------------------------------------
 #N Geom=AllCheck Guess=TCheck SCRF=Check GenChk RB3LYP/6-31G(2df,p) Fr
 eq
 ----------------------------------------------------------------------

 Structure from the checkpoint file:  "/scratch/puck/g09_a8981bec-9229-4131-8c3b-aa88faaff5ec/Gau-72795.chk"
 -----
 titel
 -----
 Charge =  0 Multiplicity = 1

                         Standard orientation:
 ---------------------------------------------------------------------
 Center     Atomic      Atomic             Coordinates (Angstroms)
 Number     Number       Type             X           Y           Z
 ---------------------------------------------------------------------
      1          6           0        1.832665   -1.814825   -0.247334
      2          6           0        1.240461   -0.455954   -0.548125
      3          6           0        1.283358    0.658217    0.476626
      4          8           0        1.440250    1.986509    0.062195
      5          6           0       -0.020555    0.012831    0.136464
      6          6           0       -0.983519   -0.723316    1.105063
      7          6           0       -2.132762    0.042532    0.419532
      8          8           0       -2.101083   -0.284891   -0.972730
      9          6           0       -1.200898    0.728163   -0.490659
     10          1           0        2.903595   -1.843543   -0.477797
     11          1           0        1.713748   -2.074091    0.809698
     12          1           0        1.342221   -2.598602   -0.834402
     13          1           0        1.340626   -0.120112   -1.578316
     14          1           0        1.720130    0.424601    1.450126
     15          1           0        2.346436    2.097322   -0.244344
     16          1           0       -1.042516   -1.811545    1.020589
     17          1           0       -0.834058   -0.438619    2.150281
     18          1           0       -3.079907    0.362417    0.837493
     19          1           0       -1.236103    1.703339   -0.958450
 ---------------------------------------------------------------------

 SCF Done:  E(RB3LYP) =  -423.119176496     A.U. after    1 cycles

 The electronic state is 1-A.
 Alpha  occ. eigenvalues --  -19.14562 -19.14297 -10.23399 -10.23233 -10.23025
 Alpha  occ. eigenvalues --  -10.19593 -10.18907 -10.18902 -10.18100  -1.06929
 Alpha  occ. eigenvalues --   -1.02936  -0.85982  -0.76824  -0.70750  -0.64789
 Alpha  occ. eigenvalues --   -0.60393  -0.58703  -0.53262  -0.52287  -0.50729
 Alpha  occ. eigenvalues --   -0.44964  -0.43709  -0.43301  -0.40894  -0.40132
 Alpha  occ. eigenvalues --   -0.38150  -0.37840  -0.36764  -0.33914  -0.31795
 Alpha  occ. eigenvalues --   -0.29890  -0.26864  -0.25395  -0.24170
 Alpha virt. eigenvalues --    0.07614   0.09471   0.09778   0.10940   0.11208
 Alpha virt. eigenvalues --    0.12569   0.14874   0.15461   0.15895   0.16128
 Alpha virt. eigenvalues --    0.16853   0.17582   0.19247   0.19474   0.22302

 Mulliken charges:
               1
     1  C   -0.411856
     2  C   -0.129564
     3  C    0.003962
     4  O   -0.424888
     5  C    0.333197
     6  C   -0.353801
     7  C    0.036583
     8  O   -0.251822
     9  C   -0.055349
    10  H    0.114866
    11  H    0.116839
    12  H    0.127359
    13  H    0.089614
    14  H    0.081033
    15  H    0.287574
    16  H    0.110866
    17  H    0.109153
    18  H    0.103818
    19  H    0.112417
 Sum of Mulliken charges =   0.00000

 Dipole moment (field-independent basis, Debye):
    X=              1.9505    Y=              0.0554    Z=              1.1086  Tot=              2.2442
 Quadrupole moment (field-independent basis, Debye-Ang):
   XX=            -49.2506   YY=            -54.2169   ZZ=            -52.9777
   XY=             -0.2956   XZ=             -4.6767   YZ=             -2.4655

  Exact polarizability:  86.411  -0.476  73.635  -3.786  -2.965  67.593
 Approx polarizability: 116.077   4.390 105.975  -3.418  -2.513 107.080

                      1                      2                      3
                      A                      A                      A
 Frequencies --    108.7872               149.1138               177.7359
 Red. masses --      3.9954                 3.1768                 1.9612
 Frc consts  --      0.0279                 0.0416                 0.0365
 IR Inten    --      2.3770                 0.8700                 0.3108

                      4                      5                      6
                      A                      A                      A
 Frequencies --    198.2493               223.0201               287.6279
 Red. masses --      1.4400                 2.7825                 2.3536
 Frc consts  --      0.0333                 0.0815                 0.1147
 IR Inten    --      1.6196                 9.4752                 2.9562

                      7                      8                      9
                      A                      A                      A
 Frequencies --    310.9309               383.0541               455.6316
 Red. masses --      1.3228                 2.0485                 4.7523
 Frc consts  --      0.0753                 0.1771                 0.5813
 IR Inten    --     91.1426                 2.2962                 3.6907

                     10                     11                     12
                      A                      A                      A
 Frequencies --    501.9046               554.2157               596.5050
 Red. masses --      2.8954                 4.0214                 4.4895
 Frc consts  --      0.4297                 0.7278                 0.9412
 IR Inten    --      6.8172                 5.0113                12.2230

                     13                     14                     15
                      A                      A                      A
 Frequencies --    783.9431               820.2906               845.8497
 Red. masses --      3.9757                 2.7203                 2.0386
 Frc consts  --      1.4396                 1.0784                 0.8593
 IR Inten    --      2.1492                 0.4053                17.7128

                     16                     17                     18
                      A                      A                      A
 Frequencies --    858.4072               874.0687               930.1674
 Red. masses --      2.3751                 2.0431                 2.5250
 Frc consts  --      1.0312                 0.9197                 1.2872
 IR Inten    --     15.7735                 8.2481                 7.3684

                     19                     20                     21
                      A                      A                      A
 Frequencies --    950.9848               976.0621              1015.9133
 Red. masses --      1.9639                 1.6989                 1.8154
 Frc consts  --      1.0464                 0.9536                 1.1039
 IR Inten    --      8.9820                14.1189                12.7928

                     22                     23                     24
                      A                      A                      A
 Frequencies --   1047.3145              1063.9026              1074.3953
 Red. masses --      1.4161                 1.5977                 1.7290
 Frc consts  --      0.9152                 1.0655                 1.1759
 IR Inten    --      3.9017                 5.2020                10.8687

                     25                     26                     27
                      A                      A                      A
 Frequencies --   1104.6595              1120.2639              1163.8599
 Red. masses --      2.7479                 1.8481                 2.5481
 Frc consts  --      1.9756                 1.3665                 2.0336
 IR Inten    --     15.8853                 5.2865                32.0950

                     28                     29                     30
                      A                      A                      A
 Frequencies --   1167.4459              1178.6187              1220.4463
 Red. masses --      1.4637                 1.6555                 1.5467
 Frc consts  --      1.1754                 1.3549                 1.3574
 IR Inten    --      7.1695                 2.9747                16.8046

                     31                     32                     33
                      A                      A                      A
 Frequencies --   1226.4915              1261.8628              1296.4898
 Red. masses --      1.5142                 1.5646                 1.2933
 Frc consts  --      1.3420                 1.4678                 1.2808
 IR Inten    --     11.8727                 1.8722                71.3118

                     34                     35                     36
                      A                      A                      A
 Frequencies --   1316.6248              1357.8845              1377.2955
 Red. masses --      1.7020                 1.4941                 3.4121
 Frc consts  --      1.7383                 1.6231                 3.8136
 IR Inten    --      6.8853                 1.7377                21.9624

                     37                     38                     39
                      A                      A                      A
 Frequencies --   1415.5795              1469.0195              1483.0874
 Red. masses --      1.2375                 1.1451                 1.9037
 Frc consts  --      1.4610                 1.4560                 2.4670
 IR Inten    --      3.0481                 2.0448                10.2062

                     40                     41                     42
                      A                      A                      A
 Frequencies --   1492.8432              1506.8176              3027.7447
 Red. masses --      1.1001                 1.2948                 1.0355
 Frc consts  --      1.4444                 1.7322                 5.5927
 IR Inten    --      6.6437                 8.0347                30.7320

                     43                     44                     45
                      A                      A                      A
 Frequencies --   3056.5390              3074.0000              3090.1434
 Red. masses --      1.0572                 1.0870                 1.1010
 Frc consts  --      5.8190                 6.0520                 6.1946
 IR Inten    --     24.1449                33.9370                22.8976

                     46                     47                     48
                      A                      A                      A
 Frequencies --   3097.5854              3113.0965              3133.5900
 Red. masses --      1.0995                 1.1085                 1.0879
 Frc consts  --      6.2156                 6.3295                 6.2940
 IR Inten    --     19.0528                16.7928                19.9863

                     49                     50                     51
                      A                      A                      A
 Frequencies --   3186.6048              3211.8732              3803.6713
 Red. masses --      1.0904                 1.0985                 1.0663
 Frc consts  --      6.5234                 6.6768                 9.0893
 IR Inten    --     20.8733                13.6925                21.1781

 - Thermochemistry -
 -------------------
 Temperature   298.150 Kelvin.  Pressure   1.00000 Atm.
 Atom     1 has atomic number  6 and mass  12.00000

 Molecular mass:   126.06808 amu.
 Principal axes and moments of inertia in atomic units:
                           1         2         3
     Eigenvalues --   732.413661279.221021614.88127
           X            0.99837  -0.05296  -0.02119
           Y            0.05243   0.99832  -0.02480
           Z            0.02246   0.02365   0.99947
 This molecule is an asymmetric top.
 Rotational symmetry number  1.
 Warning -- assumption of classical behavior for rotation
           may cause significant error
 Rotational temperatures (Kelvin)      0.11826     0.06771     0.05363
 Rotational constants (GHZ):           2.46410     1.41081     1.11757
 Zero-point vibrational energy     413562.3 (Joules/Mol)
                                   98.84376 (Kcal/Mol)
 Warning -- explicit consideration of  12 degrees of freedom as
           vibrations may cause significant error
 Vibrational temperatures:    156.52   214.54   255.72   285.24   320.88
          (Kelvin)            413.83   447.36   551.13   655.55   722.13
                              797.39   858.24  1127.92  1180.21  1216.99
                             1235.05  1257.59  1338.30  1368.25  1404.33
                             1461.67  1506.85  1530.72  1545.81  1589.36
                             1611.81  1674.53  1679.69  1695.77  1755.95
                             1764.65  1815.54  1865.36  1894.33  1953.69
                             1981.62  2036.70  2113.59  2133.83  2147.87
                             2167.97  4356.24  4397.67  4422.79  4446.02
                             4456.73  4479.05  4508.53  4584.81  4621.16
                             5472.63

 Zero-point correction=                           0.157518 (Hartree/Particle)
 Thermal correction to Energy=                    0.166211
 Thermal correction to Enthalpy=                  0.167156
 Thermal correction to Gibbs Free Energy=         0.124395
 Sum of electronic and zero-point Energies=           -422.961659
 Sum of electronic and thermal Energies=              -422.952965
 Sum of electronic and thermal Enthalpies=            -422.952021
 Sum of electronic and thermal Free Energies=         -422.994782

                     E (Thermal)             CV                S
                      KCal/Mol        Cal/Mol-Kelvin    Cal/Mol-Kelvin
 Total                  104.299             33.220             89.998
 Electronic               0.000              0.000              0.000
 Translational            0.889              2.981             40.409
 Rotational               0.889              2.981             28.805
 Vibrational            102.522             27.258             20.784
 Vibration     1          0.606              1.942              3.290
 Vibration     2          0.618              1.904              2.684
 Vibration     3          0.628              1.870              2.352
 Vibration     4          0.637              1.842              2.149
 Vibration     5          0.649              1.806              1.934
 Vibration     6          0.685              1.697              1.488
 Vibration     7          0.700              1.653              1.357
 Vibration     8          0.752              1.506              1.027
 Vibration     9          0.814              1.348              0.779
 Vibration    10          0.857              1.246              0.653
 Vibration    11          0.910              1.130              0.536
 Vibration    12          0.954              1.039              0.456

 Normal termination of Gaussian 09 at Mon Jan 27 22:47:17 2020.
