 Gaussian 09, Revision D.01,
 Gaussian 09:  ES64L-G09RevD.01 24-Apr-2013

 -----------------------------
 # b3lyp 6-31G(2df,p) opt Freq
 -----------------------------

 -----
 titel
 -----
 Symbolic Z-matrix:
 Charge =  0 Multiplicity = 1

 SCF Done:  E(RB3LYP) =  -423.132000447     A.U. after   14 cycles
 Optimization completed.
    -- Stationary point found.
 Normal termination of Gaussian 09 at Mon Jan 27 14:07:35 2020.

 ----------------------------------------------------------------------
 #N Geom=AllCheck Guess=TCheck SCRF=Check GenChk RB3LYP/6-31G(2df,p) Fr
 eq
 ----------------------------------------------------------------------

 Structure from the checkpoint file:  "/scratch/puck/g09_ce1cc33e-cf66-4af0-9ce6-843b81577ed1/Gau-4535.chk"
 -----
 titel
 -----
 Charge =  0 Multiplicity = 1

                         Standard orientation:
 ---------------------------------------------------------------------
 Center     Atomic      Atomic             Coordinates (Angstroms)
 Number     Number       Type             X           Y           Z
 ---------------------------------------------------------------------
      1          6           0       -3.973156    0.223465   -0.446027
      2          6           0       -2.650876   -0.243645   -0.050867
      3          6           0       -1.568539   -0.656488    0.282472
      4          6           0       -0.230586   -1.114836    0.661977
      5          6           0        0.841887   -0.618864   -0.299968
      6          6           0        2.164527   -0.123561    0.217158
      7          8           0        3.291931   -0.466378   -0.531562
      8          6           0        1.166971    0.861917   -0.330539
      9          8           0        0.539384    1.713302    0.581215
     10          1           0       -3.927167    0.828615   -1.358184
     11          1           0       -4.647181   -0.617677   -0.642077
     12          1           0       -4.431156    0.838243    0.336665
     13          1           0       -0.006729   -0.759498    1.673991
     14          1           0       -0.207585   -2.210508    0.708851
     15          1           0        0.877967   -1.121647   -1.261192
     16          1           0        2.293360   -0.112433    1.300509
     17          1           0        3.910645    0.270946   -0.488275
     18          1           0        1.398058    1.295550   -1.303841
     19          1           0       -0.412102    1.645085    0.431099
 ---------------------------------------------------------------------

 SCF Done:  E(RB3LYP) =  -423.132000447     A.U. after    1 cycles

 The electronic state is 1-A.
 Alpha  occ. eigenvalues --  -19.14252 -19.13844 -10.23089 -10.22768 -10.20910
 Alpha  occ. eigenvalues --  -10.20638 -10.19093 -10.17714 -10.17323  -1.03253
 Alpha  occ. eigenvalues --   -1.01826  -0.84453  -0.78377  -0.74747  -0.67524
 Alpha  occ. eigenvalues --   -0.59939  -0.58430  -0.53135  -0.50484  -0.47819
 Alpha  occ. eigenvalues --   -0.45945  -0.44911  -0.43892  -0.42828  -0.42738
 Alpha  occ. eigenvalues --   -0.39912  -0.38761  -0.37130  -0.32200  -0.31191
 Alpha  occ. eigenvalues --   -0.25983  -0.25876  -0.24968  -0.24309
 Alpha virt. eigenvalues --    0.05419   0.05637   0.07927   0.09167   0.10803
 Alpha virt. eigenvalues --    0.11593   0.13288   0.15237   0.15700   0.16769
 Alpha virt. eigenvalues --    0.17713   0.18439   0.20059   0.20849   0.21734

 Mulliken charges:
               1
     1  C   -0.497815
     2  C    0.055992
     3  C    0.061946
     4  C   -0.385780
     5  C   -0.062021
     6  C    0.049213
     7  O   -0.424917
     8  C    0.048968
     9  O   -0.426873
    10  H    0.148006
    11  H    0.150681
    12  H    0.148418
    13  H    0.137738
    14  H    0.131771
    15  H    0.104859
    16  H    0.092640
    17  H    0.287970
    18  H    0.085823
    19  H    0.293382
 Sum of Mulliken charges =   0.00000

 Dipole moment (field-independent basis, Debye):
    X=             -1.1748    Y=              0.3933    Z=             -0.3671  Tot=              1.2921
 Quadrupole moment (field-independent basis, Debye-Ang):
   XX=            -44.3454   YY=            -55.2625   ZZ=            -52.9822
   XY=              1.4113   XZ=              1.8425   YZ=             -2.8856

  Exact polarizability: 112.024  -5.841  67.333   4.939  -2.585  61.905
 Approx polarizability: 146.786 -14.064 102.279  11.463  -3.172  93.829

                      1                      2                      3
                      A                      A                      A
 Frequencies --     41.1096                42.6984                71.7215
 Red. masses --      3.8826                 1.0628                 3.9062
 Frc consts  --      0.0039                 0.0011                 0.0118
 IR Inten    --      0.7684                 0.0292                 0.2870

                      4                      5                      6
                      A                      A                      A
 Frequencies --    179.5588               212.4376               251.0175
 Red. masses --      4.6027                 2.8128                 2.9454
 Frc consts  --      0.0874                 0.0748                 0.1093
 IR Inten    --      4.9315                 6.1353                32.7378

                      7                      8                      9
                      A                      A                      A
 Frequencies --    268.6005               299.7812               311.1528
 Red. masses --      2.6564                 3.6446                 2.6561
 Frc consts  --      0.1129                 0.1930                 0.1515
 IR Inten    --      6.1418                 6.2719                 5.9862

                     10                     11                     12
                      A                      A                      A
 Frequencies --    335.7309               380.0413               404.5182
 Red. masses --      1.3663                 3.7802                 1.4666
 Frc consts  --      0.0907                 0.3217                 0.1414
 IR Inten    --     72.8685                 1.8677                98.2226

                     13                     14                     15
                      A                      A                      A
 Frequencies --    457.5564               490.4497               635.8189
 Red. masses --      3.6147                 3.6222                 3.2004
 Frc consts  --      0.4459                 0.5133                 0.7623
 IR Inten    --     26.2096                13.3787                 2.7337

                     16                     17                     18
                      A                      A                      A
 Frequencies --    761.9750               806.6613               870.6428
 Red. masses --      4.0395                 3.2633                 2.1318
 Frc consts  --      1.3819                 1.2511                 0.9521
 IR Inten    --      0.9941                 5.0681                 7.2513

                     19                     20                     21
                      A                      A                      A
 Frequencies --    946.2765               958.9093              1033.0239
 Red. masses --      2.0471                 2.2447                 1.6667
 Frc consts  --      1.0800                 1.2161                 1.0479
 IR Inten    --      5.2791                17.9669                 2.6890

                     22                     23                     24
                      A                      A                      A
 Frequencies --   1052.8970              1054.4939              1091.5975
 Red. masses --      1.3967                 1.3963                 1.2435
 Frc consts  --      0.9123                 0.9148                 0.8730
 IR Inten    --      0.9723                 0.7232                 8.6953

                     25                     26                     27
                      A                      A                      A
 Frequencies --   1110.6631              1137.2243              1153.7030
 Red. masses --      2.3205                 2.3669                 3.3898
 Frc consts  --      1.6865                 1.8035                 2.6583
 IR Inten    --     14.4018                88.7436                14.1919

                     28                     29                     30
                      A                      A                      A
 Frequencies --   1173.9287              1216.3141              1238.8694
 Red. masses --      3.3123                 1.6341                 1.2433
 Frc consts  --      2.6894                 1.4244                 1.1243
 IR Inten    --     32.4372                19.9422                 0.7888

                     31                     32                     33
                      A                      A                      A
 Frequencies --   1292.9396              1311.4337              1323.6668
 Red. masses --      1.2383                 1.1931                 1.3162
 Frc consts  --      1.2196                 1.2090                 1.3587
 IR Inten    --     53.3813                48.2124                 7.8319

                     34                     35                     36
                      A                      A                      A
 Frequencies --   1364.9225              1383.6056              1416.0200
 Red. masses --      1.3346                 1.5163                 1.2432
 Frc consts  --      1.4650                 1.7102                 1.4687
 IR Inten    --     15.9698                19.5362                 5.7421

                     37                     38                     39
                      A                      A                      A
 Frequencies --   1465.0090              1479.2706              1479.5187
 Red. masses --      1.1192                 1.0408                 1.0406
 Frc consts  --      1.4153                 1.3419                 1.3421
 IR Inten    --      3.4861                 4.8832                 5.4466

                     40                     41                     42
                      A                      A                      A
 Frequencies --   1482.9289              2364.7533              3027.3557
 Red. masses --      2.3986                11.8096                 1.0348
 Frc consts  --      3.1078                38.9098                 5.5879
 IR Inten    --     11.5665                 0.8150                31.2142

                     43                     44                     45
                      A                      A                      A
 Frequencies --   3029.6005              3065.1915              3087.6705
 Red. masses --      1.0603                 1.0998                 1.1002
 Frc consts  --      5.7340                 6.0881                 6.1800
 IR Inten    --     21.0073                 6.0068                10.3586

                     46                     47                     48
                      A                      A                      A
 Frequencies --   3088.6036              3093.4091              3099.9009
 Red. masses --      1.1002                 1.0887                 1.0862
 Frc consts  --      6.1836                 6.1378                 6.1498
 IR Inten    --      9.4763                10.2726                48.5523

                     49                     50                     51
                      A                      A                      A
 Frequencies --   3166.5548              3763.5699              3798.4097
 Red. masses --      1.0884                 1.0662                 1.0661
 Frc consts  --      6.4301                 8.8980                 9.0623
 IR Inten    --      8.9761                53.4707                21.2581

 - Thermochemistry -
 -------------------
 Temperature   298.150 Kelvin.  Pressure   1.00000 Atm.
 Atom     1 has atomic number  6 and mass  12.00000

 Molecular mass:   126.06808 amu.
 Principal axes and moments of inertia in atomic units:
                           1         2         3
     Eigenvalues --   468.586632414.350352650.83987
           X            0.99996  -0.00449   0.00775
           Y            0.00485   0.99888  -0.04714
           Z           -0.00753   0.04718   0.99886
 This molecule is an asymmetric top.
 Rotational symmetry number  1.
 Warning -- assumption of classical behavior for rotation
           may cause significant error
 Rotational temperatures (Kelvin)      0.18484     0.03587     0.03267
 Rotational constants (GHZ):           3.85146     0.74751     0.68082
 Zero-point vibrational energy     410161.9 (Joules/Mol)
                                   98.03104 (Kcal/Mol)
 Warning -- explicit consideration of  14 degrees of freedom as
           vibrations may cause significant error
 Vibrational temperatures:     59.15    61.43   103.19   258.34   305.65
          (Kelvin)            361.16   386.46   431.32   447.68   483.04
                              546.79   582.01   658.32   705.65   914.80
                             1096.31  1160.60  1252.66  1361.48  1379.65
                             1486.29  1514.88  1517.18  1570.56  1597.99
                             1636.21  1659.92  1689.02  1750.00  1782.45
                             1860.25  1886.86  1904.46  1963.82  1990.70
                             2037.33  2107.82  2128.34  2128.69  2133.60
                             3402.35  4355.68  4358.91  4410.12  4442.46
                             4443.81  4450.72  4460.06  4555.96  5414.93
                             5465.06

 Zero-point correction=                           0.156222 (Hartree/Particle)
 Thermal correction to Energy=                    0.166724
 Thermal correction to Enthalpy=                  0.167668
 Thermal correction to Gibbs Free Energy=         0.119465
 Sum of electronic and zero-point Energies=           -422.975778
 Sum of electronic and thermal Energies=              -422.965277
 Sum of electronic and thermal Enthalpies=            -422.964333
 Sum of electronic and thermal Free Energies=         -423.012535

                     E (Thermal)             CV                S
                      KCal/Mol        Cal/Mol-Kelvin    Cal/Mol-Kelvin
 Total                  104.621             37.029            101.452
 Electronic               0.000              0.000              0.000
 Translational            0.889              2.981             40.409
 Rotational               0.889              2.981             29.485
 Vibrational            102.843             31.067             31.558
 Vibration     1          0.594              1.981              5.205
 Vibration     2          0.595              1.980              5.130
 Vibration     3          0.598              1.967              4.106
 Vibration     4          0.629              1.867              2.333
 Vibration     5          0.643              1.822              2.023
 Vibration     6          0.663              1.761              1.723
 Vibration     7          0.673              1.731              1.605
 Vibration     8          0.692              1.674              1.418
 Vibration     9          0.700              1.652              1.356
 Vibration    10          0.717              1.604              1.232
 Vibration    11          0.750              1.513              1.039
 Vibration    12          0.770              1.460              0.946
 Vibration    13          0.816              1.344              0.773
 Vibration    14          0.846              1.271              0.682

 Optimization completed.
    -- Stationary point found.
 Normal termination of Gaussian 09 at Mon Jan 27 15:42:26 2020.
