 Gaussian 09, Revision D.01,
 Gaussian 09:  ES64L-G09RevD.01 24-Apr-2013

 -----------------------------
 # b3lyp 6-31G(2df,p) opt Freq
 -----------------------------

 -----
 titel
 -----
 Symbolic Z-matrix:
 Charge =  0 Multiplicity = 1

 SCF Done:  E(RB3LYP) =  -423.158607996     A.U. after   14 cycles
 Optimization completed.
    -- Stationary point found.
 Normal termination of Gaussian 09 at Tue Jan 28 08:13:49 2020.

 ----------------------------------------------------------------------
 #N Geom=AllCheck Guess=TCheck SCRF=Check GenChk RB3LYP/6-31G(2df,p) Fr
 eq
 ----------------------------------------------------------------------

 Structure from the checkpoint file:  "/scratch/puck/g09_847d6ec0-d21a-41a2-ad4d-66058fac513e/Gau-17940.chk"
 -----
 titel
 -----
 Charge =  0 Multiplicity = 1

                         Standard orientation:
 ---------------------------------------------------------------------
 Center     Atomic      Atomic             Coordinates (Angstroms)
 Number     Number       Type             X           Y           Z
 ---------------------------------------------------------------------
      1          6           0        2.870263    0.074924    0.229450
      2          6           0        1.350719    0.061129    0.324920
      3          8           0        0.936466   -1.224046   -0.164790
      4          6           0       -0.425671   -1.368886   -0.529963
      5          6           0       -1.415148   -0.751020    0.446800
      6          8           0       -2.502171   -0.044599   -0.163999
      7          6           0       -1.502518    0.716836    0.529920
      8          6           0       -0.574785    1.545440   -0.293234
      9          6           0        0.717028    1.236567   -0.403901
     10          1           0        3.274486    0.986808    0.679738
     11          1           0        3.288437   -0.788987    0.751561
     12          1           0        3.186591    0.030746   -0.817446
     13          1           0        1.065070    0.128160    1.385608
     14          1           0       -0.626626   -0.922308   -1.511685
     15          1           0       -0.587574   -2.448335   -0.611137
     16          1           0       -1.693382   -1.340081    1.320022
     17          1           0       -1.874818    1.168648    1.451195
     18          1           0       -0.994866    2.405311   -0.809406
     19          1           0        1.368984    1.839254   -1.032079
 ---------------------------------------------------------------------

 SCF Done:  E(RB3LYP) =  -423.158607996     A.U. after    1 cycles

 The electronic state is 1-A.
 Alpha  occ. eigenvalues --  -19.15382 -19.13878 -10.24326 -10.23900 -10.23800
 Alpha  occ. eigenvalues --  -10.22800 -10.19514 -10.19314 -10.17730  -1.07356
 Alpha  occ. eigenvalues --   -1.02645  -0.80792  -0.76436  -0.70885  -0.66572
 Alpha  occ. eigenvalues --   -0.63715  -0.57227  -0.55592  -0.52077  -0.49205
 Alpha  occ. eigenvalues --   -0.46572  -0.45456  -0.43647  -0.43206  -0.40578
 Alpha  occ. eigenvalues --   -0.38602  -0.38103  -0.36370  -0.35297  -0.31591
 Alpha  occ. eigenvalues --   -0.29985  -0.27474  -0.27024  -0.24827
 Alpha virt. eigenvalues --   -0.00996   0.08131   0.09669   0.11354   0.11863
 Alpha virt. eigenvalues --    0.12931   0.14149   0.15902   0.16403   0.16740
 Alpha virt. eigenvalues --    0.17301   0.18337   0.18945   0.21128   0.21512

 Mulliken charges:
               1
     1  C   -0.404947
     2  C    0.108094
     3  O   -0.276004
     4  C   -0.086833
     5  C    0.006054
     6  O   -0.253386
     7  C    0.016985
     8  C   -0.111702
     9  C   -0.063130
    10  H    0.115732
    11  H    0.126284
    12  H    0.124145
    13  H    0.080307
    14  H    0.109441
    15  H    0.109992
    16  H    0.096503
    17  H    0.100855
    18  H    0.104854
    19  H    0.096757
 Sum of Mulliken charges =   0.00000

 Dipole moment (field-independent basis, Debye):
    X=              0.9652    Y=              0.9844    Z=              0.9098  Tot=              1.6518
 Quadrupole moment (field-independent basis, Debye-Ang):
   XX=            -57.7967   YY=            -51.2325   ZZ=            -51.7854
   XY=              1.9275   XZ=             -1.9042   YZ=             -0.8135

  Exact polarizability:  90.327  -0.503  76.798  -2.263  -2.169  61.438
 Approx polarizability: 130.236  -4.989 113.305  -1.103  -1.970  94.276

                      1                      2                      3
                      A                      A                      A
 Frequencies --    103.2257               208.8646               230.3638
 Red. masses --      3.7209                 2.3523                 2.1350
 Frc consts  --      0.0234                 0.0605                 0.0668
 IR Inten    --      0.1842                 5.9044                 2.2760

                      4                      5                      6
                      A                      A                      A
 Frequencies --    250.7874               303.9978               331.4403
 Red. masses --      1.5248                 2.6943                 3.7833
 Frc consts  --      0.0565                 0.1467                 0.2449
 IR Inten    --      0.8235                 3.0859                 3.1569

                      7                      8                      9
                      A                      A                      A
 Frequencies --    357.4937               423.4217               447.7088
 Red. masses --      3.2892                 2.7819                 4.1742
 Frc consts  --      0.2477                 0.2939                 0.4930
 IR Inten    --      1.1886                 7.3399                 2.0474

                     10                     11                     12
                      A                      A                      A
 Frequencies --    581.8978               619.2660               737.5186
 Red. masses --      3.5741                 3.1419                 2.8715
 Frc consts  --      0.7130                 0.7099                 0.9203
 IR Inten    --      3.9773                 2.9646                 3.6143

                     13                     14                     15
                      A                      A                      A
 Frequencies --    748.2573               828.2653               840.2128
 Red. masses --      2.5034                 3.0802                 2.9850
 Frc consts  --      0.8258                 1.2450                 1.2416
 IR Inten    --      6.9952                21.0664                 4.4564

                     16                     17                     18
                      A                      A                      A
 Frequencies --    849.0262               900.1157               977.9611
 Red. masses --      2.2415                 2.3109                 1.8691
 Frc consts  --      0.9520                 1.1031                 1.0532
 IR Inten    --     22.3975                 8.7271                 2.7020

                     19                     20                     21
                      A                      A                      A
 Frequencies --    999.5593              1017.8718              1037.5537
 Red. masses --      1.3879                 2.2697                 1.9454
 Frc consts  --      0.8170                 1.3855                 1.2339
 IR Inten    --      2.1415                19.8066                 3.2011

                     22                     23                     24
                      A                      A                      A
 Frequencies --   1046.0514              1103.5251              1124.6377
 Red. masses --      2.5144                 2.5441                 1.6182
 Frc consts  --      1.6210                 1.8253                 1.2059
 IR Inten    --     11.2997                44.1665                 5.1640

                     25                     26                     27
                      A                      A                      A
 Frequencies --   1137.6267              1154.4522              1161.6168
 Red. masses --      3.4931                 1.5370                 2.1816
 Frc consts  --      2.6636                 1.2069                 1.7344
 IR Inten    --    101.1654                 3.8296                12.0130

                     28                     29                     30
                      A                      A                      A
 Frequencies --   1223.5696              1278.3365              1281.2766
 Red. masses --      1.2474                 1.2873                 1.1451
 Frc consts  --      1.1003                 1.2394                 1.1075
 IR Inten    --      0.8843                 5.8744                 3.9212

                     31                     32                     33
                      A                      A                      A
 Frequencies --   1341.7107              1363.5557              1365.3191
 Red. masses --      1.2755                 1.2921                 1.2017
 Frc consts  --      1.3528                 1.4155                 1.3198
 IR Inten    --     13.0879                 2.7973                 7.8335

                     34                     35                     36
                      A                      A                      A
 Frequencies --   1405.2819              1409.1158              1418.8419
 Red. masses --      1.3331                 1.2822                 1.5679
 Frc consts  --      1.5511                 1.5000                 1.8596
 IR Inten    --      0.5448                 9.1914                16.1532

                     37                     38                     39
                      A                      A                      A
 Frequencies --   1459.8138              1484.2507              1497.3110
 Red. masses --      3.4082                 1.0527                 1.0490
 Frc consts  --      4.2793                 1.3664                 1.3856
 IR Inten    --     10.1951                 2.8281                 3.1016

                     40                     41                     42
                      A                      A                      A
 Frequencies --   1504.6204              1705.3608              2977.1272
 Red. masses --      1.0790                 7.5692                 1.0825
 Frc consts  --      1.4392                12.9698                 5.6529
 IR Inten    --      2.9596                 1.0440                39.0849

                     43                     44                     45
                      A                      A                      A
 Frequencies --   3028.1276              3041.8477              3081.1029
 Red. masses --      1.0622                 1.0352                 1.0995
 Frc consts  --      5.7385                 5.6435                 6.1496
 IR Inten    --     32.6533                15.0722                16.6349

                     46                     47                     48
                      A                      A                      A
 Frequencies --   3087.9382              3114.2905              3119.4805
 Red. masses --      1.0855                 1.1019                 1.0915
 Frc consts  --      6.0986                 6.2964                 6.2579
 IR Inten    --     25.6277                22.4219                41.4662

                     49                     50                     51
                      A                      A                      A
 Frequencies --   3127.2785              3145.8829              3168.8060
 Red. masses --      1.1016                 1.0836                 1.0974
 Frc consts  --      6.3474                 6.3182                 6.4926
 IR Inten    --     17.3976                 5.1740                21.9743

 - Thermochemistry -
 -------------------
 Temperature   298.150 Kelvin.  Pressure   1.00000 Atm.
 Atom     1 has atomic number  6 and mass  12.00000

 Molecular mass:   126.06808 amu.
 Principal axes and moments of inertia in atomic units:
                           1         2         3
     Eigenvalues --   550.850881314.280471673.64464
           X            0.99989   0.01454  -0.00212
           Y           -0.01456   0.99986  -0.00785
           Z            0.00201   0.00788   0.99997
 This molecule is an asymmetric top.
 Rotational symmetry number  1.
 Warning -- assumption of classical behavior for rotation
           may cause significant error
 Rotational temperatures (Kelvin)      0.15724     0.06590     0.05175
 Rotational constants (GHZ):           3.27628     1.37318     1.07833
 Zero-point vibrational energy     419607.9 (Joules/Mol)
                                  100.28870 (Kcal/Mol)
 Warning -- explicit consideration of  11 degrees of freedom as
           vibrations may cause significant error
 Vibrational temperatures:    148.52   300.51   331.44   360.83   437.38
          (Kelvin)            476.87   514.35   609.21   644.15   837.22
                              890.98  1061.12  1076.57  1191.69  1208.88
                             1221.56  1295.06  1407.07  1438.14  1464.49
                             1492.81  1505.03  1587.72  1618.10  1636.79
                             1661.00  1671.31  1760.44  1839.24  1843.47
                             1930.42  1961.85  1964.39  2021.88  2027.40
                             2041.39  2100.34  2135.50  2154.29  2164.81
                             2453.63  4283.42  4356.79  4376.53  4433.01
                             4442.85  4480.76  4488.23  4499.45  4526.22
                             4559.20

 Zero-point correction=                           0.159820 (Hartree/Particle)
 Thermal correction to Energy=                    0.167795
 Thermal correction to Enthalpy=                  0.168739
 Thermal correction to Gibbs Free Energy=         0.127606
 Sum of electronic and zero-point Energies=           -422.998788
 Sum of electronic and thermal Energies=              -422.990813
 Sum of electronic and thermal Enthalpies=            -422.989869
 Sum of electronic and thermal Free Energies=         -423.031002

                     E (Thermal)             CV                S
                      KCal/Mol        Cal/Mol-Kelvin    Cal/Mol-Kelvin
 Total                  105.293             31.332             86.574
 Electronic               0.000              0.000              0.000
 Translational            0.889              2.981             40.409
 Rotational               0.889              2.981             28.584
 Vibrational            103.516             25.370             17.581
 Vibration     1          0.605              1.947              3.392
 Vibration     2          0.642              1.827              2.054
 Vibration     3          0.652              1.795              1.876
 Vibration     4          0.663              1.761              1.725
 Vibration     5          0.695              1.666              1.395
 Vibration     6          0.714              1.613              1.253
 Vibration     7          0.733              1.560              1.133
 Vibration     8          0.786              1.419              0.880
 Vibration     9          0.807              1.366              0.803
 Vibration    10          0.939              1.070              0.482
 Vibration    11          0.979              0.991              0.418

 Optimization completed.
    -- Stationary point found.
 Normal termination of Gaussian 09 at Tue Jan 28 08:58:54 2020.
