 Gaussian 09, Revision D.01,
 Gaussian 09:  ES64L-G09RevD.01 24-Apr-2013

 -----------------------------
 # b3lyp 6-31G(2df,p) opt Freq
 -----------------------------

 -----
 titel
 -----
 Symbolic Z-matrix:
 Charge =  0 Multiplicity = 1

 SCF Done:  E(RB3LYP) =  -423.146088404     A.U. after   13 cycles
 Optimization completed.
    -- Stationary point found.
 Normal termination of Gaussian 09 at Mon Jan 27 23:43:42 2020.

 ----------------------------------------------------------------------
 #N Geom=AllCheck Guess=TCheck SCRF=Check GenChk RB3LYP/6-31G(2df,p) Fr
 eq
 ----------------------------------------------------------------------

 Structure from the checkpoint file:  "/scratch/puck/g09_1b30a676-35f9-4c52-8813-82dd52976ec6/Gau-185916.chk"
 -----
 titel
 -----
 Charge =  0 Multiplicity = 1

                         Standard orientation:
 ---------------------------------------------------------------------
 Center     Atomic      Atomic             Coordinates (Angstroms)
 Number     Number       Type             X           Y           Z
 ---------------------------------------------------------------------
      1          8           0       -2.668528   -0.359633   -0.419608
      2          6           0       -1.352914   -0.667094   -0.012064
      3          6           0       -0.719827    0.260624    1.068489
      4          6           0        0.629299   -0.445384    1.305170
      5          6           0        1.158044   -0.195729   -0.128086
      6          8           0        2.246955   -0.920668   -0.594505
      7          6           0        1.246603    1.341768   -0.162482
      8          6           0       -0.286437    1.253423   -0.105396
      9          6           0       -0.240808   -0.094818   -0.905386
     10          1           0       -2.677785    0.539949   -0.763836
     11          1           0       -1.362056   -1.739747    0.209434
     12          1           0       -1.298047    0.592413    1.930499
     13          1           0        1.267096    0.013960    2.065481
     14          1           0        0.505421   -1.507310    1.548537
     15          1           0        2.105212   -1.852360   -0.395344
     16          1           0        1.803507    1.841312    0.636520
     17          1           0        1.578200    1.706856   -1.138712
     18          1           0       -0.934189    2.093516   -0.348256
     19          1           0       -0.218538   -0.162929   -1.992899
 ---------------------------------------------------------------------

 SCF Done:  E(RB3LYP) =  -423.146088404     A.U. after    1 cycles

 The electronic state is 1-A.
 Alpha  occ. eigenvalues --  -19.14486 -19.13532 -10.24345 -10.22907 -10.19614
 Alpha  occ. eigenvalues --  -10.19047 -10.18430 -10.18415 -10.18085  -1.03193
 Alpha  occ. eigenvalues --   -1.01948  -0.90521  -0.74507  -0.71378  -0.65633
 Alpha  occ. eigenvalues --   -0.61766  -0.56860  -0.53430  -0.52621  -0.50033
 Alpha  occ. eigenvalues --   -0.47413  -0.44595  -0.43289  -0.39750  -0.37670
 Alpha  occ. eigenvalues --   -0.37020  -0.36587  -0.35812  -0.34613  -0.30870
 Alpha  occ. eigenvalues --   -0.30608  -0.27965  -0.26258  -0.24363
 Alpha virt. eigenvalues --    0.06369   0.08463   0.10164   0.11630   0.12396
 Alpha virt. eigenvalues --    0.13290   0.13894   0.15722   0.16033   0.17794
 Alpha virt. eigenvalues --    0.18741   0.19969   0.20326   0.21956   0.23053

 Mulliken charges:
               1
     1  O   -0.455765
     2  C    0.168707
     3  C   -0.082251
     4  C   -0.286066
     5  C    0.411253
     6  O   -0.487029
     7  C   -0.272086
     8  C   -0.065915
     9  C   -0.152164
    10  H    0.280559
    11  H    0.071047
    12  H    0.067517
    13  H    0.099713
    14  H    0.086340
    15  H    0.278772
    16  H    0.092378
    17  H    0.105218
    18  H    0.068700
    19  H    0.071071
 Sum of Mulliken charges =   0.00000

 Dipole moment (field-independent basis, Debye):
    X=              0.2826    Y=              0.3173    Z=              0.4721  Tot=              0.6352
 Quadrupole moment (field-independent basis, Debye-Ang):
   XX=            -61.7977   YY=            -48.1781   ZZ=            -52.7241
   XY=             -4.8937   XZ=              2.0405   YZ=             -1.5559

  Exact polarizability:  79.523   0.262  73.611   1.004  -2.206  69.194
 Approx polarizability: 113.469  -0.713 112.537   0.857  -1.887 104.964

                      1                      2                      3
                      A                      A                      A
 Frequencies --    190.2352               235.4331               263.7966
 Red. masses --      4.7287                 1.5202                 1.1189
 Frc consts  --      0.1008                 0.0496                 0.0459
 IR Inten    --      6.9760                34.4253                37.3845

                      4                      5                      6
                      A                      A                      A
 Frequencies --    292.4518               339.6988               369.1076
 Red. masses --      2.2171                 2.8624                 3.2022
 Frc consts  --      0.1117                 0.1946                 0.2570
 IR Inten    --     53.8484                45.0799                 4.5089

                      7                      8                      9
                      A                      A                      A
 Frequencies --    430.1725               481.1957               530.0595
 Red. masses --      2.2782                 2.3936                 3.3962
 Frc consts  --      0.2484                 0.3265                 0.5622
 IR Inten    --      7.4224                 1.6459                 2.8718

                     10                     11                     12
                      A                      A                      A
 Frequencies --    606.6026               647.9614               760.4423
 Red. masses --      4.6331                 3.9492                 3.3651
 Frc consts  --      1.0045                 0.9769                 1.1465
 IR Inten    --      6.2283                 2.9083                 3.8554

                     13                     14                     15
                      A                      A                      A
 Frequencies --    811.9920               838.8473               856.0584
 Red. masses --      2.4188                 2.2436                 2.4814
 Frc consts  --      0.9396                 0.9302                 1.0714
 IR Inten    --      4.8709                 5.1845                 5.3711

                     16                     17                     18
                      A                      A                      A
 Frequencies --    892.0707               909.4174               946.5798
 Red. masses --      2.1687                 2.6969                 1.7569
 Frc consts  --      1.0168                 1.3141                 0.9275
 IR Inten    --      4.0939                 8.6012                 0.4802

                     19                     20                     21
                      A                      A                      A
 Frequencies --    962.1625               980.7935               998.9860
 Red. masses --      1.8636                 2.0094                 2.1529
 Frc consts  --      1.0165                 1.1389                 1.2659
 IR Inten    --      3.7550                 3.4497                 1.8782

                     22                     23                     24
                      A                      A                      A
 Frequencies --   1022.3399              1048.8172              1074.8130
 Red. masses --      1.4576                 1.3722                 1.5345
 Frc consts  --      0.8976                 0.8893                 1.0444
 IR Inten    --      7.0664                 7.9495                 4.6306

                     25                     26                     27
                      A                      A                      A
 Frequencies --   1088.6811              1119.4467              1134.4074
 Red. masses --      2.6593                 2.3499                 1.3314
 Frc consts  --      1.8570                 1.7350                 1.0095
 IR Inten    --     59.7963               134.0445                13.2634

                     28                     29                     30
                      A                      A                      A
 Frequencies --   1166.8637              1190.9109              1217.8979
 Red. masses --      1.6703                 1.6506                 1.5025
 Frc consts  --      1.3399                 1.3792                 1.3131
 IR Inten    --      6.9299                 1.6923                 7.6098

                     31                     32                     33
                      A                      A                      A
 Frequencies --   1225.0458              1250.4864              1256.2526
 Red. masses --      1.7240                 1.6955                 1.4179
 Frc consts  --      1.5244                 1.5621                 1.3184
 IR Inten    --      3.4170                12.8292                 8.3879

                     34                     35                     36
                      A                      A                      A
 Frequencies --   1267.8781              1285.8105              1292.3955
 Red. masses --      1.9638                 1.7826                 1.6931
 Frc consts  --      1.8599                 1.7364                 1.6662
 IR Inten    --     20.4499                19.6893                35.3913

                     37                     38                     39
                      A                      A                      A
 Frequencies --   1334.1651              1387.6964              1437.1723
 Red. masses --      2.1454                 1.8945                 1.2587
 Frc consts  --      2.2500                 2.1494                 1.5317
 IR Inten    --    118.9864                 3.3076                88.9238

                     40                     41                     42
                      A                      A                      A
 Frequencies --   1491.0573              1516.1535              3032.8715
 Red. masses --      1.1208                 1.1384                 1.0631
 Frc consts  --      1.4682                 1.5417                 5.7617
 IR Inten    --      4.2605                 1.9614                25.2802

                     43                     44                     45
                      A                      A                      A
 Frequencies --   3045.3056              3052.0327              3089.6536
 Red. masses --      1.0588                 1.0831                 1.1025
 Frc consts  --      5.7852                 5.9442                 6.2011
 IR Inten    --     48.3653                56.0657                26.7063

                     46                     47                     48
                      A                      A                      A
 Frequencies --   3106.3396              3117.1481              3121.0197
 Red. masses --      1.1073                 1.0897                 1.0886
 Frc consts  --      6.2953                 6.2384                 6.2479
 IR Inten    --     24.4864                18.3083                54.3349

                     49                     50                     51
                      A                      A                      A
 Frequencies --   3131.8150              3805.3014              3808.3241
 Red. masses --      1.0929                 1.0658                 1.0654
 Frc consts  --      6.3155                 9.0929                 9.1038
 IR Inten    --     29.4444                20.3928                 9.8524

 - Thermochemistry -
 -------------------
 Temperature   298.150 Kelvin.  Pressure   1.00000 Atm.
 Atom     1 has atomic number  8 and mass  15.99491

 Molecular mass:   126.06808 amu.
 Principal axes and moments of inertia in atomic units:
                           1         2         3
     Eigenvalues --   555.545811277.310621334.29230
           X            0.99996  -0.00048   0.00901
           Y            0.00181   0.98892  -0.14845
           Z           -0.00884   0.14846   0.98888
 This molecule is an asymmetric top.
 Rotational symmetry number  1.
 Warning -- assumption of classical behavior for rotation
           may cause significant error
 Rotational temperatures (Kelvin)      0.15591     0.06781     0.06491
 Rotational constants (GHZ):           3.24859     1.41292     1.35258
 Zero-point vibrational energy     421457.4 (Joules/Mol)
                                  100.73072 (Kcal/Mol)
 Warning -- explicit consideration of  10 degrees of freedom as
           vibrations may cause significant error
 Vibrational temperatures:    273.71   338.74   379.54   420.77   488.75
          (Kelvin)            531.06   618.92   692.33   762.64   872.76
                              932.27  1094.11  1168.27  1206.91  1231.68
                             1283.49  1308.45  1361.92  1384.34  1411.14
                             1437.32  1470.92  1509.01  1546.41  1566.37
                             1610.63  1632.16  1678.85  1713.45  1752.28
                             1762.57  1799.17  1807.47  1824.19  1849.99
                             1859.47  1919.56  1996.58  2067.77  2145.30
                             2181.40  4363.62  4381.51  4391.19  4445.32
                             4469.32  4484.88  4490.45  4505.98  5474.97
                             5479.32

 Zero-point correction=                           0.160525 (Hartree/Particle)
 Thermal correction to Energy=                    0.167962
 Thermal correction to Enthalpy=                  0.168906
 Thermal correction to Gibbs Free Energy=         0.129251
 Sum of electronic and zero-point Energies=           -422.985564
 Sum of electronic and thermal Energies=              -422.978127
 Sum of electronic and thermal Enthalpies=            -422.977183
 Sum of electronic and thermal Free Energies=         -423.016838

                     E (Thermal)             CV                S
                      KCal/Mol        Cal/Mol-Kelvin    Cal/Mol-Kelvin
 Total                  105.398             31.037             83.461
 Electronic               0.000              0.000              0.000
 Translational            0.889              2.981             40.409
 Rotational               0.889              2.981             28.339
 Vibrational            103.620             25.075             14.713
 Vibration     1          0.634              1.853              2.226
 Vibration     2          0.655              1.787              1.837
 Vibration     3          0.670              1.739              1.637
 Vibration     4          0.688              1.688              1.460
 Vibration     5          0.720              1.596              1.214
 Vibration     6          0.741              1.536              1.083
 Vibration     7          0.791              1.405              0.858
 Vibration     8          0.837              1.292              0.707
 Vibration     9          0.885              1.183              0.587
 Vibration    10          0.965              1.018              0.438

 Optimization completed.
    -- Stationary point found.
 Normal termination of Gaussian 09 at Tue Jan 28 00:30:19 2020.
