 Gaussian 09, Revision D.01,
 Gaussian 09:  ES64L-G09RevD.01 24-Apr-2013

 -----------------------------
 # b3lyp 6-31G(2df,p) opt Freq
 -----------------------------

 -----
 titel
 -----
 Symbolic Z-matrix:
 Charge =  0 Multiplicity = 1

 SCF Done:  E(RB3LYP) =  -423.220947808     A.U. after   14 cycles
 Optimization completed.
    -- Stationary point found.
 Normal termination of Gaussian 09 at Mon Jan 27 13:05:24 2020.

 ----------------------------------------------------------------------
 #N Geom=AllCheck Guess=TCheck SCRF=Check GenChk RB3LYP/6-31G(2df,p) Fr
 eq
 ----------------------------------------------------------------------

 Structure from the checkpoint file:  "/scratch/puck/g09_abc5762a-15aa-4197-afd8-b0401bd1633c/Gau-155901.chk"
 -----
 titel
 -----
 Charge =  0 Multiplicity = 1

                         Standard orientation:
 ---------------------------------------------------------------------
 Center     Atomic      Atomic             Coordinates (Angstroms)
 Number     Number       Type             X           Y           Z
 ---------------------------------------------------------------------
      1          8           0        2.924480   -0.099241    0.279826
      2          6           0        1.740095   -0.042640    0.089691
      3          6           0        0.981308    1.280183    0.049203
      4          6           0       -0.387577    1.233791   -0.639653
      5          6           0       -1.117608   -0.002596   -0.164925
      6          6           0       -1.913336    0.049260    1.117185
      7          6           0       -2.617914   -0.094504   -0.211695
      8          6           0       -0.323069   -1.240596   -0.483988
      9          8           0        1.037465   -1.198938   -0.011747
     10          1           0        0.852540    1.569202    1.100190
     11          1           0        1.653501    2.017963   -0.394204
     12          1           0       -0.955578    2.143634   -0.420276
     13          1           0       -0.261742    1.192545   -1.729754
     14          1           0       -1.885820   -0.811005    1.777497
     15          1           0       -1.986859    1.001779    1.631722
     16          1           0       -3.069471   -1.052529   -0.448962
     17          1           0       -3.163695    0.759343   -0.598887
     18          1           0       -0.760865   -2.132077   -0.026417
     19          1           0       -0.288973   -1.400810   -1.570453
 ---------------------------------------------------------------------

 SCF Done:  E(RB3LYP) =  -423.220947808     A.U. after    1 cycles

 The electronic state is 1-A.
 Alpha  occ. eigenvalues --  -19.17350 -19.11031 -10.30010 -10.24955 -10.21289
 Alpha  occ. eigenvalues --  -10.20206 -10.20140 -10.20064 -10.19967  -1.08801
 Alpha  occ. eigenvalues --   -1.00722  -0.88460  -0.79080  -0.73610  -0.66558
 Alpha  occ. eigenvalues --   -0.61823  -0.60266  -0.53324  -0.51301  -0.49269
 Alpha  occ. eigenvalues --   -0.48368  -0.46850  -0.43218  -0.42841  -0.41821
 Alpha  occ. eigenvalues --   -0.40275  -0.38618  -0.37995  -0.35367  -0.32342
 Alpha  occ. eigenvalues --   -0.30781  -0.29567  -0.28344  -0.25667
 Alpha virt. eigenvalues --    0.01521   0.07492   0.09226   0.09746   0.10126
 Alpha virt. eigenvalues --    0.12926   0.13789   0.14278   0.15810   0.16603
 Alpha virt. eigenvalues --    0.17172   0.18387   0.19034   0.21311   0.22031

 Mulliken charges:
               1
     1  O   -0.323792
     2  C    0.406684
     3  C   -0.328221
     4  C   -0.306010
     5  C    0.349171
     6  C   -0.300803
     7  C   -0.332317
     8  C   -0.127538
     9  O   -0.229420
    10  H    0.141050
    11  H    0.134840
    12  H    0.103313
    13  H    0.108065
    14  H    0.121597
    15  H    0.117057
    16  H    0.117532
    17  H    0.118392
    18  H    0.116756
    19  H    0.113644
 Sum of Mulliken charges =   0.00000

 Dipole moment (field-independent basis, Debye):
    X=             -4.3418    Y=              1.2072    Z=             -0.7415  Tot=              4.5671
 Quadrupole moment (field-independent basis, Debye-Ang):
   XX=            -65.2816   YY=            -50.7128   ZZ=            -51.5395
   XY=              3.3101   XZ=             -1.4156   YZ=              0.5701

  Exact polarizability:  90.584   3.810  71.778   1.167   0.777  64.513
 Approx polarizability: 125.429   4.843 104.014   3.295   1.516  99.555

                      1                      2                      3
                      A                      A                      A
 Frequencies --     67.7052               128.4115               173.4082
 Red. masses --      5.1023                 3.0172                 2.9563
 Frc consts  --      0.0138                 0.0293                 0.0524
 IR Inten    --      2.9614                 3.2954                 0.4070

                      4                      5                      6
                      A                      A                      A
 Frequencies --    263.0035               327.9191               362.0012
 Red. masses --      2.2287                 2.1531                 2.4166
 Frc consts  --      0.0908                 0.1364                 0.1866
 IR Inten    --      1.2328                 1.4632                 0.7840

                      7                      8                      9
                      A                      A                      A
 Frequencies --    432.1017               444.1321               516.0454
 Red. masses --      3.8348                 3.4336                 2.8945
 Frc consts  --      0.4219                 0.3991                 0.4542
 IR Inten    --      0.5044                 3.5969                 2.5227

                     10                     11                     12
                      A                      A                      A
 Frequencies --    578.3531               668.4897               749.7436
 Red. masses --      4.0062                 4.7542                 3.7108
 Frc consts  --      0.7895                 1.2518                 1.2290
 IR Inten    --      6.6499                 1.5658                 1.5789

                     13                     14                     15
                      A                      A                      A
 Frequencies --    765.1320               783.8532               860.5861
 Red. masses --      2.9148                 1.0307                 2.1950
 Frc consts  --      1.0054                 0.3731                 0.9578
 IR Inten    --      9.6158                 0.1224                11.3045

                     16                     17                     18
                      A                      A                      A
 Frequencies --    915.7862               929.5584               962.3472
 Red. masses --      1.4581                 1.4790                 2.5523
 Frc consts  --      0.7205                 0.7529                 1.3926
 IR Inten    --      3.4267                 5.8912                10.7958

                     19                     20                     21
                      A                      A                      A
 Frequencies --    986.8710              1018.3885              1024.1576
 Red. masses --      3.3552                 1.9531                 1.6120
 Frc consts  --      1.9253                 1.1935                 0.9962
 IR Inten    --      6.4621                 6.0036                 3.7341

                     22                     23                     24
                      A                      A                      A
 Frequencies --   1054.9787              1077.3423              1079.3234
 Red. masses --      1.4051                 2.3047                 2.7687
 Frc consts  --      0.9214                 1.5761                 1.9003
 IR Inten    --      3.3771                53.7872                55.3329

                     25                     26                     27
                      A                      A                      A
 Frequencies --   1090.8762              1174.0868              1185.2415
 Red. masses --      1.8276                 1.9569                 1.2959
 Frc consts  --      1.2814                 1.5894                 1.0726
 IR Inten    --      5.6667               114.3258                 8.7457

                     28                     29                     30
                      A                      A                      A
 Frequencies --   1197.2120              1249.5885              1260.2581
 Red. masses --      1.7400                 1.3379                 1.4023
 Frc consts  --      1.4694                 1.2309                 1.3123
 IR Inten    --     97.1965                 6.5325                40.2495

                     31                     32                     33
                      A                      A                      A
 Frequencies --   1333.7587              1342.4199              1362.7192
 Red. masses --      1.7230                 1.5638                 1.7580
 Frc consts  --      1.8059                 1.6604                 1.9234
 IR Inten    --     27.6584                 0.4028                 0.2522

                     34                     35                     36
                      A                      A                      A
 Frequencies --   1391.2549              1434.4037              1459.9458
 Red. masses --      1.8982                 1.5696                 1.0851
 Frc consts  --      2.1647                 1.9027                 1.3626
 IR Inten    --     24.3907                17.3189                 3.6581

                     37                     38                     39
                      A                      A                      A
 Frequencies --   1468.3070              1493.4744              1504.0436
 Red. masses --      1.0909                 1.1051                 1.3536
 Frc consts  --      1.3857                 1.4523                 1.8040
 IR Inten    --      3.0982                 7.4229                 0.7464

                     40                     41                     42
                      A                      A                      A
 Frequencies --   1515.5774              1841.2085              3011.9063
 Red. masses --      1.1527                12.4862                 1.0669
 Frc consts  --      1.5599                24.9395                 5.7024
 IR Inten    --      1.3565               358.5581                34.2522

                     43                     44                     45
                      A                      A                      A
 Frequencies --   3021.2472              3039.5404              3073.7622
 Red. masses --      1.0655                 1.0674                 1.0980
 Frc consts  --      5.7304                 5.8104                 6.1121
 IR Inten    --     35.6803                11.3660                24.1935

                     46                     47                     48
                      A                      A                      A
 Frequencies --   3087.7390              3111.5410              3127.6616
 Red. masses --      1.0979                 1.0943                 1.0505
 Frc consts  --      6.1670                 6.2425                 6.0549
 IR Inten    --     22.3715                12.3447                15.8138

                     49                     50                     51
                      A                      A                      A
 Frequencies --   3131.4704              3205.8675              3219.7161
 Red. masses --      1.0587                 1.1178                 1.1157
 Frc consts  --      6.1165                 6.7689                 6.8143
 IR Inten    --      9.4173                 0.0670                14.4265

 - Thermochemistry -
 -------------------
 Temperature   298.150 Kelvin.  Pressure   1.00000 Atm.
 Atom     1 has atomic number  8 and mass  15.99491

 Molecular mass:   126.06808 amu.
 Principal axes and moments of inertia in atomic units:
                           1         2         3
     Eigenvalues --   501.932891486.094421713.64785
           X            0.99986   0.01605  -0.00475
           Y           -0.01602   0.99985   0.00615
           Z            0.00484  -0.00608   0.99997
 This molecule is an asymmetric top.
 Rotational symmetry number  1.
 Warning -- assumption of classical behavior for rotation
           may cause significant error
 Rotational temperatures (Kelvin)      0.17256     0.05828     0.05054
 Rotational constants (GHZ):           3.59558     1.21442     1.05316
 Zero-point vibrational energy     421710.4 (Joules/Mol)
                                  100.79119 (Kcal/Mol)
 Warning -- explicit consideration of  10 degrees of freedom as
           vibrations may cause significant error
 Vibrational temperatures:     97.41   184.76   249.50   378.40   471.80
          (Kelvin)            520.84   621.70   639.01   742.47   832.12
                              961.81  1078.71  1100.85  1127.79  1238.19
                             1317.61  1337.43  1384.60  1419.89  1465.23
                             1473.53  1517.88  1550.05  1552.90  1569.53
                             1689.25  1705.30  1722.52  1797.88  1813.23
                             1918.98  1931.44  1960.65  2001.70  2063.78
                             2100.53  2112.56  2148.77  2163.98  2180.58
                             2649.09  4333.46  4346.90  4373.22  4422.45
                             4442.56  4476.81  4500.00  4505.48  4612.52
                             4632.45

 Zero-point correction=                           0.160621 (Hartree/Particle)
 Thermal correction to Energy=                    0.168636
 Thermal correction to Enthalpy=                  0.169580
 Thermal correction to Gibbs Free Energy=         0.127804
 Sum of electronic and zero-point Energies=           -423.060327
 Sum of electronic and thermal Energies=              -423.052312
 Sum of electronic and thermal Enthalpies=            -423.051368
 Sum of electronic and thermal Free Energies=         -423.093144

                     E (Thermal)             CV                S
                      KCal/Mol        Cal/Mol-Kelvin    Cal/Mol-Kelvin
 Total                  105.821             30.934             87.926
 Electronic               0.000              0.000              0.000
 Translational            0.889              2.981             40.409
 Rotational               0.889              2.981             28.638
 Vibrational            104.043             24.972             18.880
 Vibration     1          0.598              1.970              4.219
 Vibration     2          0.611              1.925              2.970
 Vibration     3          0.627              1.875              2.398
 Vibration     4          0.670              1.741              1.642
 Vibration     5          0.711              1.620              1.270
 Vibration     6          0.736              1.551              1.113
 Vibration     7          0.793              1.400              0.852
 Vibration     8          0.804              1.374              0.814
 Vibration     9          0.871              1.214              0.619
 Vibration    10          0.935              1.078              0.488

 Optimization completed.
    -- Stationary point found.
 Normal termination of Gaussian 09 at Mon Jan 27 13:48:19 2020.
