 Gaussian 09, Revision D.01,
 Gaussian 09:  ES64L-G09RevD.01 24-Apr-2013

 -----------------------------
 # b3lyp 6-31G(2df,p) opt Freq
 -----------------------------

 -----
 titel
 -----
 Symbolic Z-matrix:
 Charge =  0 Multiplicity = 1

 SCF Done:  E(RB3LYP) =  -423.186281840     A.U. after   13 cycles
 Optimization completed.
    -- Stationary point found.
 Normal termination of Gaussian 09 at Tue Jan 28 00:06:35 2020.

 ----------------------------------------------------------------------
 #N Geom=AllCheck Guess=TCheck SCRF=Check GenChk RB3LYP/6-31G(2df,p) Fr
 eq
 ----------------------------------------------------------------------

 Structure from the checkpoint file:  "/scratch/puck/g09_b05ccd78-8039-44f6-8fa4-9d3d8b50dd43/Gau-21135.chk"
 -----
 titel
 -----
 Charge =  0 Multiplicity = 1

                         Standard orientation:
 ---------------------------------------------------------------------
 Center     Atomic      Atomic             Coordinates (Angstroms)
 Number     Number       Type             X           Y           Z
 ---------------------------------------------------------------------
      1          6           0        2.275985   -0.292598   -0.000011
      2          6           0        0.869477   -0.877863    0.000037
      3          6           0       -0.061166   -0.429524   -1.152187
      4          8           0       -0.049883    1.012623   -1.186955
      5          6           0       -0.557914    1.590622   -0.000045
      6          8           0       -0.049835    1.012724    1.186879
      7          6           0       -0.061149   -0.429427    1.152210
      8          6           0       -1.410234   -0.953410    0.667430
      9          6           0       -1.410238   -0.953476   -0.667343
     10          1           0        2.830915   -0.622701    0.884801
     11          1           0        2.831779   -0.625040   -0.883401
     12          1           0        2.255148    0.797494   -0.001459
     13          1           0        0.916900   -1.972351    0.000096
     14          1           0        0.236715   -0.749193   -2.152156
     15          1           0       -0.240672    2.635896   -0.000101
     16          1           0       -1.655799    1.534389   -0.000027
     17          1           0        0.236760   -0.749038    2.152190
     18          1           0       -2.241277   -1.189022    1.320853
     19          1           0       -2.241284   -1.189151   -1.320741
 ---------------------------------------------------------------------

 SCF Done:  E(RB3LYP) =  -423.186281840     A.U. after    1 cycles

 The electronic state is 1-A.
 Alpha  occ. eigenvalues --  -19.14153 -19.14152 -10.26602 -10.23686 -10.23685
 Alpha  occ. eigenvalues --  -10.19141 -10.19053 -10.18477 -10.16706  -1.06603
 Alpha  occ. eigenvalues --   -0.99588  -0.84786  -0.75270  -0.69241  -0.68856
 Alpha  occ. eigenvalues --   -0.63552  -0.55733  -0.54090  -0.52651  -0.47956
 Alpha  occ. eigenvalues --   -0.46874  -0.45964  -0.43751  -0.41249  -0.40221
 Alpha  occ. eigenvalues --   -0.37929  -0.37577  -0.35657  -0.35401  -0.32495
 Alpha  occ. eigenvalues --   -0.30780  -0.26554  -0.25482  -0.25352
 Alpha virt. eigenvalues --   -0.00921   0.09696   0.12076   0.13399   0.13566
 Alpha virt. eigenvalues --    0.15133   0.16124   0.16262   0.16554   0.16889
 Alpha virt. eigenvalues --    0.17372   0.18156   0.19427   0.21218   0.21738

 Mulliken charges:
               1
     1  C   -0.411745
     2  C    0.007352
     3  C    0.062847
     4  O   -0.277838
     5  C    0.029663
     6  O   -0.277840
     7  C    0.062859
     8  C   -0.096885
     9  C   -0.096873
    10  H    0.109103
    11  H    0.109084
    12  H    0.137746
    13  H    0.074383
    14  H    0.075156
    15  H    0.116172
    16  H    0.090621
    17  H    0.075153
    18  H    0.105522
    19  H    0.105522
 Sum of Mulliken charges =   0.00000

 Dipole moment (field-independent basis, Debye):
    X=             -0.8167    Y=             -1.4934    Z=              0.0000  Tot=              1.7021
 Quadrupole moment (field-independent basis, Debye-Ang):
   XX=            -51.2821   YY=            -52.6378   ZZ=            -54.0571
   XY=             -0.4282   XZ=             -0.0001   YZ=             -0.0001

  Exact polarizability:  77.329   1.643  69.972   0.000   0.001  74.189
 Approx polarizability: 103.110   3.614 105.047   0.001   0.002 125.897

                      1                      2                      3
                      A                      A                      A
 Frequencies --    142.3132               218.2770               245.5273
 Red. masses --      1.0237                 2.9950                 4.1966
 Frc consts  --      0.0122                 0.0841                 0.1491
 IR Inten    --      0.0637                 0.6290                 0.6391

                      4                      5                      6
                      A                      A                      A
 Frequencies --    290.1353               347.1945               421.8092
 Red. masses --      3.3594                 2.2615                 3.0441
 Frc consts  --      0.1666                 0.1606                 0.3191
 IR Inten    --      0.3961                 4.4052                16.1861

                      7                      8                      9
                      A                      A                      A
 Frequencies --    451.3146               568.8193               596.5413
 Red. masses --      3.9920                 3.5157                 4.9897
 Frc consts  --      0.4791                 0.6702                 1.0462
 IR Inten    --      1.8249                 1.4172                 1.2717

                     10                     11                     12
                      A                      A                      A
 Frequencies --    597.5445               747.2672               782.8015
 Red. masses --      4.1877                 2.0870                 2.3217
 Frc consts  --      0.8810                 0.6866                 0.8382
 IR Inten    --      4.0252                10.8106                 5.5573

                     13                     14                     15
                      A                      A                      A
 Frequencies --    785.3873               877.1233               885.0774
 Red. masses --      3.7886                 3.7974                 3.0383
 Frc consts  --      1.3769                 1.7213                 1.4023
 IR Inten    --      1.7364                10.2157                10.6386

                     16                     17                     18
                      A                      A                      A
 Frequencies --    923.8425               924.6108               958.0027
 Red. masses --      2.6177                 2.3337                 1.5163
 Frc consts  --      1.3163                 1.1755                 0.8199
 IR Inten    --     29.4949                 0.0213                 5.6216

                     19                     20                     21
                      A                      A                      A
 Frequencies --    975.1993               987.6082              1006.1515
 Red. masses --      1.6603                 2.2662                 4.7196
 Frc consts  --      0.9303                 1.3023                 2.8150
 IR Inten    --     10.7144                 6.5734                55.7646

                     22                     23                     24
                      A                      A                      A
 Frequencies --   1046.8904              1105.5765              1109.7168
 Red. masses --      1.9423                 2.0369                 1.5425
 Frc consts  --      1.2542                 1.4669                 1.1192
 IR Inten    --     32.6688                64.4939                 0.5848

                     25                     26                     27
                      A                      A                      A
 Frequencies --   1126.6063              1140.0459              1179.1312
 Red. masses --      1.8753                 2.3246                 2.2141
 Frc consts  --      1.4023                 1.7801                 1.8137
 IR Inten    --     69.2731                 9.6107                64.8048

                     28                     29                     30
                      A                      A                      A
 Frequencies --   1231.7031              1281.5054              1289.2400
 Red. masses --      1.6946                 1.1627                 1.4078
 Frc consts  --      1.5147                 1.1251                 1.3786
 IR Inten    --      2.9339                 1.2617                 6.9320

                     31                     32                     33
                      A                      A                      A
 Frequencies --   1295.0779              1343.8343              1358.8845
 Red. masses --      1.3229                 1.5472                 1.2529
 Frc consts  --      1.3073                 1.6462                 1.3631
 IR Inten    --      1.5146                 6.1685                 6.4693

                     34                     35                     36
                      A                      A                      A
 Frequencies --   1365.7953              1378.4687              1409.9502
 Red. masses --      1.3417                 1.6332                 1.2603
 Frc consts  --      1.4746                 1.8285                 1.4761
 IR Inten    --     17.2471                 1.0894                 3.4525

                     37                     38                     39
                      A                      A                      A
 Frequencies --   1441.3394              1492.0935              1498.1091
 Red. masses --      1.1872                 1.0450                 1.0526
 Frc consts  --      1.4532                 1.3707                 1.3918
 IR Inten    --      4.4946                 4.4838                 5.7248

                     40                     41                     42
                      A                      A                      A
 Frequencies --   1514.7557              1651.7227              2996.3213
 Red. masses --      1.0871                 6.0383                 1.0681
 Frc consts  --      1.4696                 9.7059                 5.6501
 IR Inten    --      0.4421                 0.2700                81.8328

                     43                     44                     45
                      A                      A                      A
 Frequencies --   3037.1209              3049.4762              3094.0383
 Red. masses --      1.0435                 1.0798                 1.1006
 Frc consts  --      5.6709                 5.9162                 6.2079
 IR Inten    --     27.1328                21.4113                12.5000

                     46                     47                     48
                      A                      A                      A
 Frequencies --   3099.7755              3101.0606              3104.8678
 Red. masses --      1.0876                 1.0905                 1.0960
 Frc consts  --      6.1572                 6.1789                 6.2252
 IR Inten    --     69.3431                33.3344                16.2647

                     49                     50                     51
                      A                      A                      A
 Frequencies --   3147.3617              3196.0367              3220.9675
 Red. masses --      1.0966                 1.0857                 1.1062
 Frc consts  --      6.4004                 6.5339                 6.7615
 IR Inten    --     13.8721                 6.1811                13.7777

 - Thermochemistry -
 -------------------
 Temperature   298.150 Kelvin.  Pressure   1.00000 Atm.
 Atom     1 has atomic number  6 and mass  12.00000

 Molecular mass:   126.06808 amu.
 Principal axes and moments of inertia in atomic units:
                           1         2         3
     Eigenvalues --   786.77421 928.89548 986.84704
           X            0.99900  -0.04471   0.00000
           Y            0.04471   0.99900  -0.00001
           Z            0.00000   0.00001   1.00000
 This molecule is an asymmetric top.
 Rotational symmetry number  1.
 Warning -- assumption of classical behavior for rotation
           may cause significant error
 Rotational temperatures (Kelvin)      0.11009     0.09324     0.08777
 Rotational constants (GHZ):           2.29385     1.94289     1.82880
 Zero-point vibrational energy     424913.7 (Joules/Mol)
                                  101.55681 (Kcal/Mol)
 Warning -- explicit consideration of  10 degrees of freedom as
           vibrations may cause significant error
 Vibrational temperatures:    204.76   314.05   353.26   417.44   499.53
          (Kelvin)            606.89   649.34   818.40   858.29   859.73
                             1075.15  1126.28  1130.00  1261.98  1273.43
                             1329.20  1330.31  1378.35  1403.09  1420.95
                             1447.63  1506.24  1590.68  1596.63  1620.93
                             1640.27  1696.50  1772.14  1843.80  1854.93
                             1863.33  1933.48  1955.13  1965.07  1983.31
                             2028.60  2073.76  2146.79  2155.44  2179.39
                             2376.46  4311.03  4369.73  4387.51  4451.63
                             4459.88  4461.73  4467.21  4528.35  4598.38
                             4634.25

 Zero-point correction=                           0.161841 (Hartree/Particle)
 Thermal correction to Energy=                    0.169096
 Thermal correction to Enthalpy=                  0.170040
 Thermal correction to Gibbs Free Energy=         0.130596
 Sum of electronic and zero-point Energies=           -423.024441
 Sum of electronic and thermal Energies=              -423.017186
 Sum of electronic and thermal Enthalpies=            -423.016241
 Sum of electronic and thermal Free Energies=         -423.055686

                     E (Thermal)             CV                S
                      KCal/Mol        Cal/Mol-Kelvin    Cal/Mol-Kelvin
 Total                  106.109             29.553             83.019
 Electronic               0.000              0.000              0.000
 Translational            0.889              2.981             40.409
 Rotational               0.889              2.981             28.069
 Vibrational            104.332             23.591             14.541
 Vibration     1          0.616              1.911              2.773
 Vibration     2          0.646              1.813              1.973
 Vibration     3          0.660              1.770              1.762
 Vibration     4          0.686              1.692              1.473
 Vibration     5          0.725              1.581              1.179
 Vibration     6          0.784              1.423              0.886
 Vibration     7          0.810              1.358              0.792
 Vibration     8          0.925              1.099              0.507
 Vibration     9          0.954              1.039              0.456
 Vibration    10          0.955              1.037              0.454

 Normal termination of Gaussian 09 at Tue Jan 28 01:00:34 2020.
