 Gaussian 09, Revision D.01,
 Gaussian 09:  ES64L-G09RevD.01 24-Apr-2013

 -----------------------------
 # b3lyp 6-31G(2df,p) opt Freq
 -----------------------------

 -----
 titel
 -----
 Symbolic Z-matrix:
 Charge =  0 Multiplicity = 1

 SCF Done:  E(RB3LYP) =  -423.128871075     A.U. after   14 cycles
 Optimization completed.
    -- Stationary point found.
 Normal termination of Gaussian 09 at Mon Jan 27 17:27:24 2020.

 ----------------------------------------------------------------------
 #N Geom=AllCheck Guess=TCheck SCRF=Check GenChk RB3LYP/6-31G(2df,p) Fr
 eq
 ----------------------------------------------------------------------

 Structure from the checkpoint file:  "/scratch/puck/g09_bff05296-6eb8-4c36-af74-6cbf943100a4/Gau-39796.chk"
 -----
 titel
 -----
 Charge =  0 Multiplicity = 1

                         Standard orientation:
 ---------------------------------------------------------------------
 Center     Atomic      Atomic             Coordinates (Angstroms)
 Number     Number       Type             X           Y           Z
 ---------------------------------------------------------------------
      1          6           0        2.613619   -0.124221   -0.557105
      2          6           0        1.195059   -0.032958   -0.099022
      3          8           0        0.951016    0.312838    1.278165
      4          6           0        0.359955   -0.886837    0.768068
      5          6           0       -0.927965   -0.500438    0.002110
      6          8           0       -1.591216   -1.644968   -0.437150
      7          6           0       -1.719497    0.737425    0.513480
      8          6           0       -0.817390    1.670956   -0.356030
      9          6           0       -0.048541    0.435226   -0.908949
     10          1           0        3.223701   -0.636852    0.191605
     11          1           0        2.680396   -0.672621   -1.502173
     12          1           0        3.035730    0.874722   -0.716880
     13          1           0        0.558551   -1.815295    1.294394
     14          1           0       -2.288905   -1.379481   -1.045317
     15          1           0       -2.762599    0.712073    0.180361
     16          1           0       -1.699540    0.907792    1.591611
     17          1           0       -1.363354    2.222313   -1.124842
     18          1           0       -0.204019    2.368592    0.214862
     19          1           0        0.010200    0.280880   -1.987053
 ---------------------------------------------------------------------

 SCF Done:  E(RB3LYP) =  -423.128871075     A.U. after    1 cycles

 The electronic state is 1-A.
 Alpha  occ. eigenvalues --  -19.14780 -19.14693 -10.23887 -10.23487 -10.22799
 Alpha  occ. eigenvalues --  -10.18499 -10.18128 -10.17859 -10.17609  -1.07517
 Alpha  occ. eigenvalues --   -1.02930  -0.83483  -0.74914  -0.71098  -0.66377
 Alpha  occ. eigenvalues --   -0.59730  -0.57753  -0.53586  -0.51776  -0.48936
 Alpha  occ. eigenvalues --   -0.45728  -0.42369  -0.41966  -0.41106  -0.40230
 Alpha  occ. eigenvalues --   -0.39228  -0.38268  -0.35792  -0.32954  -0.31779
 Alpha  occ. eigenvalues --   -0.31356  -0.28289  -0.24809  -0.23675
 Alpha virt. eigenvalues --    0.07120   0.08107   0.08956   0.11061   0.11676
 Alpha virt. eigenvalues --    0.13653   0.14749   0.14983   0.16121   0.17290
 Alpha virt. eigenvalues --    0.18020   0.18615   0.20225   0.20904   0.22388

 Mulliken charges:
               1
     1  C   -0.505191
     2  C    0.413962
     3  O   -0.281630
     4  C   -0.083390
     5  C    0.397866
     6  O   -0.485557
     7  C   -0.289336
     8  C   -0.227261
     9  C   -0.187627
    10  H    0.134362
    11  H    0.126206
    12  H    0.129646
    13  H    0.100576
    14  H    0.281020
    15  H    0.087173
    16  H    0.112447
    17  H    0.093020
    18  H    0.114247
    19  H    0.069464
 Sum of Mulliken charges =   0.00000

 Dipole moment (field-independent basis, Debye):
    X=             -0.4554    Y=              0.1335    Z=             -1.8929  Tot=              1.9515
 Quadrupole moment (field-independent basis, Debye-Ang):
   XX=            -48.3835   YY=            -55.5534   ZZ=            -52.8388
   XY=             -1.6770   XZ=              0.7656   YZ=             -1.2554

  Exact polarizability:  84.659  -0.931  71.546  -1.086  -3.091  67.980
 Approx polarizability: 111.004   4.193 107.586   0.135  -3.061 108.103

                      1                      2                      3
                      A                      A                      A
 Frequencies --    133.8537               195.0425               216.3552
 Red. masses --      2.8350                 1.0446                 1.9747
 Frc consts  --      0.0299                 0.0234                 0.0545
 IR Inten    --      0.9889                 0.1858                 0.3541

                      4                      5                      6
                      A                      A                      A
 Frequencies --    250.7877               288.9666               318.2400
 Red. masses --      2.2739                 1.7228                 2.3513
 Frc consts  --      0.0843                 0.0848                 0.1403
 IR Inten    --     13.6697                30.9307                26.8374

                      7                      8                      9
                      A                      A                      A
 Frequencies --    343.5322               379.2966               482.5238
 Red. masses --      3.6056                 3.1362                 2.3935
 Frc consts  --      0.2507                 0.2658                 0.3283
 IR Inten    --      4.7256                41.4889                 0.3604

                     10                     11                     12
                      A                      A                      A
 Frequencies --    543.9087               584.5411               644.6303
 Red. masses --      5.4927                 3.9938                 3.0714
 Frc consts  --      0.9574                 0.8040                 0.7520
 IR Inten    --      7.1727                 3.5367                 2.3243

                     13                     14                     15
                      A                      A                      A
 Frequencies --    726.9470               748.0555               795.0967
 Red. masses --      2.6857                 1.6898                 3.1637
 Frc consts  --      0.8362                 0.5571                 1.1784
 IR Inten    --      5.9336                 3.4203                 6.8799

                     16                     17                     18
                      A                      A                      A
 Frequencies --    846.1731               878.9781               921.6167
 Red. masses --      2.4937                 2.3400                 2.2282
 Frc consts  --      1.0520                 1.0652                 1.1151
 IR Inten    --      7.2444                10.2082                 6.2410

                     19                     20                     21
                      A                      A                      A
 Frequencies --    943.8787               960.5507               997.3656
 Red. masses --      3.0533                 2.0756                 1.9015
 Frc consts  --      1.6027                 1.1283                 1.1145
 IR Inten    --      0.8365                 2.4292                 7.0825

                     22                     23                     24
                      A                      A                      A
 Frequencies --   1006.4731              1058.4293              1075.9791
 Red. masses --      1.7435                 3.3301                 1.5759
 Frc consts  --      1.0406                 2.1980                 1.0749
 IR Inten    --     17.8043                13.3204                 4.1130

                     25                     26                     27
                      A                      A                      A
 Frequencies --   1086.6425              1092.5525              1128.3817
 Red. masses --      1.9012                 1.7944                 1.6043
 Frc consts  --      1.3227                 1.2620                 1.2035
 IR Inten    --     33.8936                 2.4883                 2.6697

                     28                     29                     30
                      A                      A                      A
 Frequencies --   1195.0160              1204.2151              1221.6369
 Red. masses --      1.8521                 1.8213                 1.2821
 Frc consts  --      1.5584                 1.5561                 1.1273
 IR Inten    --      4.3447                44.4163                 2.4034

                     31                     32                     33
                      A                      A                      A
 Frequencies --   1234.0570              1257.2197              1279.0529
 Red. masses --      1.4789                 1.6686                 1.8268
 Frc consts  --      1.3270                 1.5539                 1.7608
 IR Inten    --      4.4393                49.5959                30.7490

                     34                     35                     36
                      A                      A                      A
 Frequencies --   1305.4003              1393.5298              1403.3260
 Red. masses --      2.1582                 1.9397                 1.2838
 Frc consts  --      2.1669                 2.2194                 1.4896
 IR Inten    --     81.5872                 7.6537                 2.1734

                     37                     38                     39
                      A                      A                      A
 Frequencies --   1458.5924              1459.0430              1479.3049
 Red. masses --      1.2493                 2.0520                 1.1079
 Frc consts  --      1.5659                 2.5737                 1.4285
 IR Inten    --      1.1527                12.4662                 9.7636

                     40                     41                     42
                      A                      A                      A
 Frequencies --   1482.4681              1494.0186              3032.2626
 Red. masses --      1.1595                 1.1985                 1.0364
 Frc consts  --      1.5014                 1.5762                 5.6145
 IR Inten    --      4.2882                 1.5045                23.8652

                     43                     44                     45
                      A                      A                      A
 Frequencies --   3046.6058              3071.8550              3095.3431
 Red. masses --      1.0634                 1.0619                 1.0993
 Frc consts  --      5.8154                 5.9039                 6.2054
 IR Inten    --     35.5156                38.6445                14.9985

                     46                     47                     48
                      A                      A                      A
 Frequencies --   3108.9485              3113.7758              3119.9537
 Red. masses --      1.0904                 1.1003                 1.1013
 Frc consts  --      6.2096                 6.2857                 6.3161
 IR Inten    --     24.2223                 1.3313                13.7069

                     49                     50                     51
                      A                      A                      A
 Frequencies --   3136.0200              3168.6656              3811.1203
 Red. masses --      1.1053                 1.0943                 1.0659
 Frc consts  --      6.4044                 6.4733                 9.1215
 IR Inten    --     27.0031                18.5685                20.1037

 - Thermochemistry -
 -------------------
 Temperature   298.150 Kelvin.  Pressure   1.00000 Atm.
 Atom     1 has atomic number  6 and mass  12.00000

 Molecular mass:   126.06808 amu.
 Principal axes and moments of inertia in atomic units:
                           1         2         3
     Eigenvalues --   665.799661153.313191333.39339
           X            0.99876  -0.04482  -0.02145
           Y            0.04416   0.99856  -0.03038
           Z            0.02278   0.02940   0.99931
 This molecule is an asymmetric top.
 Rotational symmetry number  1.
 Warning -- assumption of classical behavior for rotation
           may cause significant error
 Rotational temperatures (Kelvin)      0.13009     0.07510     0.06496
 Rotational constants (GHZ):           2.71064     1.56483     1.35349
 Zero-point vibrational energy     414028.9 (Joules/Mol)
                                   98.95529 (Kcal/Mol)
 Warning -- explicit consideration of  11 degrees of freedom as
           vibrations may cause significant error
 Vibrational temperatures:    192.59   280.62   311.29   360.83   415.76
          (Kelvin)            457.88   494.27   545.72   694.24   782.56
                              841.02   927.48  1045.91  1076.28  1143.97
                             1217.45  1264.65  1326.00  1358.03  1382.02
                             1434.98  1448.09  1522.84  1548.09  1563.43
                             1571.94  1623.49  1719.36  1732.59  1757.66
                             1775.53  1808.86  1840.27  1878.18  2004.98
                             2019.07  2098.59  2099.23  2128.39  2132.94
                             2149.56  4362.74  4383.38  4419.71  4453.50
                             4473.08  4480.02  4488.91  4512.03  4559.00
                             5483.35

 Zero-point correction=                           0.157695 (Hartree/Particle)
 Thermal correction to Energy=                    0.165943
 Thermal correction to Enthalpy=                  0.166887
 Thermal correction to Gibbs Free Energy=         0.125529
 Sum of electronic and zero-point Energies=           -422.971176
 Sum of electronic and thermal Energies=              -422.962929
 Sum of electronic and thermal Enthalpies=            -422.961984
 Sum of electronic and thermal Free Energies=         -423.003342

                     E (Thermal)             CV                S
                      KCal/Mol        Cal/Mol-Kelvin    Cal/Mol-Kelvin
 Total                  104.131             32.894             87.044
 Electronic               0.000              0.000              0.000
 Translational            0.889              2.981             40.409
 Rotational               0.889              2.981             28.417
 Vibrational            102.353             26.933             18.219
 Vibration     1          0.613              1.920              2.890
 Vibration     2          0.636              1.847              2.179
 Vibration     3          0.645              1.816              1.989
 Vibration     4          0.663              1.761              1.725
 Vibration     5          0.686              1.694              1.480
 Vibration     6          0.705              1.639              1.319
 Vibration     7          0.722              1.588              1.196
 Vibration     8          0.749              1.514              1.042
 Vibration     9          0.839              1.289              0.703
 Vibration    10          0.899              1.153              0.557
 Vibration    11          0.941              1.065              0.477

 Optimization completed.
    -- Stationary point found.
 Normal termination of Gaussian 09 at Mon Jan 27 18:21:24 2020.
