 Gaussian 09, Revision D.01,
 Gaussian 09:  ES64L-G09RevD.01 24-Apr-2013

 -----------------------------
 # b3lyp 6-31G(2df,p) opt Freq
 -----------------------------

 -----
 titel
 -----
 Symbolic Z-matrix:
 Charge =  0 Multiplicity = 1

 SCF Done:  E(RB3LYP) =  -423.173959656     A.U. after   13 cycles
 Optimization completed.
    -- Stationary point found.
 Normal termination of Gaussian 09 at Tue Jan 28 01:56:10 2020.

 ----------------------------------------------------------------------
 #N Geom=AllCheck Guess=TCheck SCRF=Check GenChk RB3LYP/6-31G(2df,p) Fr
 eq
 ----------------------------------------------------------------------

 Structure from the checkpoint file:  "/scratch/puck/g09_723db762-5b1d-44f1-8c0d-989163ed0a79/Gau-8638.chk"
 -----
 titel
 -----
 Charge =  0 Multiplicity = 1

                         Standard orientation:
 ---------------------------------------------------------------------
 Center     Atomic      Atomic             Coordinates (Angstroms)
 Number     Number       Type             X           Y           Z
 ---------------------------------------------------------------------
      1          8           0       -2.260087    0.247812   -0.787133
      2          6           0       -1.540213   -0.824190   -0.222431
      3          6           0       -1.074332   -0.707927    1.203746
      4          6           0       -0.098443   -0.531415    0.047983
      5          6           0        1.049216   -1.449033   -0.168783
      6          6           0        2.198062   -0.769267   -0.213099
      7          6           0        1.978956    0.716408   -0.032067
      8          6           0        0.467559    0.864336   -0.292239
      9          8           0       -0.090591    1.943764    0.423053
     10          1           0       -3.153276    0.225440   -0.426888
     11          1           0       -1.820697   -1.805779   -0.604564
     12          1           0       -1.333005    0.198742    1.740757
     13          1           0       -1.007777   -1.608339    1.805269
     14          1           0        0.944308   -2.526347   -0.238086
     15          1           0        3.181277   -1.210853   -0.327662
     16          1           0        2.211599    1.032924    0.994213
     17          1           0        2.580199    1.336989   -0.703728
     18          1           0        0.317323    1.011477   -1.372436
     19          1           0       -0.999362    2.019656    0.107103
 ---------------------------------------------------------------------

 SCF Done:  E(RB3LYP) =  -423.173959656     A.U. after    1 cycles

 The electronic state is 1-A.
 Alpha  occ. eigenvalues --  -19.15528 -19.12618 -10.23658 -10.22512 -10.19087
 Alpha  occ. eigenvalues --  -10.18104 -10.17919 -10.17768 -10.17617  -1.03712
 Alpha  occ. eigenvalues --   -1.00991  -0.86368  -0.80323  -0.69628  -0.64977
 Alpha  occ. eigenvalues --   -0.60862  -0.55536  -0.54289  -0.51004  -0.50376
 Alpha  occ. eigenvalues --   -0.49276  -0.44714  -0.42665  -0.40084  -0.38410
 Alpha  occ. eigenvalues --   -0.37554  -0.36008  -0.35935  -0.34178  -0.32402
 Alpha  occ. eigenvalues --   -0.29146  -0.26858  -0.25721  -0.22428
 Alpha virt. eigenvalues --    0.02079   0.06624   0.11066   0.11389   0.12142
 Alpha virt. eigenvalues --    0.13576   0.14181   0.15951   0.16980   0.17519
 Alpha virt. eigenvalues --    0.18221   0.19243   0.21512   0.21957   0.24358

 Mulliken charges:
               1
     1  O   -0.428066
     2  C    0.006566
     3  C   -0.369200
     4  C    0.296248
     5  C   -0.149438
     6  C   -0.087753
     7  C   -0.286927
     8  C    0.078808
     9  O   -0.441543
    10  H    0.291175
    11  H    0.088268
    12  H    0.121320
    13  H    0.109917
    14  H    0.092606
    15  H    0.093344
    16  H    0.117652
    17  H    0.103902
    18  H    0.080621
    19  H    0.282501
 Sum of Mulliken charges =   0.00000

 Dipole moment (field-independent basis, Debye):
    X=             -1.4879    Y=             -1.4495    Z=              0.0278  Tot=              2.0774
 Quadrupole moment (field-independent basis, Debye-Ang):
   XX=            -44.3410   YY=            -53.6176   ZZ=            -55.6408
   XY=             -0.8109   XZ=             -1.9104   YZ=             -1.2864

  Exact polarizability:  96.261   3.660  76.646  -3.695  -0.493  60.452
 Approx polarizability: 137.325   9.547 112.203  -4.926   0.229  95.112

                      1                      2                      3
                      A                      A                      A
 Frequencies --     99.6852               166.7629               196.1938
 Red. masses --      3.3797                 4.3977                 3.2551
 Frc consts  --      0.0198                 0.0721                 0.0738
 IR Inten    --      2.5583                 3.4988                 2.2167

                      4                      5                      6
                      A                      A                      A
 Frequencies --    250.8791               335.4046               371.4226
 Red. masses --      3.7654                 1.3902                 2.5645
 Frc consts  --      0.1396                 0.0921                 0.2084
 IR Inten    --      6.4373                68.2050                31.0907

                      7                      8                      9
                      A                      A                      A
 Frequencies --    407.6310               430.4821               487.5367
 Red. masses --      2.8879                 2.3749                 2.0911
 Frc consts  --      0.2827                 0.2593                 0.2928
 IR Inten    --      7.7308                 4.5111                16.1084

                     10                     11                     12
                      A                      A                      A
 Frequencies --    492.9870               562.3524               598.0855
 Red. masses --      1.1608                 4.2543                 3.5379
 Frc consts  --      0.1662                 0.7927                 0.7456
 IR Inten    --     84.7308                26.1304                 5.4252

                     13                     14                     15
                      A                      A                      A
 Frequencies --    677.1292               738.7433               770.6507
 Red. masses --      3.0605                 1.3865                 3.2965
 Frc consts  --      0.8268                 0.4458                 1.1535
 IR Inten    --      0.2811                21.2608                 7.7678

                     16                     17                     18
                      A                      A                      A
 Frequencies --    838.7114               892.9836               919.1544
 Red. masses --      2.0862                 1.5419                 2.7091
 Frc consts  --      0.8646                 0.7244                 1.3485
 IR Inten    --     11.6752                 4.8085                10.7841

                     19                     20                     21
                      A                      A                      A
 Frequencies --    960.5911               961.7012               976.3928
 Red. masses --      1.3295                 2.2296                 2.1389
 Frc consts  --      0.7228                 1.2150                 1.2014
 IR Inten    --      1.2266                 5.1639                 3.4959

                     22                     23                     24
                      A                      A                      A
 Frequencies --   1015.3509              1033.8239              1040.6338
 Red. masses --      1.8361                 1.5272                 2.0653
 Frc consts  --      1.1153                 0.9617                 1.3177
 IR Inten    --     14.1425                 7.7852                21.9799

                     25                     26                     27
                      A                      A                      A
 Frequencies --   1088.4336              1115.0798              1134.2912
 Red. masses --      1.9686                 1.8907                 1.4036
 Frc consts  --      1.3741                 1.3851                 1.0640
 IR Inten    --     20.8357                50.9407                15.1673

                     28                     29                     30
                      A                      A                      A
 Frequencies --   1152.6896              1171.0958              1240.1759
 Red. masses --      2.3493                 1.4491                 1.8755
 Frc consts  --      1.8392                 1.1709                 1.6995
 IR Inten    --     34.9103                 6.9729                 4.2226

                     31                     32                     33
                      A                      A                      A
 Frequencies --   1281.4805              1287.6185              1301.4137
 Red. masses --      1.5209                 1.2312                 1.6238
 Frc consts  --      1.4716                 1.2027                 1.6203
 IR Inten    --     45.5767                22.1875                 9.2073

                     34                     35                     36
                      A                      A                      A
 Frequencies --   1313.2378              1344.2799              1383.3744
 Red. masses --      1.4533                 1.4605                 1.5434
 Frc consts  --      1.4767                 1.5550                 1.7402
 IR Inten    --     36.0581                43.1659                 6.2680

                     37                     38                     39
                      A                      A                      A
 Frequencies --   1411.8276              1440.8124              1486.0320
 Red. masses --      1.4788                 1.3285                 1.1281
 Frc consts  --      1.7367                 1.6249                 1.4677
 IR Inten    --      6.4938                 6.3422                 0.1544

                     40                     41                     42
                      A                      A                      A
 Frequencies --   1491.1607              1667.1615              2983.4083
 Red. masses --      1.8604                 6.3722                 1.0833
 Frc consts  --      2.4373                10.4350                 5.6809
 IR Inten    --     18.8996                 2.4287                36.6923

                     43                     44                     45
                      A                      A                      A
 Frequencies --   3018.6685              3075.9683              3099.3543
 Red. masses --      1.0662                 1.0956                 1.0875
 Frc consts  --      5.7241                 6.1076                 6.1552
 IR Inten    --     29.9365                30.1238                35.6737

                     46                     47                     48
                      A                      A                      A
 Frequencies --   3127.6501              3180.4943              3206.8380
 Red. masses --      1.0535                 1.0855                 1.1030
 Frc consts  --      6.0721                 6.4693                 6.6834
 IR Inten    --     11.7845                 5.0641                23.2980

                     49                     50                     51
                      A                      A                      A
 Frequencies --   3222.0095              3785.0717              3800.5185
 Red. masses --      1.1171                 1.0653                 1.0662
 Frc consts  --      6.8329                 8.9926                 9.0736
 IR Inten    --      4.3762                43.2519                19.2388

 - Thermochemistry -
 -------------------
 Temperature   298.150 Kelvin.  Pressure   1.00000 Atm.
 Atom     1 has atomic number  8 and mass  15.99491

 Molecular mass:   126.06808 amu.
 Principal axes and moments of inertia in atomic units:
                           1         2         3
     Eigenvalues --   683.465181172.175691547.85658
           X            0.99984   0.01210  -0.01283
           Y           -0.01231   0.99980  -0.01583
           Z            0.01264   0.01598   0.99979
 This molecule is an asymmetric top.
 Rotational symmetry number  1.
 Warning -- assumption of classical behavior for rotation
           may cause significant error
 Rotational temperatures (Kelvin)      0.12673     0.07389     0.05596
 Rotational constants (GHZ):           2.64058     1.53965     1.16596
 Zero-point vibrational energy     418904.9 (Joules/Mol)
                                  100.12068 (Kcal/Mol)
 Warning -- explicit consideration of  12 degrees of freedom as
           vibrations may cause significant error
 Vibrational temperatures:    143.42   239.93   282.28   360.96   482.57
          (Kelvin)            534.39   586.49   619.37   701.46   709.30
                              809.10   860.51   974.24  1062.89  1108.79
                             1206.72  1284.80  1322.46  1382.07  1383.67
                             1404.81  1460.86  1487.44  1497.24  1566.01
                             1604.35  1631.99  1658.46  1684.94  1784.33
                             1843.76  1852.59  1872.44  1889.45  1934.12
                             1990.36  2031.30  2073.01  2138.07  2145.44
                             2398.67  4292.45  4343.19  4425.63  4459.27
                             4499.99  4576.02  4613.92  4635.75  5445.87
                             5468.09

 Zero-point correction=                           0.159552 (Hartree/Particle)
 Thermal correction to Energy=                    0.167811
 Thermal correction to Enthalpy=                  0.168755
 Thermal correction to Gibbs Free Energy=         0.127106
 Sum of electronic and zero-point Energies=           -423.014407
 Sum of electronic and thermal Energies=              -423.006149
 Sum of electronic and thermal Enthalpies=            -423.005205
 Sum of electronic and thermal Free Energies=         -423.046853

                     E (Thermal)             CV                S
                      KCal/Mol        Cal/Mol-Kelvin    Cal/Mol-Kelvin
 Total                  105.303             32.958             87.657
 Electronic               0.000              0.000              0.000
 Translational            0.889              2.981             40.409
 Rotational               0.889              2.981             28.607
 Vibrational            103.525             26.997             18.641
 Vibration     1          0.604              1.949              3.460
 Vibration     2          0.624              1.883              2.472
 Vibration     3          0.636              1.845              2.169
 Vibration     4          0.663              1.761              1.724
 Vibration     5          0.717              1.605              1.234
 Vibration     6          0.743              1.531              1.074
 Vibration     7          0.772              1.454              0.935
 Vibration     8          0.792              1.404              0.857
 Vibration     9          0.843              1.278              0.690
 Vibration    10          0.849              1.266              0.676
 Vibration    11          0.918              1.113              0.519
 Vibration    12          0.956              1.036              0.453

 Normal termination of Gaussian 09 at Tue Jan 28 02:42:59 2020.
 Normal termination of Gaussian 09 at Tue Jan 28 01:50:41 2020.
