 Gaussian 09, Revision D.01,
 Gaussian 09:  ES64L-G09RevD.01 24-Apr-2013

 -----------------------------
 # b3lyp 6-31G(2df,p) opt Freq
 -----------------------------

 -----
 titel
 -----
 Symbolic Z-matrix:
 Charge =  0 Multiplicity = 1

 SCF Done:  E(RB3LYP) =  -423.201676052     A.U. after   14 cycles
 Optimization completed.
    -- Stationary point found.
 Normal termination of Gaussian 09 at Mon Jan 27 11:18:44 2020.

 ----------------------------------------------------------------------
 #N Geom=AllCheck Guess=TCheck SCRF=Check GenChk RB3LYP/6-31G(2df,p) Fr
 eq
 ----------------------------------------------------------------------

 Structure from the checkpoint file:  "/scratch/puck/g09_1376ddec-630f-4df2-b019-e47d636c518e/Gau-70222.chk"
 -----
 titel
 -----
 Charge =  0 Multiplicity = 1

                         Standard orientation:
 ---------------------------------------------------------------------
 Center     Atomic      Atomic             Coordinates (Angstroms)
 Number     Number       Type             X           Y           Z
 ---------------------------------------------------------------------
      1          6           0        2.312665    1.215562   -0.188924
      2          6           0        1.571875   -0.102644   -0.056836
      3          8           0        2.143240   -1.164964   -0.195645
      4          6           0        0.110350   -0.049681    0.248428
      5          6           0       -0.505651   -1.255445    0.944203
      6          6           0       -0.837922   -1.005178   -0.485155
      7          6           0       -2.084430   -0.185186   -0.757298
      8          8           0       -2.043819    0.892568    0.174419
      9          6           0       -0.681038    1.243723    0.392811
     10          1           0        2.167992    1.836068    0.702551
     11          1           0        3.374962    1.019533   -0.336836
     12          1           0        1.926810    1.787652   -1.040594
     13          1           0        0.186234   -2.061875    1.154236
     14          1           0       -1.261676   -1.053321    1.695962
     15          1           0       -0.436542   -1.658647   -1.250013
     16          1           0       -2.079618    0.181127   -1.796616
     17          1           0       -3.021552   -0.724468   -0.585153
     18          1           0       -0.343067    1.988620   -0.345118
     19          1           0       -0.623997    1.697562    1.388013
 ---------------------------------------------------------------------

 SCF Done:  E(RB3LYP) =  -423.201676052     A.U. after    1 cycles

 The electronic state is 1-A.
 Alpha  occ. eigenvalues --  -19.14659 -19.12410 -10.27180 -10.23845 -10.23645
 Alpha  occ. eigenvalues --  -10.20643 -10.20600 -10.19518 -10.19178  -1.04645
 Alpha  occ. eigenvalues --   -1.03566  -0.87115  -0.76351  -0.73408  -0.66393
 Alpha  occ. eigenvalues --   -0.62300  -0.58163  -0.54422  -0.50131  -0.48307
 Alpha  occ. eigenvalues --   -0.46127  -0.45719  -0.44089  -0.42656  -0.41915
 Alpha  occ. eigenvalues --   -0.40285  -0.39296  -0.37663  -0.36294  -0.33096
 Alpha  occ. eigenvalues --   -0.30332  -0.28694  -0.26131  -0.24598
 Alpha virt. eigenvalues --   -0.01664   0.08389   0.09466   0.11852   0.12411
 Alpha virt. eigenvalues --    0.13613   0.13778   0.14606   0.14906   0.16479
 Alpha virt. eigenvalues --    0.17315   0.17669   0.18915   0.21037   0.22545

 Mulliken charges:
               1
     1  C   -0.494663
     2  C    0.291997
     3  O   -0.318919
     4  C    0.212444
     5  C   -0.314136
     6  C   -0.077704
     7  C   -0.097994
     8  O   -0.254906
     9  C   -0.170244
    10  H    0.139359
    11  H    0.143253
    12  H    0.143680
    13  H    0.140336
    14  H    0.126948
    15  H    0.112864
    16  H    0.095642
    17  H    0.116156
    18  H    0.092492
    19  H    0.113395
 Sum of Mulliken charges =   0.00000

 Dipole moment (field-independent basis, Debye):
    X=             -0.5095    Y=              1.3313    Z=             -0.2801  Tot=              1.4527
 Quadrupole moment (field-independent basis, Debye-Ang):
   XX=            -58.8883   YY=            -54.2023   ZZ=            -50.8239
   XY=              8.2378   XZ=              2.0356   YZ=             -0.3431

  Exact polarizability:  86.580   4.571  76.671   0.793  -0.130  64.607
 Approx polarizability: 118.675   0.161 116.836  -0.367   2.089 100.113

                      1                      2                      3
                      A                      A                      A
 Frequencies --     49.9198               155.9449               168.1222
 Red. masses --      3.6902                 2.1729                 1.3771
 Frc consts  --      0.0054                 0.0311                 0.0229
 IR Inten    --      4.1878                 3.1553                 0.6430

                      4                      5                      6
                      A                      A                      A
 Frequencies --    206.9063               253.1086               327.6997
 Red. masses --      3.3526                 2.4427                 2.7147
 Frc consts  --      0.0846                 0.0922                 0.1718
 IR Inten    --      6.3374                 6.4352                 0.5365

                      7                      8                      9
                      A                      A                      A
 Frequencies --    378.1942               397.0034               462.4340
 Red. masses --      2.8878                 2.0882                 5.2586
 Frc consts  --      0.2434                 0.1939                 0.6626
 IR Inten    --      3.2885                 0.2868                 0.9303

                     10                     11                     12
                      A                      A                      A
 Frequencies --    593.1304               611.1659               678.1632
 Red. masses --      2.7008                 2.9702                 3.8409
 Frc consts  --      0.5598                 0.6537                 1.0408
 IR Inten    --      7.1311                11.4200                 0.8359

                     13                     14                     15
                      A                      A                      A
 Frequencies --    728.3949               820.3121               881.1714
 Red. masses --      3.8931                 2.4565                 2.6558
 Frc consts  --      1.2170                 0.9739                 1.2150
 IR Inten    --     15.7410                 0.5339                 5.6767

                     16                     17                     18
                      A                      A                      A
 Frequencies --    921.3946               942.9082               950.2134
 Red. masses --      1.7098                 3.6369                 1.7896
 Frc consts  --      0.8552                 1.9051                 0.9520
 IR Inten    --     16.7699                10.9544                 2.6298

                     19                     20                     21
                      A                      A                      A
 Frequencies --    957.5594              1015.7931              1043.4547
 Red. masses --      1.8157                 2.0055                 1.8063
 Frc consts  --      0.9809                 1.2192                 1.1587
 IR Inten    --     21.4282                 3.2347                27.0266

                     22                     23                     24
                      A                      A                      A
 Frequencies --   1059.2078              1078.0922              1092.1735
 Red. masses --      1.9342                 1.4486                 1.6533
 Frc consts  --      1.2785                 0.9920                 1.1620
 IR Inten    --      6.2070                11.3129                 1.9255

                     25                     26                     27
                      A                      A                      A
 Frequencies --   1115.1987              1122.6256              1161.0206
 Red. masses --      2.0186                 2.1478                 2.1882
 Frc consts  --      1.4791                 1.5948                 1.7378
 IR Inten    --     13.0201                19.4096                59.6059

                     28                     29                     30
                      A                      A                      A
 Frequencies --   1224.2389              1253.9537              1275.9187
 Red. masses --      1.1156                 1.3130                 2.1508
 Frc consts  --      0.9851                 1.2164                 2.0630
 IR Inten    --      9.5622                32.5244                 0.8006

                     31                     32                     33
                      A                      A                      A
 Frequencies --   1294.8378              1358.9727              1371.6291
 Red. masses --      2.3207                 1.5875                 1.5919
 Frc consts  --      2.2925                 1.7274                 1.7646
 IR Inten    --     93.9399                 3.4838                 0.1397

                     34                     35                     36
                      A                      A                      A
 Frequencies --   1381.5907              1412.9438              1462.4750
 Red. masses --      1.4094                 1.4420                 1.0578
 Frc consts  --      1.5851                 1.6962                 1.3330
 IR Inten    --     37.1789                37.7527                10.4891

                     37                     38                     39
                      A                      A                      A
 Frequencies --   1463.6131              1477.1702              1511.3737
 Red. masses --      1.4825                 1.0496                 1.0851
 Frc consts  --      1.8712                 1.3493                 1.4604
 IR Inten    --     16.3236                 8.5917                 0.8337

                     40                     41                     42
                      A                      A                      A
 Frequencies --   1522.5661              1782.0620              2974.4722
 Red. masses --      1.0954                10.7518                 1.0688
 Frc consts  --      1.4962                20.1177                 5.5713
 IR Inten    --      0.6871               143.3465                64.9136

                     43                     44                     45
                      A                      A                      A
 Frequencies --   2980.4696              3035.1172              3064.4865
 Red. masses --      1.0703                 1.0373                 1.0932
 Frc consts  --      5.6019                 5.6298                 6.0487
 IR Inten    --     76.2434                 4.6915                29.1703

                     46                     47                     48
                      A                      A                      A
 Frequencies --   3073.0411              3095.3127              3136.2030
 Red. masses --      1.0932                 1.0981                 1.0540
 Frc consts  --      6.0827                 6.1989                 6.1080
 IR Inten    --     31.3601                 8.4504                 7.6786

                     49                     50                     51
                      A                      A                      A
 Frequencies --   3153.9585              3195.9037              3239.4655
 Red. masses --      1.1014                 1.0913                 1.1167
 Frc consts  --      6.4552                 6.5672                 6.9045
 IR Inten    --     10.3702                 4.0968                 0.7234

 - Thermochemistry -
 -------------------
 Temperature   298.150 Kelvin.  Pressure   1.00000 Atm.
 Atom     1 has atomic number  6 and mass  12.00000

 Molecular mass:   126.06808 amu.
 Principal axes and moments of inertia in atomic units:
                           1         2         3
     Eigenvalues --   580.565561349.051981660.25119
           X            0.99829   0.05821   0.00522
           Y           -0.05813   0.99822  -0.01333
           Z           -0.00599   0.01300   0.99990
 This molecule is an asymmetric top.
 Rotational symmetry number  1.
 Warning -- assumption of classical behavior for rotation
           may cause significant error
 Rotational temperatures (Kelvin)      0.14919     0.06420     0.05217
 Rotational constants (GHZ):           3.10859     1.33778     1.08703
 Zero-point vibrational energy     418173.1 (Joules/Mol)
                                   99.94578 (Kcal/Mol)
 Warning -- explicit consideration of  11 degrees of freedom as
           vibrations may cause significant error
 Vibrational temperatures:     71.82   224.37   241.89   297.69   364.17
          (Kelvin)            471.49   544.14   571.20   665.34   853.38
                              879.33   975.72  1048.00  1180.24  1267.81
                             1325.68  1356.63  1367.14  1377.71  1461.50
                             1501.30  1523.96  1551.13  1571.39  1604.52
                             1615.21  1670.45  1761.40  1804.16  1835.76
                             1862.98  1955.26  1973.47  1987.80  2032.91
                             2104.17  2105.81  2125.32  2174.53  2190.63
                             2563.99  4279.60  4288.23  4366.85  4409.11
                             4421.42  4453.46  4512.29  4537.84  4598.19
                             4660.86

 Zero-point correction=                           0.159274 (Hartree/Particle)
 Thermal correction to Energy=                    0.167684
 Thermal correction to Enthalpy=                  0.168628
 Thermal correction to Gibbs Free Energy=         0.125918
 Sum of electronic and zero-point Energies=           -423.042402
 Sum of electronic and thermal Energies=              -423.033992
 Sum of electronic and thermal Enthalpies=            -423.033048
 Sum of electronic and thermal Free Energies=         -423.075758

                     E (Thermal)             CV                S
                      KCal/Mol        Cal/Mol-Kelvin    Cal/Mol-Kelvin
 Total                  105.223             31.775             89.890
 Electronic               0.000              0.000              0.000
 Translational            0.889              2.981             40.409
 Rotational               0.889              2.981             28.655
 Vibrational            103.446             25.813             20.827
 Vibration     1          0.595              1.978              4.821
 Vibration     2          0.620              1.896              2.598
 Vibration     3          0.625              1.882              2.456
 Vibration     4          0.641              1.830              2.071
 Vibration     5          0.664              1.758              1.709
 Vibration     6          0.711              1.620              1.271
 Vibration     7          0.748              1.517              1.046
 Vibration     8          0.764              1.477              0.974
 Vibration     9          0.820              1.333              0.759
 Vibration    10          0.951              1.046              0.462
 Vibration    11          0.970              1.008              0.431

 Optimization completed.
    -- Stationary point found.
 Normal termination of Gaussian 09 at Mon Jan 27 12:07:38 2020.
