 Gaussian 09, Revision D.01,
 Gaussian 09:  ES64L-G09RevD.01 24-Apr-2013

 -----------------------------
 # b3lyp 6-31G(2df,p) opt Freq
 -----------------------------

 -----
 titel
 -----
 Symbolic Z-matrix:
 Charge =  0 Multiplicity = 1

 SCF Done:  E(RB3LYP) =  -423.235846003     A.U. after   14 cycles
 Optimization completed.
    -- Stationary point found.
 Normal termination of Gaussian 09 at Tue Jan 28 00:40:38 2020.

 ----------------------------------------------------------------------
 #N Geom=AllCheck Guess=TCheck SCRF=Check GenChk RB3LYP/6-31G(2df,p) Fr
 eq
 ----------------------------------------------------------------------

 Structure from the checkpoint file:  "/scratch/puck/g09_e9cc0d62-c589-4198-baea-2b30a87b609b/Gau-107656.chk"
 -----
 titel
 -----
 Charge =  0 Multiplicity = 1

                         Standard orientation:
 ---------------------------------------------------------------------
 Center     Atomic      Atomic             Coordinates (Angstroms)
 Number     Number       Type             X           Y           Z
 ---------------------------------------------------------------------
      1          6           0        2.841934   -0.775535   -0.286812
      2          6           0        1.618067   -0.114159    0.341650
      3          6           0        0.390739   -1.049755    0.461744
      4          6           0       -0.814767   -0.120899    0.629925
      5          6           0       -2.109742   -0.580907   -0.013783
      6          8           0       -2.244092   -1.628834   -0.590448
      7          6           0       -0.374388    1.240082    0.026096
      8          8           0       -1.072027    2.216624   -0.046464
      9          6           0        1.071170    1.095509   -0.435371
     10          1           0        3.686128   -0.081101   -0.347503
     11          1           0        3.164364   -1.642741    0.298910
     12          1           0        2.618973   -1.122941   -1.302214
     13          1           0        1.884945    0.229293    1.350902
     14          1           0        0.262486   -1.631203   -0.458393
     15          1           0        0.493020   -1.767064    1.279543
     16          1           0       -1.049513    0.091968    1.682928
     17          1           0       -2.939033    0.151479    0.070996
     18          1           0        1.046311    0.874713   -1.513279
     19          1           0        1.623186    2.029265   -0.307281
 ---------------------------------------------------------------------

 SCF Done:  E(RB3LYP) =  -423.235846003     A.U. after    1 cycles

 The electronic state is 1-A.
 Alpha  occ. eigenvalues --  -19.14825 -19.14382 -10.28293 -10.27905 -10.20879
 Alpha  occ. eigenvalues --  -10.20553 -10.19921 -10.19316 -10.18594  -1.05758
 Alpha  occ. eigenvalues --   -1.05284  -0.85616  -0.77022  -0.72392  -0.67868
 Alpha  occ. eigenvalues --   -0.59754  -0.57894  -0.53518  -0.50470  -0.48240
 Alpha  occ. eigenvalues --   -0.46773  -0.44258  -0.43727  -0.42788  -0.41836
 Alpha  occ. eigenvalues --   -0.39187  -0.38619  -0.38169  -0.36650  -0.34862
 Alpha  occ. eigenvalues --   -0.33953  -0.33634  -0.26739  -0.24636
 Alpha virt. eigenvalues --   -0.03684  -0.01672   0.07140   0.10540   0.12094
 Alpha virt. eigenvalues --    0.13037   0.13395   0.14636   0.15584   0.16262
 Alpha virt. eigenvalues --    0.17342   0.18051   0.18629   0.19895   0.22196

 Mulliken charges:
               1
     1  C   -0.402948
     2  C    0.017069
     3  C   -0.236391
     4  C   -0.202902
     5  C    0.144337
     6  O   -0.237562
     7  C    0.381961
     8  O   -0.312175
     9  C   -0.320297
    10  H    0.117723
    11  H    0.119046
    12  H    0.119100
    13  H    0.081140
    14  H    0.125161
    15  H    0.109977
    16  H    0.126619
    17  H    0.107111
    18  H    0.133411
    19  H    0.129621
 Sum of Mulliken charges =   0.00000

 Dipole moment (field-independent basis, Debye):
    X=              2.5571    Y=             -0.1849    Z=              1.3196  Tot=              2.8835
 Quadrupole moment (field-independent basis, Debye-Ang):
   XX=            -54.8621   YY=            -62.9297   ZZ=            -51.1626
   XY=             -0.5055   XZ=             -2.8519   YZ=             -1.7571

  Exact polarizability:  88.440  -1.073  80.088  -0.826   0.789  61.703
 Approx polarizability: 113.136  -1.417 127.422   1.253   6.391  99.347

                      1                      2                      3
                      A                      A                      A
 Frequencies --     57.4451               108.9338               113.2720
 Red. masses --      3.3622                 4.9391                 2.8222
 Frc consts  --      0.0065                 0.0345                 0.0213
 IR Inten    --      2.2474                 8.8332                 0.8384

                      4                      5                      6
                      A                      A                      A
 Frequencies --    195.6974               242.3778               271.0277
 Red. masses --      2.9518                 1.1026                 2.9624
 Frc consts  --      0.0666                 0.0382                 0.1282
 IR Inten    --      5.7719                 0.3703                 1.1145

                      7                      8                      9
                      A                      A                      A
 Frequencies --    300.5539               411.2136               451.0462
 Red. masses --      3.0328                 1.8805                 3.9212
 Frc consts  --      0.1614                 0.1874                 0.4700
 IR Inten    --      2.7898                 0.6607                 3.9466

                     10                     11                     12
                      A                      A                      A
 Frequencies --    495.1226               547.8746               611.4864
 Red. masses --      2.9909                 3.5837                 3.9544
 Frc consts  --      0.4320                 0.6338                 0.8712
 IR Inten    --      1.8851                12.7012                 1.7100

                     13                     14                     15
                      A                      A                      A
 Frequencies --    647.3189               768.3047               843.0222
 Red. masses --      3.4043                 3.5069                 2.1622
 Frc consts  --      0.8404                 1.2197                 0.9054
 IR Inten    --     22.5208                 9.8515                 7.9089

                     16                     17                     18
                      A                      A                      A
 Frequencies --    861.0216               901.6818               923.6071
 Red. masses --      1.7477                 1.9361                 1.7897
 Frc consts  --      0.7634                 0.9274                 0.8995
 IR Inten    --      0.8708                 2.9025                13.4384

                     19                     20                     21
                      A                      A                      A
 Frequencies --    951.7109               984.1986              1012.9798
 Red. masses --      1.6899                 1.5051                 1.3313
 Frc consts  --      0.9018                 0.8590                 0.8049
 IR Inten    --      0.3846                11.7548                14.0381

                     22                     23                     24
                      A                      A                      A
 Frequencies --   1083.6196              1119.5543              1144.3007
 Red. masses --      2.7241                 1.9814                 3.3921
 Frc consts  --      1.8847                 1.4632                 2.6170
 IR Inten    --      5.6795                25.1970                70.9817

                     25                     26                     27
                      A                      A                      A
 Frequencies --   1156.7898              1170.5461              1195.7741
 Red. masses --      2.0586                 1.7753                 1.6459
 Frc consts  --      1.6230                 1.4332                 1.3866
 IR Inten    --     34.6718                 2.5385                 6.1354

                     28                     29                     30
                      A                      A                      A
 Frequencies --   1247.9844              1262.9562              1293.7518
 Red. masses --      1.5320                 1.4951                 1.3343
 Frc consts  --      1.4058                 1.4050                 1.3159
 IR Inten    --      9.6904                 8.7532                 1.2631

                     31                     32                     33
                      A                      A                      A
 Frequencies --   1332.2116              1347.7204              1383.8470
 Red. masses --      1.5654                 1.3376                 1.5267
 Frc consts  --      1.6369                 1.4315                 1.7226
 IR Inten    --     14.5548                 7.1961                 7.8637

                     34                     35                     36
                      A                      A                      A
 Frequencies --   1412.8750              1416.9616              1447.8194
 Red. masses --      1.1977                 1.2479                 1.0961
 Frc consts  --      1.4087                 1.4762                 1.3537
 IR Inten    --      6.8523                 2.8385                 7.2307

                     37                     38                     39
                      A                      A                      A
 Frequencies --   1495.5101              1498.4683              1502.2838
 Red. masses --      1.0635                 1.0559                 1.0656
 Frc consts  --      1.4015                 1.3969                 1.4170
 IR Inten    --      0.3455                 3.1233                10.3596

                     40                     41                     42
                      A                      A                      A
 Frequencies --   1816.0890              1848.2775              2924.5561
 Red. masses --     10.6770                12.0028                 1.0850
 Frc consts  --     20.7479                24.1583                 5.4677
 IR Inten    --    268.5555               122.3001                80.3403

                     43                     44                     45
                      A                      A                      A
 Frequencies --   3002.2464              3015.0701              3018.0515
 Red. masses --      1.0787                 1.0724                 1.0818
 Frc consts  --      5.7285                 5.7436                 5.8057
 IR Inten    --      7.6189                17.9875                 7.2226

                     46                     47                     48
                      A                      A                      A
 Frequencies --   3028.7596              3053.4044              3095.9404
 Red. masses --      1.0359                 1.0621                 1.1011
 Frc consts  --      5.5989                 5.8340                 6.2184
 IR Inten    --     23.0060                15.3562                20.6815

                     49                     50                     51
                      A                      A                      A
 Frequencies --   3101.6499              3104.2349              3110.7226
 Red. masses --      1.1015                 1.1012                 1.0935
 Frc consts  --      6.2436                 6.2522                 6.2346
 IR Inten    --     23.1057                27.0304                12.8257

 - Thermochemistry -
 -------------------
 Temperature   298.150 Kelvin.  Pressure   1.00000 Atm.
 Atom     1 has atomic number  6 and mass  12.00000

 Molecular mass:   126.06808 amu.
 Principal axes and moments of inertia in atomic units:
                           1         2         3
     Eigenvalues --   791.614041363.672341952.48060
           X            0.99923  -0.03674  -0.01407
           Y            0.03658   0.99926  -0.01151
           Z            0.01448   0.01099   0.99983
 This molecule is an asymmetric top.
 Rotational symmetry number  1.
 Warning -- assumption of classical behavior for rotation
           may cause significant error
 Rotational temperatures (Kelvin)      0.10941     0.06352     0.04436
 Rotational constants (GHZ):           2.27982     1.32344     0.92433
 Zero-point vibrational energy     414696.7 (Joules/Mol)
                                   99.11489 (Kcal/Mol)
 Warning -- explicit consideration of  12 degrees of freedom as
           vibrations may cause significant error
 Vibrational temperatures:     82.65   156.73   162.97   281.56   348.73
          (Kelvin)            389.95   432.43   591.64   648.95   712.37
                              788.27   879.79   931.35  1105.42  1212.92
                             1238.82  1297.32  1328.86  1369.30  1416.04
                             1457.45  1559.08  1610.79  1646.39  1664.36
                             1684.15  1720.45  1795.57  1817.11  1861.42
                             1916.75  1939.07  1991.04  2032.81  2038.69
                             2083.09  2151.70  2155.96  2161.45  2612.94
                             2659.26  4207.78  4319.56  4338.01  4342.30
                             4357.70  4393.16  4454.36  4462.58  4466.30
                             4475.63

 Zero-point correction=                           0.157950 (Hartree/Particle)
 Thermal correction to Energy=                    0.166908
 Thermal correction to Enthalpy=                  0.167853
 Thermal correction to Gibbs Free Energy=         0.123669
 Sum of electronic and zero-point Energies=           -423.077896
 Sum of electronic and thermal Energies=              -423.068938
 Sum of electronic and thermal Enthalpies=            -423.067993
 Sum of electronic and thermal Free Energies=         -423.112177

                     E (Thermal)             CV                S
                      KCal/Mol        Cal/Mol-Kelvin    Cal/Mol-Kelvin
 Total                  104.737             32.886             92.991
 Electronic               0.000              0.000              0.000
 Translational            0.889              2.981             40.409
 Rotational               0.889              2.981             29.134
 Vibrational            102.959             26.924             23.448
 Vibration     1          0.596              1.975              4.543
 Vibration     2          0.606              1.942              3.288
 Vibration     3          0.607              1.938              3.212
 Vibration     4          0.636              1.846              2.173
 Vibration     5          0.659              1.775              1.785
 Vibration     6          0.675              1.727              1.590
 Vibration     7          0.693              1.673              1.414
 Vibration     8          0.775              1.446              0.922
 Vibration     9          0.810              1.359              0.793
 Vibration    10          0.851              1.261              0.670
 Vibration    11          0.903              1.144              0.549
 Vibration    12          0.971              1.008              0.430

 Normal termination of Gaussian 09 at Tue Jan 28 01:22:21 2020.
