 Gaussian 09, Revision D.01,
 Gaussian 09:  ES64L-G09RevD.01 24-Apr-2013

 -----------------------------
 # b3lyp 6-31G(2df,p) opt Freq
 -----------------------------

 -----
 titel
 -----
 Symbolic Z-matrix:
 Charge =  0 Multiplicity = 1

 SCF Done:  E(RB3LYP) =  -423.191195225     A.U. after   13 cycles
 Optimization completed.
    -- Stationary point found.
 Normal termination of Gaussian 09 at Tue Jan 28 03:58:04 2020.

 ----------------------------------------------------------------------
 #N Geom=AllCheck Guess=TCheck SCRF=Check GenChk RB3LYP/6-31G(2df,p) Fr
 eq
 ----------------------------------------------------------------------

 Structure from the checkpoint file:  "/scratch/puck/g09_82c34686-22e9-471b-874e-92d39b02d764/Gau-93008.chk"
 -----
 titel
 -----
 Charge =  0 Multiplicity = 1

                         Standard orientation:
 ---------------------------------------------------------------------
 Center     Atomic      Atomic             Coordinates (Angstroms)
 Number     Number       Type             X           Y           Z
 ---------------------------------------------------------------------
      1          8           0       -1.612689   -1.337744   -0.822483
      2          6           0       -1.411002   -0.624500    0.387167
      3          6           0       -1.950069    0.834164    0.281669
      4          6           0       -0.736741    1.603790   -0.214937
      5          6           0        0.375395    0.921201    0.049548
      6          6           0        1.833853    0.963107   -0.287974
      7          8           0        2.311778   -0.364952   -0.038794
      8          6           0        1.205205   -1.265124    0.127205
      9          6           0        0.087426   -0.403271    0.719854
     10          1           0       -1.254840   -0.798901   -1.538046
     11          1           0       -1.929697   -1.208484    1.151285
     12          1           0       -2.811955    0.878815   -0.393028
     13          1           0       -2.291233    1.202477    1.259528
     14          1           0       -0.803076    2.562816   -0.716308
     15          1           0        2.005426    1.248687   -1.336592
     16          1           0        2.409771    1.653708    0.341921
     17          1           0        0.893873   -1.693564   -0.835772
     18          1           0        1.547608   -2.076937    0.773604
     19          1           0        0.217007   -0.323253    1.808424
 ---------------------------------------------------------------------

 SCF Done:  E(RB3LYP) =  -423.191195225     A.U. after    1 cycles

 The electronic state is 1-A.
 Alpha  occ. eigenvalues --  -19.13859 -19.13308 -10.23750 -10.23327 -10.22403
 Alpha  occ. eigenvalues --  -10.19000 -10.18902 -10.18744 -10.18737  -1.02847
 Alpha  occ. eigenvalues --   -1.02077  -0.84434  -0.74745  -0.73042  -0.68312
 Alpha  occ. eigenvalues --   -0.61117  -0.58610  -0.53484  -0.51479  -0.49529
 Alpha  occ. eigenvalues --   -0.46480  -0.44795  -0.43594  -0.41875  -0.39698
 Alpha  occ. eigenvalues --   -0.39095  -0.37622  -0.36996  -0.34495  -0.32229
 Alpha  occ. eigenvalues --   -0.30575  -0.27063  -0.25134  -0.24162
 Alpha virt. eigenvalues --    0.00685   0.07779   0.10376   0.11780   0.12438
 Alpha virt. eigenvalues --    0.12838   0.13569   0.15361   0.15666   0.17010
 Alpha virt. eigenvalues --    0.18031   0.18384   0.19598   0.21582   0.21928

 Mulliken charges:
               1
     1  O   -0.427018
     2  C    0.090533
     3  C   -0.274506
     4  C   -0.264773
     5  C    0.327214
     6  C   -0.182291
     7  O   -0.271014
     8  C   -0.101843
     9  C   -0.094670
    10  H    0.280606
    11  H    0.085716
    12  H    0.109562
    13  H    0.110354
    14  H    0.096415
    15  H    0.108174
    16  H    0.117147
    17  H    0.095158
    18  H    0.109012
    19  H    0.086222
 Sum of Mulliken charges =   0.00000

 Dipole moment (field-independent basis, Debye):
    X=             -0.8045    Y=              1.6667    Z=              0.1737  Tot=              1.8588
 Quadrupole moment (field-independent basis, Debye-Ang):
   XX=            -59.1232   YY=            -53.5814   ZZ=            -50.0994
   XY=             -1.0870   XZ=             -1.0030   YZ=             -2.5158

  Exact polarizability:  88.578  -3.858  77.690  -0.745  -5.212  63.754
 Approx polarizability: 127.028  -8.512 113.221   2.787  -7.920 100.116

                      1                      2                      3
                      A                      A                      A
 Frequencies --    101.9365               138.0691               228.1166
 Red. masses --      3.0161                 3.7874                 2.5109
 Frc consts  --      0.0185                 0.0425                 0.0770
 IR Inten    --      0.1398                 7.5247                 3.2454

                      4                      5                      6
                      A                      A                      A
 Frequencies --    261.9600               342.2554               386.2716
 Red. masses --      3.0376                 3.1549                 1.1005
 Frc consts  --      0.1228                 0.2177                 0.0967
 IR Inten    --      1.0966                 0.7679                72.3511

                      7                      8                      9
                      A                      A                      A
 Frequencies --    411.0420               477.7188               596.5091
 Red. masses --      2.2392                 3.4740                 6.1091
 Frc consts  --      0.2229                 0.4671                 1.2808
 IR Inten    --      2.7489                13.4708                 5.2711

                     10                     11                     12
                      A                      A                      A
 Frequencies --    619.4019               712.1210               792.0981
 Red. masses --      3.0024                 4.0870                 2.3744
 Frc consts  --      0.6787                 1.2211                 0.8777
 IR Inten    --      3.5979                 1.0346                13.3984

                     13                     14                     15
                      A                      A                      A
 Frequencies --    812.6138               833.2356               865.2679
 Red. masses --      2.4592                 2.3273                 2.0945
 Frc consts  --      0.9568                 0.9520                 0.9239
 IR Inten    --      0.8870                 4.8714                25.4209

                     16                     17                     18
                      A                      A                      A
 Frequencies --    917.4070               930.3885               951.3285
 Red. masses --      4.3299                 2.4799                 1.9783
 Frc consts  --      2.1471                 1.2648                 1.0549
 IR Inten    --     28.2821                 7.3328                 6.0275

                     19                     20                     21
                      A                      A                      A
 Frequencies --    988.0426              1007.9102              1026.9352
 Red. masses --      2.1550                 1.5069                 2.1017
 Frc consts  --      1.2395                 0.9019                 1.3059
 IR Inten    --      5.2210                 3.8798                 2.0936

                     22                     23                     24
                      A                      A                      A
 Frequencies --   1065.2456              1091.0043              1112.2124
 Red. masses --      5.5686                 2.1760                 2.7621
 Frc consts  --      3.7230                 1.5260                 2.0131
 IR Inten    --     77.3111                34.8731                 6.5439

                     25                     26                     27
                      A                      A                      A
 Frequencies --   1163.5987              1172.4656              1204.2368
 Red. masses --      2.0191                 1.1900                 1.1590
 Frc consts  --      1.6107                 0.9638                 0.9903
 IR Inten    --     19.0198                69.2305                 0.5953

                     28                     29                     30
                      A                      A                      A
 Frequencies --   1218.2841              1235.7673              1245.5556
 Red. masses --      1.3127                 1.6723                 1.5488
 Frc consts  --      1.1479                 1.5047                 1.4157
 IR Inten    --      4.5762                 3.3349                 6.3153

                     31                     32                     33
                      A                      A                      A
 Frequencies --   1282.8400              1302.9519              1321.5863
 Red. masses --      1.4130                 1.4450                 1.3481
 Frc consts  --      1.3700                 1.4454                 1.3873
 IR Inten    --      3.5277                 4.4684                 3.4152

                     34                     35                     36
                      A                      A                      A
 Frequencies --   1328.5484              1357.6891              1394.2814
 Red. masses --      1.6346                 1.4314                 1.4655
 Frc consts  --      1.6999                 1.5545                 1.6785
 IR Inten    --      1.1618                 2.3183                13.2279

                     37                     38                     39
                      A                      A                      A
 Frequencies --   1433.2387              1476.7585              1505.9726
 Red. masses --      1.2046                 1.0947                 1.0836
 Frc consts  --      1.4580                 1.4065                 1.4479
 IR Inten    --     53.6885                 2.7985                 0.2520

                     40                     41                     42
                      A                      A                      A
 Frequencies --   1526.4813              1732.5551              2990.7345
 Red. masses --      1.0922                 8.4643                 1.0639
 Frc consts  --      1.4994                14.9698                 5.6068
 IR Inten    --      1.6940                 0.5103                62.3126

                     43                     44                     45
                      A                      A                      A
 Frequencies --   3002.8930              3010.1429              3014.2061
 Red. masses --      1.0804                 1.0674                 1.0691
 Frc consts  --      5.7398                 5.6983                 5.7229
 IR Inten    --      6.0574                36.3726                52.4476

                     46                     47                     48
                      A                      A                      A
 Frequencies --   3027.4949              3069.1832              3088.1191
 Red. masses --      1.0981                 1.0946                 1.0878
 Frc consts  --      5.9302                 6.0753                 6.1123
 IR Inten    --     33.7273                21.0034                35.6069

                     49                     50                     51
                      A                      A                      A
 Frequencies --   3096.3435              3194.1946              3787.6824
 Red. masses --      1.0972                 1.0945                 1.0655
 Frc consts  --      6.1975                 6.5795                 9.0064
 IR Inten    --     45.0339                12.2331                10.2529

 - Thermochemistry -
 -------------------
 Temperature   298.150 Kelvin.  Pressure   1.00000 Atm.
 Atom     1 has atomic number  8 and mass  15.99491

 Molecular mass:   126.06808 amu.
 Principal axes and moments of inertia in atomic units:
                           1         2         3
     Eigenvalues --   620.605151175.388801553.11159
           X            0.99985  -0.01493  -0.00933
           Y            0.01469   0.99958  -0.02510
           Z            0.00970   0.02496   0.99964
 This molecule is an asymmetric top.
 Rotational symmetry number  1.
 Warning -- assumption of classical behavior for rotation
           may cause significant error
 Rotational temperatures (Kelvin)      0.13956     0.07369     0.05577
 Rotational constants (GHZ):           2.90803     1.53544     1.16202
 Zero-point vibrational energy     423794.4 (Joules/Mol)
                                  101.28930 (Kcal/Mol)
 Warning -- explicit consideration of  10 degrees of freedom as
           vibrations may cause significant error
 Vibrational temperatures:    146.66   198.65   328.21   376.90   492.43
          (Kelvin)            555.76   591.40   687.33   858.24   891.18
                             1024.58  1139.65  1169.17  1198.84  1244.93
                             1319.94  1338.62  1368.75  1421.57  1450.16
                             1477.53  1532.65  1569.71  1600.22  1674.16
                             1686.91  1732.63  1752.84  1777.99  1792.07
                             1845.72  1874.65  1901.47  1911.48  1953.41
                             2006.06  2062.11  2124.72  2166.76  2196.26
                             2492.76  4302.99  4320.49  4330.92  4336.76
                             4355.88  4415.86  4443.11  4454.94  4595.73
                             5449.62

 Zero-point correction=                           0.161415 (Hartree/Particle)
 Thermal correction to Energy=                    0.169079
 Thermal correction to Enthalpy=                  0.170023
 Thermal correction to Gibbs Free Energy=         0.129271
 Sum of electronic and zero-point Energies=           -423.029780
 Sum of electronic and thermal Energies=              -423.022116
 Sum of electronic and thermal Enthalpies=            -423.021172
 Sum of electronic and thermal Free Energies=         -423.061924

                     E (Thermal)             CV                S
                      KCal/Mol        Cal/Mol-Kelvin    Cal/Mol-Kelvin
 Total                  106.099             30.190             85.770
 Electronic               0.000              0.000              0.000
 Translational            0.889              2.981             40.409
 Rotational               0.889              2.981             28.518
 Vibrational            104.321             24.229             16.844
 Vibration     1          0.604              1.948              3.417
 Vibration     2          0.614              1.915              2.830
 Vibration     3          0.651              1.798              1.894
 Vibration     4          0.669              1.742              1.649
 Vibration     5          0.721              1.591              1.202
 Vibration     6          0.755              1.499              1.015
 Vibration     7          0.775              1.446              0.923
 Vibration     8          0.834              1.299              0.716
 Vibration     9          0.954              1.039              0.456
 Vibration    10          0.979              0.991              0.417

 Optimization completed.
    -- Stationary point found.
 Normal termination of Gaussian 09 at Tue Jan 28 04:43:48 2020.
