 Gaussian 09, Revision D.01,
 Gaussian 09:  ES64L-G09RevD.01 24-Apr-2013

 -----------------------------
 # b3lyp 6-31G(2df,p) opt Freq
 -----------------------------

 -----
 titel
 -----
 Symbolic Z-matrix:
 Charge =  0 Multiplicity = 1

 SCF Done:  E(RB3LYP) =  -423.182594395     A.U. after   14 cycles
 Optimization completed.
    -- Stationary point found.
 Normal termination of Gaussian 09 at Mon Jan 27 16:17:34 2020.

 ----------------------------------------------------------------------
 #N Geom=AllCheck Guess=TCheck SCRF=Check GenChk RB3LYP/6-31G(2df,p) Fr
 eq
 ----------------------------------------------------------------------

 Structure from the checkpoint file:  "/scratch/puck/g09_a9ad32fe-bfd1-4c41-80a6-41908ebfe7ab/Gau-35349.chk"
 -----
 titel
 -----
 Charge =  0 Multiplicity = 1

                         Standard orientation:
 ---------------------------------------------------------------------
 Center     Atomic      Atomic             Coordinates (Angstroms)
 Number     Number       Type             X           Y           Z
 ---------------------------------------------------------------------
      1          6           0        1.601435   -0.497278    1.279287
      2          6           0        0.733266   -0.336517    0.026957
      3          6           0        1.568522   -0.555590   -1.242332
      4          6           0       -0.589911   -1.148528    0.005243
      5          6           0       -1.531858   -0.447323    1.013117
      6          6           0       -1.449487    0.617060   -0.106605
      7          8           0       -1.327841   -0.476117   -1.075454
      8          6           0        0.023799    1.047508   -0.015896
      9          8           0        0.509893    2.143941    0.013311
     10          1           0        1.032056   -0.392778    2.206960
     11          1           0        2.085695   -1.479782    1.288835
     12          1           0        2.385315    0.266102    1.284984
     13          1           0        0.940774   -0.517221   -2.134774
     14          1           0        2.334847    0.221135   -1.325353
     15          1           0        2.072737   -1.527836   -1.207982
     16          1           0       -0.533782   -2.231721   -0.105308
     17          1           0       -2.517785   -0.912494    1.040179
     18          1           0       -1.177610   -0.204153    2.016949
     19          1           0       -2.213258    1.360160   -0.325982
 ---------------------------------------------------------------------

 SCF Done:  E(RB3LYP) =  -423.182594395     A.U. after    1 cycles

 The electronic state is 1-A.
 Alpha  occ. eigenvalues --  -19.15223 -19.14000 -10.26870 -10.25039 -10.24944
 Alpha  occ. eigenvalues --  -10.20668 -10.20572 -10.18621 -10.17888  -1.06861
 Alpha  occ. eigenvalues --   -1.04354  -0.82243  -0.76255  -0.69848  -0.69292
 Alpha  occ. eigenvalues --   -0.65916  -0.56356  -0.52144  -0.50742  -0.48693
 Alpha  occ. eigenvalues --   -0.44671  -0.44612  -0.43954  -0.42372  -0.39721
 Alpha  occ. eigenvalues --   -0.39024  -0.38036  -0.37404  -0.35815  -0.35530
 Alpha  occ. eigenvalues --   -0.33255  -0.32961  -0.28291  -0.22818
 Alpha virt. eigenvalues --   -0.01846   0.08270   0.08593   0.11199   0.11495
 Alpha virt. eigenvalues --    0.12534   0.14072   0.14717   0.15921   0.16704
 Alpha virt. eigenvalues --    0.17179   0.18376   0.20279   0.20345   0.21507

 Mulliken charges:
               1
     1  C   -0.453264
     2  C    0.181139
     3  C   -0.443156
     4  C    0.041071
     5  C   -0.257304
     6  C   -0.044817
     7  O   -0.296522
     8  C    0.433646
     9  O   -0.342412
    10  H    0.116565
    11  H    0.117638
    12  H    0.140734
    13  H    0.138766
    14  H    0.132396
    15  H    0.110923
    16  H    0.086776
    17  H    0.124549
    18  H    0.112829
    19  H    0.100441
 Sum of Mulliken charges =   0.00000

 Dipole moment (field-independent basis, Debye):
    X=             -0.4504    Y=             -2.2350    Z=              1.5217  Tot=              2.7411
 Quadrupole moment (field-independent basis, Debye-Ang):
   XX=            -51.6614   YY=            -57.5215   ZZ=            -53.9256
   XY=             -3.3416   XZ=             -2.4534   YZ=             -1.1574

  Exact polarizability:  80.668  -1.101  75.176  -1.680  -0.652  67.279
 Approx polarizability: 110.951   2.919 121.025   1.420   1.108 102.376

                      1                      2                      3
                      A                      A                      A
 Frequencies --    128.0136               176.3250               199.3889
 Red. masses --      4.5882                 1.1025                 2.5729
 Frc consts  --      0.0443                 0.0202                 0.0603
 IR Inten    --      4.1793                 0.4172                 0.3416

                      4                      5                      6
                      A                      A                      A
 Frequencies --    213.8060               268.6630               274.9018
 Red. masses --      1.2096                 3.1837                 2.4266
 Frc consts  --      0.0326                 0.1354                 0.1080
 IR Inten    --      1.8787                 3.4152                 1.1001

                      7                      8                      9
                      A                      A                      A
 Frequencies --    343.1016               458.9082               474.6814
 Red. masses --      2.4648                 2.4818                 3.4007
 Frc consts  --      0.1710                 0.3079                 0.4515
 IR Inten    --      0.3748                 1.8974                 2.0171

                     10                     11                     12
                      A                      A                      A
 Frequencies --    530.6948               600.8140               676.5914
 Red. masses --      5.0681                 4.3100                 3.5041
 Frc consts  --      0.8410                 0.9167                 0.9451
 IR Inten    --     12.3834                 0.6392                 3.2719

                     13                     14                     15
                      A                      A                      A
 Frequencies --    757.6642               783.7670               855.3377
 Red. masses --      3.8802                 3.3050                 2.8868
 Frc consts  --      1.3124                 1.1962                 1.2444
 IR Inten    --      6.0674                 2.5175                20.0564

                     16                     17                     18
                      A                      A                      A
 Frequencies --    869.5357               876.2634               916.6945
 Red. masses --      3.6755                 3.0467                 3.2467
 Frc consts  --      1.6374                 1.3783                 1.6075
 IR Inten    --     36.6161                12.4705                13.8635

                     19                     20                     21
                      A                      A                      A
 Frequencies --    958.0833               963.4079              1001.4899
 Red. masses --      1.8347                 1.5200                 1.6271
 Frc consts  --      0.9923                 0.8312                 0.9615
 IR Inten    --      5.3321                 2.9437                 9.0508

                     22                     23                     24
                      A                      A                      A
 Frequencies --   1018.1527              1033.3922              1060.5797
 Red. masses --      2.4720                 1.5106                 1.3320
 Frc consts  --      1.5098                 0.9505                 0.8828
 IR Inten    --     20.0912                 1.2096                 2.5670

                     25                     26                     27
                      A                      A                      A
 Frequencies --   1134.9860              1159.0727              1206.2041
 Red. masses --      2.6417                 1.5905                 2.5429
 Frc consts  --      2.0050                 1.2590                 2.1798
 IR Inten    --     10.7807                 5.0403                 3.8007

                     28                     29                     30
                      A                      A                      A
 Frequencies --   1212.3303              1226.0550              1235.0178
 Red. masses --      1.8101                 2.1064                 1.6657
 Frc consts  --      1.5675                 1.8656                 1.4969
 IR Inten    --      1.4308                 3.4562                 3.6062

                     31                     32                     33
                      A                      A                      A
 Frequencies --   1268.3974              1286.5381              1326.8197
 Red. masses --      1.6741                 1.5243                 2.0878
 Frc consts  --      1.5869                 1.4865                 2.1656
 IR Inten    --      2.2514                 1.4271                 8.5670

                     34                     35                     36
                      A                      A                      A
 Frequencies --   1390.4480              1414.8732              1477.4227
 Red. masses --      1.2177                 1.2168                 1.0738
 Frc consts  --      1.3871                 1.4351                 1.3810
 IR Inten    --      4.5755                 6.0392                 0.8468

                     37                     38                     39
                      A                      A                      A
 Frequencies --   1487.3876              1489.7880              1503.6385
 Red. masses --      1.0789                 1.0593                 1.0701
 Frc consts  --      1.4063                 1.3852                 1.4255
 IR Inten    --      1.8627                 4.2901                 5.8026

                     40                     41                     42
                      A                      A                      A
 Frequencies --   1513.2667              1875.6807              3032.9498
 Red. masses --      1.0529                12.3944                 1.0368
 Frc consts  --      1.4206                25.6918                 5.6194
 IR Inten    --      8.4608               203.9167                17.6324

                     43                     44                     45
                      A                      A                      A
 Frequencies --   3037.1120              3077.8597              3100.6136
 Red. masses --      1.0366                 1.0581                 1.1000
 Frc consts  --      5.6337                 5.9055                 6.2309
 IR Inten    --     28.9961                18.7896                 5.5876

                     46                     47                     48
                      A                      A                      A
 Frequencies --   3104.4795              3115.2162              3118.7330
 Red. masses --      1.0994                 1.1005                 1.0919
 Frc consts  --      6.2430                 6.2924                 6.2573
 IR Inten    --     25.2917                24.6521                35.5732

                     49                     50                     51
                      A                      A                      A
 Frequencies --   3133.4995              3147.2613              3153.8359
 Red. masses --      1.1005                 1.1082                 1.0933
 Frc consts  --      6.3662                 6.4677                 6.4074
 IR Inten    --      9.3099                14.0541                25.1014

 - Thermochemistry -
 -------------------
 Temperature   298.150 Kelvin.  Pressure   1.00000 Atm.
 Atom     1 has atomic number  6 and mass  12.00000

 Molecular mass:   126.06808 amu.
 Principal axes and moments of inertia in atomic units:
                           1         2         3
     Eigenvalues --   798.490191008.345171161.97360
           X            0.99494  -0.09427  -0.03461
           Y            0.09329   0.99522  -0.02893
           Z            0.03718   0.02555   0.99898
 This molecule is an asymmetric top.
 Rotational symmetry number  1.
 Warning -- assumption of classical behavior for rotation
           may cause significant error
 Rotational temperatures (Kelvin)      0.10847     0.08590     0.07454
 Rotational constants (GHZ):           2.26019     1.78980     1.55317
 Zero-point vibrational energy     416717.6 (Joules/Mol)
                                   99.59790 (Kcal/Mol)
 Warning -- explicit consideration of  11 degrees of freedom as
           vibrations may cause significant error
 Vibrational temperatures:    184.18   253.69   286.88   307.62   386.55
          (Kelvin)            395.52   493.65   660.27   682.96   763.55
                              864.44   973.46  1090.11  1127.66  1230.64
                             1251.07  1260.75  1318.92  1378.47  1386.13
                             1440.92  1464.89  1486.82  1525.94  1632.99
                             1667.65  1735.46  1744.27  1764.02  1776.91
                             1824.94  1851.04  1909.00  2000.54  2035.68
                             2125.68  2140.02  2143.47  2163.40  2177.25
                             2698.68  4363.73  4369.72  4428.35  4461.09
                             4466.65  4482.10  4487.16  4508.40  4528.20
                             4537.66

 Zero-point correction=                           0.158719 (Hartree/Particle)
 Thermal correction to Energy=                    0.167007
 Thermal correction to Enthalpy=                  0.167951
 Thermal correction to Gibbs Free Energy=         0.126365
 Sum of electronic and zero-point Energies=           -423.023875
 Sum of electronic and thermal Energies=              -423.015588
 Sum of electronic and thermal Enthalpies=            -423.014644
 Sum of electronic and thermal Free Energies=         -423.056230

                     E (Thermal)             CV                S
                      KCal/Mol        Cal/Mol-Kelvin    Cal/Mol-Kelvin
 Total                  104.798             32.268             87.525
 Electronic               0.000              0.000              0.000
 Translational            0.889              2.981             40.409
 Rotational               0.889              2.981             28.327
 Vibrational            103.021             26.307             18.789
 Vibration     1          0.611              1.925              2.976
 Vibration     2          0.628              1.872              2.367
 Vibration     3          0.638              1.841              2.139
 Vibration     4          0.644              1.820              2.011
 Vibration     5          0.673              1.731              1.605
 Vibration     6          0.677              1.720              1.565
 Vibration     7          0.722              1.589              1.198
 Vibration     8          0.817              1.341              0.769
 Vibration     9          0.831              1.306              0.725
 Vibration    10          0.886              1.182              0.586
 Vibration    11          0.959              1.030              0.448

 Optimization completed.
    -- Stationary point found.
 Normal termination of Gaussian 09 at Mon Jan 27 17:15:15 2020.
