 Gaussian 09, Revision D.01,
 Gaussian 09:  ES64L-G09RevD.01 24-Apr-2013

 -----------------------------
 # b3lyp 6-31G(2df,p) opt Freq
 -----------------------------

 -----
 titel
 -----
 Symbolic Z-matrix:
 Charge =  0 Multiplicity = 1

 SCF Done:  E(RB3LYP) =  -423.157543621     A.U. after   14 cycles
 Optimization completed.
    -- Stationary point found.
 Normal termination of Gaussian 09 at Mon Jan 27 23:06:06 2020.

 ----------------------------------------------------------------------
 #N Geom=AllCheck Guess=TCheck SCRF=Check GenChk RB3LYP/6-31G(2df,p) Fr
 eq
 ----------------------------------------------------------------------

 Structure from the checkpoint file:  "/scratch/puck/g09_b609ed66-f0ce-4968-bb94-3256fef77a5a/Gau-103135.chk"
 -----
 titel
 -----
 Charge =  0 Multiplicity = 1

                         Standard orientation:
 ---------------------------------------------------------------------
 Center     Atomic      Atomic             Coordinates (Angstroms)
 Number     Number       Type             X           Y           Z
 ---------------------------------------------------------------------
      1          6           0       -2.470409   -0.824422    0.276003
      2          6           0       -1.190908   -0.364694   -0.434306
      3          6           0       -0.937037    1.120661   -0.201307
      4          8           0        0.270617    1.595874   -0.794355
      5          6           0        0.276908    1.330533    0.613349
      6          6           0        0.896795   -0.017965    0.941341
      7          8           0        2.096780   -0.315981    0.201826
      8          6           0        1.367515   -1.165900   -0.714892
      9          6           0        0.074571   -1.053100    0.126963
     10          1           0       -2.643167   -1.892701    0.114529
     11          1           0       -2.405745   -0.656534    1.357181
     12          1           0       -3.347542   -0.282979   -0.093253
     13          1           0       -1.290083   -0.553671   -1.510593
     14          1           0       -1.768496    1.823883   -0.207473
     15          1           0        0.426354    2.198622    1.250366
     16          1           0        1.030533   -0.159959    2.019479
     17          1           0        1.307210   -0.726280   -1.716143
     18          1           0        1.814866   -2.164877   -0.774565
     19          1           0       -0.167714   -1.975325    0.657794
 ---------------------------------------------------------------------

 SCF Done:  E(RB3LYP) =  -423.157543621     A.U. after    1 cycles

 The electronic state is 1-A.
 Alpha  occ. eigenvalues --  -19.15312 -19.12716 -10.23822 -10.23438 -10.23412
 Alpha  occ. eigenvalues --  -10.22427 -10.19902 -10.19276 -10.18653  -1.07910
 Alpha  occ. eigenvalues --   -1.02936  -0.81504  -0.73310  -0.71257  -0.66241
 Alpha  occ. eigenvalues --   -0.63126  -0.57553  -0.54693  -0.53063  -0.48626
 Alpha  occ. eigenvalues --   -0.46524  -0.44859  -0.43189  -0.41263  -0.40824
 Alpha  occ. eigenvalues --   -0.39893  -0.36572  -0.36155  -0.35566  -0.31799
 Alpha  occ. eigenvalues --   -0.30544  -0.28878  -0.27145  -0.23962
 Alpha virt. eigenvalues --    0.06155   0.08647   0.09307   0.11786   0.12162
 Alpha virt. eigenvalues --    0.13262   0.13531   0.14654   0.15915   0.16429
 Alpha virt. eigenvalues --    0.17429   0.17602   0.18498   0.20261   0.21921

 Mulliken charges:
               1
     1  C   -0.411036
     2  C   -0.038530
     3  C    0.046308
     4  O   -0.250122
     5  C    0.009947
     6  C    0.104260
     7  O   -0.289308
     8  C   -0.091105
     9  C   -0.079855
    10  H    0.121397
    11  H    0.118922
    12  H    0.118291
    13  H    0.088814
    14  H    0.092471
    15  H    0.096734
    16  H    0.073748
    17  H    0.112040
    18  H    0.096745
    19  H    0.080278
 Sum of Mulliken charges =   0.00000

 Dipole moment (field-independent basis, Debye):
    X=             -2.6677    Y=             -1.1113    Z=              1.0684  Tot=              3.0811
 Quadrupole moment (field-independent basis, Debye-Ang):
   XX=            -57.0377   YY=            -52.0178   ZZ=            -51.8246
   XY=             -1.5456   XZ=              0.6165   YZ=              3.3491

  Exact polarizability:  79.020  -1.706  73.307   1.534   3.485  67.403
 Approx polarizability: 110.184  -0.124 103.180   3.032   2.771 107.564

                      1                      2                      3
                      A                      A                      A
 Frequencies --    116.0544               199.5550               228.4004
 Red. masses --      3.0512                 2.9791                 1.2303
 Frc consts  --      0.0242                 0.0699                 0.0378
 IR Inten    --      2.1968                 2.8909                 0.9467

                      4                      5                      6
                      A                      A                      A
 Frequencies --    249.5572               298.2294               348.8095
 Red. masses --      3.0165                 2.8452                 3.1553
 Frc consts  --      0.1107                 0.1491                 0.2262
 IR Inten    --      0.9795                 0.6996                 0.7027

                      7                      8                      9
                      A                      A                      A
 Frequencies --    486.6566               532.0700               662.0731
 Red. masses --      3.8970                 5.5418                 5.1410
 Frc consts  --      0.5438                 0.9244                 1.3277
 IR Inten    --      4.1717                11.8301                 3.5034

                     10                     11                     12
                      A                      A                      A
 Frequencies --    677.7572               782.6122               823.1603
 Red. masses --      3.6299                 2.1672                 3.2709
 Frc consts  --      0.9824                 0.7821                 1.3058
 IR Inten    --      0.2213                 5.2145                12.3715

                     13                     14                     15
                      A                      A                      A
 Frequencies --    853.7671               878.4794               892.2233
 Red. masses --      1.9283                 2.9816                 2.7725
 Frc consts  --      0.8282                 1.3557                 1.3004
 IR Inten    --      9.7040                 0.2935                 8.3182

                     16                     17                     18
                      A                      A                      A
 Frequencies --    915.6347               967.0072               995.8692
 Red. masses --      2.8920                 2.3774                 2.3126
 Frc consts  --      1.4286                 1.3098                 1.3513
 IR Inten    --     28.4746                13.2495                 5.5508

                     19                     20                     21
                      A                      A                      A
 Frequencies --   1004.3497              1020.0174              1033.1281
 Red. masses --      1.5457                 4.3004                 2.5737
 Frc consts  --      0.9187                 2.6362                 1.6185
 IR Inten    --      2.7087                74.4991                 3.6974

                     22                     23                     24
                      A                      A                      A
 Frequencies --   1065.9122              1080.7280              1093.0732
 Red. masses --      1.7554                 2.2135                 1.4786
 Frc consts  --      1.1751                 1.5232                 1.0409
 IR Inten    --      4.0355                10.0302                 1.6144

                     25                     26                     27
                      A                      A                      A
 Frequencies --   1141.7545              1154.2826              1171.3645
 Red. masses --      2.0648                 1.4583                 1.2564
 Frc consts  --      1.5859                 1.1447                 1.0157
 IR Inten    --      1.1613                 1.2481                 2.0614

                     28                     29                     30
                      A                      A                      A
 Frequencies --   1205.8540              1253.3713              1258.9605
 Red. masses --      1.9587                 1.3471                 1.4150
 Frc consts  --      1.6781                 1.2469                 1.3214
 IR Inten    --      1.2786                 6.2686                 0.3116

                     31                     32                     33
                      A                      A                      A
 Frequencies --   1300.2835              1304.7605              1317.3794
 Red. masses --      1.2685                 1.5539                 1.4324
 Frc consts  --      1.2636                 1.5586                 1.4646
 IR Inten    --      0.7017                 1.5200                 5.8781

                     34                     35                     36
                      A                      A                      A
 Frequencies --   1335.8976              1357.6727              1378.9545
 Red. masses --      1.5656                 1.3743                 1.6959
 Frc consts  --      1.6462                 1.4925                 1.9000
 IR Inten    --      1.8888                 2.6720                 3.1934

                     37                     38                     39
                      A                      A                      A
 Frequencies --   1409.7630              1428.9803              1497.9582
 Red. masses --      1.3311                 2.4510                 1.0468
 Frc consts  --      1.5587                 2.9488                 1.3839
 IR Inten    --      0.4564                10.6747                 4.1802

                     40                     41                     42
                      A                      A                      A
 Frequencies --   1500.1727              1515.3963              3024.4358
 Red. masses --      1.0509                 1.1053                 1.0568
 Frc consts  --      1.3935                 1.4955                 5.6957
 IR Inten    --      3.8615                 0.2826                70.0200

                     43                     44                     45
                      A                      A                      A
 Frequencies --   3029.5681              3032.1266              3046.4886
 Red. masses --      1.0485                 1.0693                 1.0868
 Frc consts  --      5.6702                 5.7925                 5.9429
 IR Inten    --     15.5999                30.2561                36.0719

                     46                     47                     48
                      A                      A                      A
 Frequencies --   3074.2828              3094.7100              3097.9756
 Red. masses --      1.1064                 1.0944                 1.0975
 Frc consts  --      6.1611                 6.1753                 6.2060
 IR Inten    --     15.5937                20.9668                42.0164

                     49                     50                     51
                      A                      A                      A
 Frequencies --   3107.1813              3124.9346              3149.8111
 Red. masses --      1.1010                 1.0885                 1.0938
 Frc consts  --      6.2631                 6.2625                 6.3938
 IR Inten    --     27.8542                29.4073                33.4799

 - Thermochemistry -
 -------------------
 Temperature   298.150 Kelvin.  Pressure   1.00000 Atm.
 Atom     1 has atomic number  6 and mass  12.00000

 Molecular mass:   126.06808 amu.
 Principal axes and moments of inertia in atomic units:
                           1         2         3
     Eigenvalues --   676.674781035.555171357.68238
           X            0.99982   0.01544  -0.01087
           Y           -0.01503   0.99920   0.03703
           Z            0.01143  -0.03686   0.99925
 This molecule is an asymmetric top.
 Rotational symmetry number  1.
 Warning -- assumption of classical behavior for rotation
           may cause significant error
 Rotational temperatures (Kelvin)      0.12800     0.08364     0.06380
 Rotational constants (GHZ):           2.66707     1.74278     1.32928
 Zero-point vibrational energy     421799.9 (Joules/Mol)
                                  100.81261 (Kcal/Mol)
 Warning -- explicit consideration of   8 degrees of freedom as
           vibrations may cause significant error
 Vibrational temperatures:    166.98   287.11   328.62   359.06   429.09
          (Kelvin)            501.86   700.19   765.53   952.57   975.14
                             1126.00  1184.34  1228.38  1263.93  1283.71
                             1317.39  1391.31  1432.83  1445.03  1467.58
                             1486.44  1533.61  1554.92  1572.69  1642.73
                             1660.75  1685.33  1734.95  1803.32  1811.36
                             1870.82  1877.26  1895.41  1922.06  1953.39
                             1984.01  2028.33  2055.98  2155.23  2158.41
                             2180.31  4351.48  4358.87  4362.55  4383.21
                             4423.20  4452.59  4457.29  4470.54  4496.08
                             4531.87

 Zero-point correction=                           0.160655 (Hartree/Particle)
 Thermal correction to Energy=                    0.168068
 Thermal correction to Enthalpy=                  0.169012
 Thermal correction to Gibbs Free Energy=         0.128921
 Sum of electronic and zero-point Energies=           -422.996889
 Sum of electronic and thermal Energies=              -422.989476
 Sum of electronic and thermal Enthalpies=            -422.988531
 Sum of electronic and thermal Free Energies=         -423.028623

                     E (Thermal)             CV                S
                      KCal/Mol        Cal/Mol-Kelvin    Cal/Mol-Kelvin
 Total                  105.464             29.400             84.380
 Electronic               0.000              0.000              0.000
 Translational            0.889              2.981             40.409
 Rotational               0.889              2.981             28.344
 Vibrational            103.687             23.439             15.627
 Vibration     1          0.608              1.936              3.165
 Vibration     2          0.638              1.841              2.137
 Vibration     3          0.651              1.798              1.891
 Vibration     4          0.662              1.763              1.734
 Vibration     5          0.691              1.677              1.427
 Vibration     6          0.726              1.578              1.172
 Vibration     7          0.843              1.280              0.692
 Vibration     8          0.887              1.179              0.583

 Optimization completed.
    -- Stationary point found.
 Normal termination of Gaussian 09 at Mon Jan 27 23:52:25 2020.
