 Gaussian 09, Revision D.01,
 Gaussian 09:  ES64L-G09RevD.01 24-Apr-2013

 -----------------------------
 # b3lyp 6-31G(2df,p) opt Freq
 -----------------------------

 -----
 titel
 -----
 Symbolic Z-matrix:
 Charge =  0 Multiplicity = 1

 SCF Done:  E(RB3LYP) =  -423.124777627     A.U. after   14 cycles
 Optimization completed.
    -- Stationary point found.
 Normal termination of Gaussian 09 at Mon Jan 27 16:20:50 2020.

 ----------------------------------------------------------------------
 #N Geom=AllCheck Guess=TCheck SCRF=Check GenChk RB3LYP/6-31G(2df,p) Fr
 eq
 ----------------------------------------------------------------------

 Structure from the checkpoint file:  "/scratch/puck/g09_93d546b3-f2c8-40c4-abb9-43712976fc65/Gau-60033.chk"
 -----
 titel
 -----
 Charge =  0 Multiplicity = 1

                         Standard orientation:
 ---------------------------------------------------------------------
 Center     Atomic      Atomic             Coordinates (Angstroms)
 Number     Number       Type             X           Y           Z
 ---------------------------------------------------------------------
      1          6           0        1.889888    1.264810   -0.263520
      2          6           0        1.053792    0.000002   -0.078096
      3          6           0        1.890135   -1.264572   -0.263886
      4          8           0        0.503837   -0.000315    1.281428
      5          6           0       -0.878397   -0.000221    1.071130
      6          6           0       -1.276455    0.899921   -0.138317
      7          8           0       -2.380963    0.000080   -0.478155
      8          6           0       -1.276471   -0.899906   -0.138631
      9          6           0       -0.244380    0.000124   -0.887024
     10          1           0        2.311110    1.308051   -1.273278
     11          1           0        1.285500    2.161794   -0.103279
     12          1           0        2.715920    1.279433    0.453577
     13          1           0        2.312766   -1.306663   -1.273100
     14          1           0        2.715151   -1.279858    0.454363
     15          1           0        1.285639   -2.161814   -0.105485
     16          1           0       -1.449946   -0.000370    1.996959
     17          1           0       -1.448624    1.973663   -0.204983
     18          1           0       -1.448648   -1.973624   -0.205656
     19          1           0       -0.210543    0.000309   -1.975236
 ---------------------------------------------------------------------

 SCF Done:  E(RB3LYP) =  -423.124777627     A.U. after    1 cycles

 The electronic state is 1-A.
 Alpha  occ. eigenvalues --  -19.14201 -19.13492 -10.24470 -10.24402 -10.24398
 Alpha  occ. eigenvalues --  -10.24102 -10.20022 -10.18037 -10.18037  -1.07605
 Alpha  occ. eigenvalues --   -1.02813  -0.80112  -0.77871  -0.69861  -0.66584
 Alpha  occ. eigenvalues --   -0.65417  -0.56833  -0.55411  -0.52511  -0.48514
 Alpha  occ. eigenvalues --   -0.46008  -0.44426  -0.41555  -0.39780  -0.39662
 Alpha  occ. eigenvalues --   -0.39590  -0.37199  -0.36568  -0.35421  -0.33964
 Alpha  occ. eigenvalues --   -0.32626  -0.31464  -0.24688  -0.23394
 Alpha virt. eigenvalues --    0.06449   0.10160   0.10859   0.11388   0.12002
 Alpha virt. eigenvalues --    0.13487   0.13994   0.14154   0.15789   0.16805
 Alpha virt. eigenvalues --    0.17702   0.18509   0.19839   0.20094   0.20997

 Mulliken charges:
               1
     1  C   -0.419120
     2  C    0.351477
     3  C   -0.419142
     4  O   -0.310556
     5  C    0.081453
     6  C    0.019274
     7  O   -0.320014
     8  C    0.019271
     9  C   -0.096894
    10  H    0.115647
    11  H    0.119382
    12  H    0.126816
    13  H    0.115643
    14  H    0.126850
    15  H    0.119362
    16  H    0.099679
    17  H    0.094194
    18  H    0.094193
    19  H    0.082486
 Sum of Mulliken charges =   0.00000

 Dipole moment (field-independent basis, Debye):
    X=              1.5776    Y=              0.0002    Z=             -0.7167  Tot=              1.7328
 Quadrupole moment (field-independent basis, Debye-Ang):
   XX=            -58.1595   YY=            -50.0190   ZZ=            -54.1264
   XY=              0.0008   XZ=             -3.9750   YZ=              0.0009

  Exact polarizability:  82.348   0.001  72.523  -3.005   0.001  66.359
 Approx polarizability: 114.675   0.000 108.061  -0.956   0.000 105.559

                      1                      2                      3
                      A                      A                      A
 Frequencies --    140.9882               200.6191               231.2005
 Red. masses --      3.1866                 1.0482                 2.5431
 Frc consts  --      0.0373                 0.0249                 0.0801
 IR Inten    --      0.0004                 0.0404                 0.0660

                      4                      5                      6
                      A                      A                      A
 Frequencies --    232.6254               322.7243               343.4334
 Red. masses --      1.0642                 2.4788                 2.7424
 Frc consts  --      0.0339                 0.1521                 0.1906
 IR Inten    --      0.0846                 0.1395                 0.0345

                      7                      8                      9
                      A                      A                      A
 Frequencies --    476.7585               495.4683               501.9544
 Red. masses --      4.7780                 3.4465                 4.1890
 Frc consts  --      0.6399                 0.4985                 0.6219
 IR Inten    --      7.6055                 1.3744                 9.9045

                     10                     11                     12
                      A                      A                      A
 Frequencies --    592.7725               689.8595               783.7446
 Red. masses --      3.5719                 5.4753                 2.9193
 Frc consts  --      0.7395                 1.5352                 1.0565
 IR Inten    --      0.7792                 0.0762                13.8353

                     13                     14                     15
                      A                      A                      A
 Frequencies --    794.7631               821.0736               881.6339
 Red. masses --      3.6061                 3.7854                 2.3867
 Frc consts  --      1.3420                 1.5036                 1.0930
 IR Inten    --     23.1033                 1.1262                 1.9514

                     16                     17                     18
                      A                      A                      A
 Frequencies --    891.0121               892.1731               915.5799
 Red. masses --      4.1618                 1.9429                 2.5616
 Frc consts  --      1.9467                 0.9112                 1.2652
 IR Inten    --      5.0663                 4.7192                11.9798

                     19                     20                     21
                      A                      A                      A
 Frequencies --    936.1576               964.7059               980.4118
 Red. masses --      1.4565                 1.7679                 1.1699
 Frc consts  --      0.7521                 0.9694                 0.6625
 IR Inten    --      0.0110                 7.8977                 0.1336

                     22                     23                     24
                      A                      A                      A
 Frequencies --   1007.7015              1017.3484              1093.5741
 Red. masses --      5.0457                 1.3626                 3.9655
 Frc consts  --      3.0188                 0.8309                 2.7941
 IR Inten    --      8.6945                 0.0737               129.8133

                     25                     26                     27
                      A                      A                      A
 Frequencies --   1133.2741              1144.9122              1150.1597
 Red. masses --      2.9495                 1.3321                 1.3200
 Frc consts  --      2.2319                 1.0288                 1.0289
 IR Inten    --     18.4198                 0.0682                 0.0715

                     28                     29                     30
                      A                      A                      A
 Frequencies --   1171.5343              1182.5001              1201.4461
 Red. masses --      2.4124                 1.5990                 1.5767
 Frc consts  --      1.9508                 1.3173                 1.3409
 IR Inten    --      7.2969                 7.9757                 4.6287

                     31                     32                     33
                      A                      A                      A
 Frequencies --   1232.8738              1236.9857              1275.9824
 Red. masses --      3.5166                 2.0334                 1.6019
 Frc consts  --      3.1493                 1.8331                 1.5367
 IR Inten    --     25.6008                 6.2118                23.8700

                     34                     35                     36
                      A                      A                      A
 Frequencies --   1326.2634              1359.4871              1399.2282
 Red. masses --      2.8599                 1.8947                 1.2901
 Frc consts  --      2.9638                 2.0631                 1.4881
 IR Inten    --     26.1605                 7.7129                11.8795

                     37                     38                     39
                      A                      A                      A
 Frequencies --   1416.6118              1474.3416              1483.2492
 Red. masses --      1.2382                 1.0474                 1.0466
 Frc consts  --      1.4640                 1.3414                 1.3567
 IR Inten    --      5.2320                 0.5723                 1.8462

                     40                     41                     42
                      A                      A                      A
 Frequencies --   1497.0188              1503.8580              3036.3161
 Red. masses --      1.0777                 1.0526                 1.0348
 Frc consts  --      1.4230                 1.4026                 5.6211
 IR Inten    --      1.3012                 5.1100                15.6928

                     43                     44                     45
                      A                      A                      A
 Frequencies --   3041.4334              3107.4418              3113.3668
 Red. masses --      1.0353                 1.1012                 1.1007
 Frc consts  --      5.6427                 6.2648                 6.2862
 IR Inten    --     14.7220                 0.9407                27.7140

                     46                     47                     48
                      A                      A                      A
 Frequencies --   3115.9615              3118.8644              3122.3035
 Red. masses --      1.1008                 1.1006                 1.0913
 Frc consts  --      6.2969                 6.3077                 6.2685
 IR Inten    --      0.0325                27.7575                83.3921

                     49                     50                     51
                      A                      A                      A
 Frequencies --   3123.9086              3143.8846              3158.2878
 Red. masses --      1.0923                 1.0910                 1.0956
 Frc consts  --      6.2806                 6.3536                 6.4385
 IR Inten    --      6.3737                27.3818                21.1563

 - Thermochemistry -
 -------------------
 Temperature   298.150 Kelvin.  Pressure   1.00000 Atm.
 Atom     1 has atomic number  6 and mass  12.00000

 Molecular mass:   126.06808 amu.
 Principal axes and moments of inertia in atomic units:
                           1         2         3
     Eigenvalues --   531.100941231.171331284.58287
           X            0.99964   0.00001  -0.02685
           Y           -0.00001   1.00000   0.00010
           Z            0.02685  -0.00010   0.99964
 This molecule is an asymmetric top.
 Rotational symmetry number  1.
 Warning -- assumption of classical behavior for rotation
           may cause significant error
 Rotational temperatures (Kelvin)      0.16308     0.07035     0.06743
 Rotational constants (GHZ):           3.39811     1.46587     1.40492
 Zero-point vibrational energy     415581.4 (Joules/Mol)
                                   99.32633 (Kcal/Mol)
 Warning -- explicit consideration of  10 degrees of freedom as
           vibrations may cause significant error
 Vibrational temperatures:    202.85   288.65   332.65   334.70   464.33
          (Kelvin)            494.12   685.95   712.87   722.20   852.87
                              992.55  1127.63  1143.49  1181.34  1268.47
                             1281.97  1283.64  1317.31  1346.92  1387.99
                             1410.59  1449.86  1463.74  1573.41  1630.53
                             1647.27  1654.82  1685.57  1701.35  1728.61
                             1773.83  1779.74  1835.85  1908.19  1956.00
                             2013.17  2038.19  2121.25  2134.06  2153.87
                             2163.71  4368.58  4375.94  4470.91  4479.43
                             4483.17  4487.34  4492.29  4494.60  4523.34
                             4544.07

 Zero-point correction=                           0.158287 (Hartree/Particle)
 Thermal correction to Energy=                    0.165989
 Thermal correction to Enthalpy=                  0.166934
 Thermal correction to Gibbs Free Energy=         0.126606
 Sum of electronic and zero-point Energies=           -422.966491
 Sum of electronic and thermal Energies=              -422.958788
 Sum of electronic and thermal Enthalpies=            -422.957844
 Sum of electronic and thermal Free Energies=         -422.998171

                     E (Thermal)             CV                S
                      KCal/Mol        Cal/Mol-Kelvin    Cal/Mol-Kelvin
 Total                  104.160             31.166             84.876
 Electronic               0.000              0.000              0.000
 Translational            0.889              2.981             40.409
 Rotational               0.889              2.981             28.220
 Vibrational            102.382             25.205             16.247
 Vibration     1          0.615              1.912              2.790
 Vibration     2          0.638              1.839              2.127
 Vibration     3          0.653              1.793              1.870
 Vibration     4          0.653              1.791              1.859
 Vibration     5          0.708              1.630              1.296
 Vibration     6          0.722              1.589              1.196
 Vibration     7          0.833              1.302              0.719
 Vibration     8          0.851              1.260              0.670
 Vibration     9          0.857              1.246              0.653
 Vibration    10          0.950              1.047              0.462

 Normal termination of Gaussian 09 at Mon Jan 27 17:04:38 2020.
