 Gaussian 09, Revision D.01,
 Gaussian 09:  ES64L-G09RevD.01 24-Apr-2013

 -----------------------------
 # b3lyp 6-31G(2df,p) opt Freq
 -----------------------------

 -----
 titel
 -----
 Symbolic Z-matrix:
 Charge =  0 Multiplicity = 1

 SCF Done:  E(RB3LYP) =  -423.181053582     A.U. after   13 cycles
 Optimization completed.
    -- Stationary point found.
 Normal termination of Gaussian 09 at Mon Jan 27 18:51:05 2020.

 ----------------------------------------------------------------------
 #N Geom=AllCheck Guess=TCheck SCRF=Check GenChk RB3LYP/6-31G(2df,p) Fr
 eq
 ----------------------------------------------------------------------

 Structure from the checkpoint file:  "/scratch/puck/g09_17b40680-a78c-4540-ab78-62ea2cce9b6e/Gau-64443.chk"
 -----
 titel
 -----
 Charge =  0 Multiplicity = 1

                         Standard orientation:
 ---------------------------------------------------------------------
 Center     Atomic      Atomic             Coordinates (Angstroms)
 Number     Number       Type             X           Y           Z
 ---------------------------------------------------------------------
      1          8           0       -1.924226    0.824587   -0.873889
      2          6           0       -0.831670    0.369478   -0.109321
      3          6           0       -1.168767   -0.437083    1.169922
      4          8           0       -0.466073   -1.593879    0.684693
      5          6           0       -0.152276   -0.955091   -0.575477
      6          6           0        1.348475   -0.936952   -0.839355
      7          6           0        2.066357    0.032730    0.064401
      8          6           0        1.498459    1.162540    0.483187
      9          6           0        0.101882    1.563572    0.082421
     10          1           0       -2.552260    0.100369   -0.970085
     11          1           0       -0.744249   -0.061860    2.108925
     12          1           0       -2.243869   -0.622313    1.307903
     13          1           0       -0.690121   -1.435119   -1.406238
     14          1           0        1.733430   -1.954886   -0.710816
     15          1           0        1.522062   -0.673634   -1.893454
     16          1           0        3.084736   -0.207131    0.356247
     17          1           0        2.052941    1.850414    1.115010
     18          1           0       -0.338928    2.245962    0.817857
     19          1           0        0.123892    2.117363   -0.866444
 ---------------------------------------------------------------------

 SCF Done:  E(RB3LYP) =  -423.181053582     A.U. after    1 cycles

 The electronic state is 1-A.
 Alpha  occ. eigenvalues --  -19.14488 -19.13083 -10.24181 -10.23013 -10.22437
 Alpha  occ. eigenvalues --  -10.18655 -10.18608 -10.18156 -10.18066  -1.04797
 Alpha  occ. eigenvalues --   -1.01717  -0.82003  -0.75651  -0.71932  -0.67674
 Alpha  occ. eigenvalues --   -0.62587  -0.58202  -0.52462  -0.49921  -0.48894
 Alpha  occ. eigenvalues --   -0.48330  -0.44815  -0.42158  -0.40294  -0.39867
 Alpha  occ. eigenvalues --   -0.39167  -0.38495  -0.37863  -0.34529  -0.33024
 Alpha  occ. eigenvalues --   -0.29129  -0.26292  -0.24932  -0.24524
 Alpha virt. eigenvalues --    0.01938   0.07166   0.08632   0.09775   0.12350
 Alpha virt. eigenvalues --    0.13360   0.14195   0.14925   0.16343   0.16677
 Alpha virt. eigenvalues --    0.18543   0.19035   0.20280   0.21990   0.23169

 Mulliken charges:
               1
     1  O   -0.487257
     2  C    0.340454
     3  C   -0.121048
     4  O   -0.290445
     5  C    0.078653
     6  C   -0.281347
     7  C   -0.050625
     8  C   -0.063394
     9  C   -0.299328
    10  H    0.280275
    11  H    0.104429
    12  H    0.087452
    13  H    0.061158
    14  H    0.117249
    15  H    0.112546
    16  H    0.089272
    17  H    0.088163
    18  H    0.109360
    19  H    0.124432
 Sum of Mulliken charges =   0.00000

 Dipole moment (field-independent basis, Debye):
    X=             -0.0821    Y=              0.2570    Z=             -0.3769  Tot=              0.4635
 Quadrupole moment (field-independent basis, Debye-Ang):
   XX=            -49.3762   YY=            -56.5848   ZZ=            -52.6843
   XY=              1.9433   XZ=             -0.3822   YZ=              4.6333

  Exact polarizability:  81.854  -3.473  75.931  -0.606   7.664  67.953
 Approx polarizability: 111.179 -10.852 118.753  -1.047  11.143 103.417

                      1                      2                      3
                      A                      A                      A
 Frequencies --    103.1249               125.6180               266.7307
 Red. masses --      3.2567                 2.4742                 2.2623
 Frc consts  --      0.0204                 0.0230                 0.0948
 IR Inten    --      3.9414                 0.5814                 8.1807

                      4                      5                      6
                      A                      A                      A
 Frequencies --    300.0067               331.6057               367.2704
 Red. masses --      2.6189                 1.2149                 4.3703
 Frc consts  --      0.1389                 0.0787                 0.3473
 IR Inten    --      0.8638                70.8569                 8.9159

                      7                      8                      9
                      A                      A                      A
 Frequencies --    399.9623               435.5850               493.5934
 Red. masses --      2.8038                 2.3240                 3.6170
 Frc consts  --      0.2643                 0.2598                 0.5192
 IR Inten    --      4.7453                10.0865                 2.8182

                     10                     11                     12
                      A                      A                      A
 Frequencies --    560.7389               642.4673               694.0979
 Red. masses --      4.2170                 3.7688                 1.3783
 Frc consts  --      0.7812                 0.9165                 0.3912
 IR Inten    --      1.3466                 4.7198                19.5504

                     13                     14                     15
                      A                      A                      A
 Frequencies --    769.3525               855.0791               878.2275
 Red. masses --      3.4823                 2.6587                 2.2697
 Frc consts  --      1.2144                 1.1454                 1.0314
 IR Inten    --      0.9442                 6.0616                21.5504

                     16                     17                     18
                      A                      A                      A
 Frequencies --    902.0515               929.5865               952.1602
 Red. masses --      2.9635                 2.6435                 2.5116
 Frc consts  --      1.4208                 1.3459                 1.3416
 IR Inten    --      4.9051                31.0922                 1.6688

                     19                     20                     21
                      A                      A                      A
 Frequencies --    980.4730               994.9525              1023.3385
 Red. masses --      1.7849                 1.2674                 3.3284
 Frc consts  --      1.0109                 0.7392                 2.0536
 IR Inten    --      6.9858                 0.1275                28.0263

                     22                     23                     24
                      A                      A                      A
 Frequencies --   1040.4496              1066.8291              1088.0348
 Red. masses --      3.7478                 2.0555                 1.9653
 Frc consts  --      2.3904                 1.3784                 1.3708
 IR Inten    --     66.8590                 1.8776                 5.4375

                     25                     26                     27
                      A                      A                      A
 Frequencies --   1121.9611              1149.8256              1172.1451
 Red. masses --      1.9108                 1.3907                 1.8312
 Frc consts  --      1.4172                 1.0833                 1.4823
 IR Inten    --     59.7049                 2.6440                32.4769

                     28                     29                     30
                      A                      A                      A
 Frequencies --   1184.8102              1222.8339              1261.5633
 Red. masses --      1.1438                 1.1517                 1.5624
 Frc consts  --      0.9460                 1.0146                 1.4651
 IR Inten    --     18.7761                 3.4693                19.5469

                     31                     32                     33
                      A                      A                      A
 Frequencies --   1278.2249              1317.3234              1336.1071
 Red. masses --      1.4841                 1.5504                 1.4454
 Frc consts  --      1.4287                 1.5852                 1.5203
 IR Inten    --      2.7006                 6.3853                17.0498

                     34                     35                     36
                      A                      A                      A
 Frequencies --   1362.6935              1387.2312              1397.0557
 Red. masses --      1.3914                 1.7338                 1.9691
 Frc consts  --      1.5223                 1.9658                 2.2644
 IR Inten    --      4.4536                 4.1693                29.8014

                     37                     38                     39
                      A                      A                      A
 Frequencies --   1423.4071              1461.7682              1480.3160
 Red. masses --      1.5572                 1.0924                 1.0908
 Frc consts  --      1.8589                 1.3753                 1.4083
 IR Inten    --      7.4500                 3.8026                 1.5387

                     40                     41                     42
                      A                      A                      A
 Frequencies --   1515.0165              1720.0835              2986.1524
 Red. masses --      1.1058                 6.5235                 1.0751
 Frc consts  --      1.4954                11.3718                 5.6483
 IR Inten    --      0.7537                 2.1446                38.9743

                     43                     44                     45
                      A                      A                      A
 Frequencies --   2994.7622              3007.2541              3015.2367
 Red. masses --      1.0643                 1.0742                 1.0652
 Frc consts  --      5.6240                 5.7235                 5.7058
 IR Inten    --     76.7376                51.3464                21.3215

                     46                     47                     48
                      A                      A                      A
 Frequencies --   3052.1668              3061.2855              3063.3219
 Red. masses --      1.1045                 1.0957                 1.0920
 Frc consts  --      6.0621                 6.0502                 6.0376
 IR Inten    --     32.2560                28.2146                12.0233

                     49                     50                     51
                      A                      A                      A
 Frequencies --   3156.5569              3179.4246              3803.0736
 Red. masses --      1.0839                 1.0978                 1.0659
 Frc consts  --      6.3629                 6.5383                 9.0831
 IR Inten    --      4.8567                31.9171                14.0735

 - Thermochemistry -
 -------------------
 Temperature   298.150 Kelvin.  Pressure   1.00000 Atm.
 Atom     1 has atomic number  8 and mass  15.99491

 Molecular mass:   126.06808 amu.
 Principal axes and moments of inertia in atomic units:
                           1         2         3
     Eigenvalues --   750.104921025.220251294.79820
           X            0.99987   0.00771  -0.01383
           Y           -0.00667   0.99724   0.07401
           Z            0.01436  -0.07391   0.99716
 This molecule is an asymmetric top.
 Rotational symmetry number  1.
 Warning -- assumption of classical behavior for rotation
           may cause significant error
 Rotational temperatures (Kelvin)      0.11547     0.08448     0.06689
 Rotational constants (GHZ):           2.40599     1.76034     1.39384
 Zero-point vibrational energy     420564.8 (Joules/Mol)
                                  100.51739 (Kcal/Mol)
 Warning -- explicit consideration of  10 degrees of freedom as
           vibrations may cause significant error
 Vibrational temperatures:    148.37   180.74   383.77   431.64   477.11
          (Kelvin)            528.42   575.46   626.71   710.17   806.78
                              924.37   998.65  1106.93  1230.27  1263.57
                             1297.85  1337.47  1369.94  1410.68  1431.51
                             1472.35  1496.97  1534.93  1565.44  1614.25
                             1654.34  1686.45  1704.68  1759.38  1815.11
                             1839.08  1895.33  1922.36  1960.61  1995.91
                             2010.05  2047.96  2103.16  2129.84  2179.77
                             2474.81  4296.40  4308.79  4326.76  4338.25
                             4391.38  4404.50  4407.43  4541.58  4574.48
                             5471.77

 Zero-point correction=                           0.160185 (Hartree/Particle)
 Thermal correction to Energy=                    0.168034
 Thermal correction to Enthalpy=                  0.168978
 Thermal correction to Gibbs Free Energy=         0.128037
 Sum of electronic and zero-point Energies=           -423.020869
 Sum of electronic and thermal Energies=              -423.013020
 Sum of electronic and thermal Enthalpies=            -423.012076
 Sum of electronic and thermal Free Energies=         -423.053017

                     E (Thermal)             CV                S
                      KCal/Mol        Cal/Mol-Kelvin    Cal/Mol-Kelvin
 Total                  105.443             31.117             86.168
 Electronic               0.000              0.000              0.000
 Translational            0.889              2.981             40.409
 Rotational               0.889              2.981             28.389
 Vibrational            103.665             25.155             17.370
 Vibration     1          0.605              1.947              3.394
 Vibration     2          0.611              1.927              3.012
 Vibration     3          0.672              1.734              1.617
 Vibration     4          0.693              1.674              1.417
 Vibration     5          0.714              1.612              1.252
 Vibration     6          0.740              1.540              1.091
 Vibration     7          0.766              1.470              0.963
 Vibration     8          0.796              1.393              0.841
 Vibration     9          0.849              1.264              0.674
 Vibration    10          0.916              1.116              0.522

 Optimization completed.
    -- Stationary point found.
 Normal termination of Gaussian 09 at Mon Jan 27 19:35:49 2020.
