 Gaussian 09, Revision D.01,
 Gaussian 09:  ES64L-G09RevD.01 24-Apr-2013

 -----------------------------
 # b3lyp 6-31G(2df,p) opt Freq
 -----------------------------

 -----
 titel
 -----
 Symbolic Z-matrix:
 Charge =  0 Multiplicity = 1

 SCF Done:  E(RB3LYP) =  -423.190048003     A.U. after   13 cycles
 Optimization completed.
    -- Stationary point found.
 Normal termination of Gaussian 09 at Mon Jan 27 22:06:40 2020.

 ----------------------------------------------------------------------
 #N Geom=AllCheck Guess=TCheck SCRF=Check GenChk RB3LYP/6-31G(2df,p) Fr
 eq
 ----------------------------------------------------------------------

 Structure from the checkpoint file:  "/scratch/puck/g09_1e3fa68b-27fb-44b8-bf7e-b3286ea9e31b/Gau-46859.chk"
 -----
 titel
 -----
 Charge =  0 Multiplicity = 1

                         Standard orientation:
 ---------------------------------------------------------------------
 Center     Atomic      Atomic             Coordinates (Angstroms)
 Number     Number       Type             X           Y           Z
 ---------------------------------------------------------------------
      1          6           0        2.489787   -0.385277   -0.200281
      2          6           0        1.199445    0.366068   -0.508913
      3          6           0        0.015637   -0.470713   -0.980086
      4          6           0       -1.230835    0.468715   -0.807619
      5          6           0       -1.951708   -0.656338   -0.031759
      6          6           0       -0.535632   -1.163677    0.323357
      7          8           0        0.014498   -0.344816    1.372713
      8          6           0        0.391365    0.854976    0.709107
      9          8           0       -0.754678    1.458382    0.126056
     10          1           0        3.238312    0.285113    0.235511
     11          1           0        2.315403   -1.198231    0.509161
     12          1           0        2.920550   -0.812286   -1.111621
     13          1           0        1.385063    1.207700   -1.183388
     14          1           0        0.086622   -1.068356   -1.885479
     15          1           0       -1.707713    0.971679   -1.649672
     16          1           0       -2.598384   -0.358977    0.795597
     17          1           0       -2.473181   -1.344870   -0.704278
     18          1           0       -0.354949   -2.213493    0.555952
     19          1           0        0.841361    1.540664    1.425221
 ---------------------------------------------------------------------

 SCF Done:  E(RB3LYP) =  -423.190048003     A.U. after    1 cycles

 The electronic state is 1-A.
 Alpha  occ. eigenvalues --  -19.14109 -19.13961 -10.27123 -10.23535 -10.23504
 Alpha  occ. eigenvalues --  -10.19298 -10.18912 -10.17952 -10.17749  -1.08342
 Alpha  occ. eigenvalues --   -0.99558  -0.83345  -0.78910  -0.68557  -0.65617
 Alpha  occ. eigenvalues --   -0.64170  -0.58064  -0.53840  -0.52867  -0.49017
 Alpha  occ. eigenvalues --   -0.46203  -0.43179  -0.42337  -0.41984  -0.40060
 Alpha  occ. eigenvalues --   -0.38675  -0.37261  -0.35437  -0.34954  -0.33535
 Alpha  occ. eigenvalues --   -0.31556  -0.29564  -0.25660  -0.24780
 Alpha virt. eigenvalues --    0.08584   0.10474   0.12040   0.12747   0.13338
 Alpha virt. eigenvalues --    0.14429   0.15094   0.15680   0.16039   0.17208
 Alpha virt. eigenvalues --    0.17652   0.18126   0.19959   0.20660   0.21198

 Mulliken charges:
               1
     1  C   -0.421070
     2  C   -0.000024
     3  C   -0.107017
     4  C    0.085572
     5  C   -0.242709
     6  C    0.091672
     7  O   -0.277956
     8  C    0.172648
     9  O   -0.277224
    10  H    0.116925
    11  H    0.132355
    12  H    0.114933
    13  H    0.082937
    14  H    0.076863
    15  H    0.077517
    16  H    0.110757
    17  H    0.096896
    18  H    0.078114
    19  H    0.088812
 Sum of Mulliken charges =   0.00000

 Dipole moment (field-independent basis, Debye):
    X=              0.5563    Y=             -1.0329    Z=             -1.7478  Tot=              2.1051
 Quadrupole moment (field-independent basis, Debye-Ang):
   XX=            -51.4944   YY=            -53.5802   ZZ=            -53.8500
   XY=              2.7974   XZ=              1.2998   YZ=              1.2076

  Exact polarizability:  82.989   3.155  69.371   1.852   1.009  66.659
 Approx polarizability: 108.382   3.109 107.644   3.399   1.429 105.151

                      1                      2                      3
                      A                      A                      A
 Frequencies --    188.9954               207.1429               252.9229
 Red. masses --      1.0390                 2.7889                 2.6508
 Frc consts  --      0.0219                 0.0705                 0.0999
 IR Inten    --      0.0369                 0.0408                 1.5875

                      4                      5                      6
                      A                      A                      A
 Frequencies --    379.8594               390.6156               511.4463
 Red. masses --      4.5648                 2.0844                 4.2298
 Frc consts  --      0.3881                 0.1874                 0.6519
 IR Inten    --      2.7731                 1.5753                 3.3068

                      7                      8                      9
                      A                      A                      A
 Frequencies --    578.5944               625.2999               660.0355
 Red. masses --      4.1868                 5.7308                 4.3366
 Frc consts  --      0.8258                 1.3202                 1.1131
 IR Inten    --      8.9958                 0.4406                 2.2264

                     10                     11                     12
                      A                      A                      A
 Frequencies --    757.3867               795.0342               852.6105
 Red. masses --      2.9233                 2.2417                 2.3641
 Frc consts  --      0.9880                 0.8348                 1.0126
 IR Inten    --      2.2586                 3.8411                 8.3076

                     13                     14                     15
                      A                      A                      A
 Frequencies --    856.9326               880.9959               920.0809
 Red. masses --      2.1304                 3.0877                 3.8508
 Frc consts  --      0.9217                 1.4120                 1.9207
 IR Inten    --      3.3083                18.2896                57.9088

                     16                     17                     18
                      A                      A                      A
 Frequencies --    926.7095               938.2064               943.7578
 Red. masses --      3.0933                 2.4884                 2.2853
 Frc consts  --      1.5652                 1.2906                 1.1993
 IR Inten    --     25.2742                 5.0784                26.2005

                     19                     20                     21
                      A                      A                      A
 Frequencies --    977.7484               991.8482              1032.6715
 Red. masses --      2.0605                 3.0986                 1.5850
 Frc consts  --      1.1606                 1.7960                 0.9959
 IR Inten    --     10.6170                 5.5294                 3.5632

                     22                     23                     24
                      A                      A                      A
 Frequencies --   1072.4570              1073.4435              1108.8082
 Red. masses --      1.4784                 2.0263                 3.9264
 Frc consts  --      1.0019                 1.3757                 2.8442
 IR Inten    --     15.5064                 7.5872               104.4959

                     25                     26                     27
                      A                      A                      A
 Frequencies --   1120.3218              1140.2131              1148.1281
 Red. masses --      2.0364                 1.5436                 1.7148
 Frc consts  --      1.5059                 1.1824                 1.3318
 IR Inten    --      3.9314                 1.8159                 4.5209

                     28                     29                     30
                      A                      A                      A
 Frequencies --   1204.3405              1230.1619              1257.0658
 Red. masses --      1.4775                 1.8293                 1.7539
 Frc consts  --      1.2626                 1.6310                 1.6329
 IR Inten    --      4.8150                 4.7825                 8.9966

                     31                     32                     33
                      A                      A                      A
 Frequencies --   1263.9992              1286.8680              1293.1290
 Red. masses --      1.6600                 1.4235                 1.5960
 Frc consts  --      1.5626                 1.3889                 1.5724
 IR Inten    --     13.4346                 8.6858                 4.4166

                     34                     35                     36
                      A                      A                      A
 Frequencies --   1300.7125              1348.1490              1367.8813
 Red. masses --      1.2207                 1.3749                 1.4034
 Frc consts  --      1.2168                 1.4723                 1.5472
 IR Inten    --      2.3676                 6.5495                12.7781

                     37                     38                     39
                      A                      A                      A
 Frequencies --   1384.7006              1411.3050              1463.7272
 Red. masses --      1.6674                 1.2458                 1.1240
 Frc consts  --      1.8836                 1.4620                 1.4189
 IR Inten    --      3.4717                 2.1342                 2.5369

                     40                     41                     42
                      A                      A                      A
 Frequencies --   1495.8414              1502.8289              3037.0431
 Red. masses --      1.0471                 1.0501                 1.0367
 Frc consts  --      1.3805                 1.3974                 5.6339
 IR Inten    --      2.6858                 4.9877                29.9096

                     43                     44                     45
                      A                      A                      A
 Frequencies --   3055.4812              3065.8564              3097.2911
 Red. masses --      1.0595                 1.0844                 1.1010
 Frc consts  --      5.8279                 6.0053                 6.2233
 IR Inten    --     24.0540                15.8852                20.6606

                     46                     47                     48
                      A                      A                      A
 Frequencies --   3103.3365              3105.9650              3122.3825
 Red. masses --      1.0900                 1.0911                 1.1000
 Frc consts  --      6.1847                 6.2015                 6.3185
 IR Inten    --     65.5184                28.6188                23.1602

                     49                     50                     51
                      A                      A                      A
 Frequencies --   3128.3389              3145.9674              3153.6917
 Red. masses --      1.1063                 1.0908                 1.0918
 Frc consts  --      6.3788                 6.3610                 6.3980
 IR Inten    --     17.1705                38.9234                 8.4954

 - Thermochemistry -
 -------------------
 Temperature   298.150 Kelvin.  Pressure   1.00000 Atm.
 Atom     1 has atomic number  6 and mass  12.00000

 Molecular mass:   126.06808 amu.
 Principal axes and moments of inertia in atomic units:
                           1         2         3
     Eigenvalues --   582.468621022.827031081.79410
           X            0.99988   0.01548   0.00299
           Y           -0.01564   0.99791   0.06274
           Z           -0.00201  -0.06277   0.99803
 This molecule is an asymmetric top.
 Rotational symmetry number  1.
 Warning -- assumption of classical behavior for rotation
           may cause significant error
 Rotational temperatures (Kelvin)      0.14870     0.08468     0.08006
 Rotational constants (GHZ):           3.09844     1.76446     1.66829
 Zero-point vibrational energy     425621.3 (Joules/Mol)
                                  101.72594 (Kcal/Mol)
 Warning -- explicit consideration of   7 degrees of freedom as
           vibrations may cause significant error
 Vibrational temperatures:    271.92   298.03   363.90   546.53   562.01
          (Kelvin)            735.86   832.47   899.67   949.64  1089.71
                             1143.88  1226.71  1232.93  1267.55  1323.79
                             1333.33  1349.87  1357.86  1406.76  1427.05
                             1485.78  1543.02  1544.44  1595.33  1611.89
                             1640.51  1651.90  1732.78  1769.93  1808.64
                             1818.61  1851.51  1860.52  1871.43  1939.68
                             1968.07  1992.27  2030.55  2105.97  2152.18
                             2162.23  4369.62  4396.15  4411.08  4456.31
                             4465.00  4468.79  4492.41  4500.98  4526.34
                             4537.45

 Zero-point correction=                           0.162111 (Hartree/Particle)
 Thermal correction to Energy=                    0.168810
 Thermal correction to Enthalpy=                  0.169754
 Thermal correction to Gibbs Free Energy=         0.131401
 Sum of electronic and zero-point Energies=           -423.027937
 Sum of electronic and thermal Energies=              -423.021238
 Sum of electronic and thermal Enthalpies=            -423.020294
 Sum of electronic and thermal Free Energies=         -423.058647

                     E (Thermal)             CV                S
                      KCal/Mol        Cal/Mol-Kelvin    Cal/Mol-Kelvin
 Total                  105.930             28.101             80.720
 Electronic               0.000              0.000              0.000
 Translational            0.889              2.981             40.409
 Rotational               0.889              2.981             27.957
 Vibrational            104.152             22.140             12.354
 Vibration     1          0.633              1.855              2.238
 Vibration     2          0.641              1.830              2.069
 Vibration     3          0.664              1.758              1.710
 Vibration     4          0.750              1.513              1.040
 Vibration     5          0.758              1.490              0.998
 Vibration     6          0.867              1.225              0.630
 Vibration     7          0.935              1.078              0.488

 Optimization completed.
    -- Stationary point found.
 Normal termination of Gaussian 09 at Mon Jan 27 22:59:58 2020.
