 Gaussian 09, Revision D.01,
 Gaussian 09:  ES64L-G09RevD.01 24-Apr-2013

 -----------------------------
 # b3lyp 6-31G(2df,p) opt Freq
 -----------------------------

 -----
 titel
 -----
 Symbolic Z-matrix:
 Charge =  0 Multiplicity = 1

 SCF Done:  E(RB3LYP) =  -423.163302424     A.U. after   14 cycles
 Optimization completed.
    -- Stationary point found.
 Normal termination of Gaussian 09 at Mon Jan 27 12:15:15 2020.

 ----------------------------------------------------------------------
 #N Geom=AllCheck Guess=TCheck SCRF=Check GenChk RB3LYP/6-31G(2df,p) Fr
 eq
 ----------------------------------------------------------------------

 Structure from the checkpoint file:  "/scratch/puck/g09_1279e04c-694b-45ff-8e97-cdb2e34d8aab/Gau-153285.chk"
 -----
 titel
 -----
 Charge =  0 Multiplicity = 1

                         Standard orientation:
 ---------------------------------------------------------------------
 Center     Atomic      Atomic             Coordinates (Angstroms)
 Number     Number       Type             X           Y           Z
 ---------------------------------------------------------------------
      1          6           0       -1.818061    0.296489   -0.895662
      2          8           0       -2.589310   -0.195153    0.215688
      3          6           0       -1.441553   -0.132585    1.085685
      4          6           0       -0.489575    0.146433   -0.110947
      5          6           0        0.325497   -1.069515   -0.553677
      6          8           0        1.491225   -1.218202    0.236124
      7          6           0        2.401611   -0.149855    0.058803
      8          6           0        1.738919    1.199963    0.056986
      9          6           0        0.415684    1.334629   -0.005695
     10          1           0       -1.931120   -0.330002   -1.789776
     11          1           0       -2.076134    1.333712   -1.152186
     12          1           0       -1.517624    0.694233    1.804238
     13          1           0       -1.271051   -1.068974    1.629296
     14          1           0       -0.250074   -1.992744   -0.437827
     15          1           0        0.589232   -0.962363   -1.619880
     16          1           0        3.121005   -0.221989    0.883052
     17          1           0        2.977216   -0.283224   -0.876566
     18          1           0        2.393913    2.065705    0.108366
     19          1           0       -0.045807    2.319129    0.023829
 ---------------------------------------------------------------------

 SCF Done:  E(RB3LYP) =  -423.163302424     A.U. after    1 cycles

 The electronic state is 1-A.
 Alpha  occ. eigenvalues --  -19.14427 -19.13165 -10.23683 -10.23199 -10.23113
 Alpha  occ. eigenvalues --  -10.22813 -10.20142 -10.19100 -10.18885  -1.04246
 Alpha  occ. eigenvalues --   -1.03542  -0.81151  -0.77370  -0.69196  -0.67937
 Alpha  occ. eigenvalues --   -0.64915  -0.57700  -0.52801  -0.51293  -0.49975
 Alpha  occ. eigenvalues --   -0.47932  -0.45623  -0.44423  -0.42677  -0.40621
 Alpha  occ. eigenvalues --   -0.40361  -0.38396  -0.38039  -0.34782  -0.30800
 Alpha  occ. eigenvalues --   -0.30272  -0.26037  -0.25109  -0.24623
 Alpha virt. eigenvalues --    0.00849   0.07968   0.09066   0.10854   0.11997
 Alpha virt. eigenvalues --    0.13047   0.13784   0.14983   0.16066   0.16401
 Alpha virt. eigenvalues --    0.16923   0.18597   0.18933   0.19558   0.21833

 Mulliken charges:
               1
     1  C   -0.127798
     2  O   -0.273303
     3  C   -0.116867
     4  C    0.259938
     5  C   -0.156196
     6  O   -0.251768
     7  C   -0.125505
     8  C   -0.084852
     9  C   -0.145204
    10  H    0.102130
    11  H    0.094957
    12  H    0.096543
    13  H    0.112211
    14  H    0.115563
    15  H    0.088240
    16  H    0.120896
    17  H    0.100439
    18  H    0.098075
    19  H    0.092503
 Sum of Mulliken charges =   0.00000

 Dipole moment (field-independent basis, Debye):
    X=              1.6243    Y=              1.3275    Z=             -0.8064  Tot=              2.2474
 Quadrupole moment (field-independent basis, Debye-Ang):
   XX=            -57.4115   YY=            -53.1221   ZZ=            -51.9118
   XY=              1.3669   XZ=              0.7503   YZ=              0.9456

  Exact polarizability:  95.438   1.005  70.970   1.905   0.587  65.327
 Approx polarizability: 136.661   0.221 103.191   2.918  -1.275  98.195

                      1                      2                      3
                      A                      A                      A
 Frequencies --     86.3497               104.1788               216.0457
 Red. masses --      4.0629                 3.0638                 2.8139
 Frc consts  --      0.0178                 0.0196                 0.0774
 IR Inten    --      2.9579                 1.2337                 1.8184

                      4                      5                      6
                      A                      A                      A
 Frequencies --    263.4499               322.4986               380.6323
 Red. masses --      2.4911                 2.1891                 2.7628
 Frc consts  --      0.1019                 0.1341                 0.2358
 IR Inten    --      5.1323                 1.1225                 1.2655

                      7                      8                      9
                      A                      A                      A
 Frequencies --    422.6015               475.8951               524.9400
 Red. masses --      2.7912                 2.2474                 4.8539
 Frc consts  --      0.2937                 0.2999                 0.7881
 IR Inten    --      0.0544                 0.6981                 4.1752

                     10                     11                     12
                      A                      A                      A
 Frequencies --    659.2478               724.2043               822.0091
 Red. masses --      5.5015                 1.4016                 3.2413
 Frc consts  --      1.4087                 0.4331                 1.2904
 IR Inten    --      0.9923                25.3869                13.4898

                     13                     14                     15
                      A                      A                      A
 Frequencies --    848.9490               901.5197               914.4207
 Red. masses --      3.3089                 2.9379                 2.0452
 Frc consts  --      1.4051                 1.4068                 1.0076
 IR Inten    --      9.6225                 5.6182                 5.0773

                     16                     17                     18
                      A                      A                      A
 Frequencies --    962.2760               976.1038               993.7721
 Red. masses --      2.1962                 1.5770                 1.8211
 Frc consts  --      1.1982                 0.8853                 1.0596
 IR Inten    --     17.3491                 2.4046                 3.4298

                     19                     20                     21
                      A                      A                      A
 Frequencies --    998.0922              1006.2727              1037.1792
 Red. masses --      1.7146                 2.6880                10.5027
 Frc consts  --      1.0063                 1.6036                 6.6567
 IR Inten    --      6.9067                 7.4498                86.4501

                     22                     23                     24
                      A                      A                      A
 Frequencies --   1042.5166              1105.7567              1128.9396
 Red. masses --      2.0150                 3.3159                 2.7838
 Frc consts  --      1.2903                 2.3887                 2.0904
 IR Inten    --      7.2950                 3.7795                76.2128

                     25                     26                     27
                      A                      A                      A
 Frequencies --   1155.3087              1161.4528              1181.7250
 Red. masses --      1.0973                 1.3680                 1.7086
 Frc consts  --      0.8629                 1.0873                 1.4058
 IR Inten    --      0.4161                 6.6333                 9.1113

                     28                     29                     30
                      A                      A                      A
 Frequencies --   1211.0026              1253.6763              1303.3499
 Red. masses --      2.0229                 1.1929                 1.2674
 Frc consts  --      1.7479                 1.1047                 1.2685
 IR Inten    --     19.5581                 8.1124                 0.3564

                     31                     32                     33
                      A                      A                      A
 Frequencies --   1309.9330              1322.5309              1364.9671
 Red. masses --      1.6442                 1.4343                 1.3235
 Frc consts  --      1.6623                 1.4781                 1.4529
 IR Inten    --      3.9939                13.2430                 3.5962

                     34                     35                     36
                      A                      A                      A
 Frequencies --   1377.8617              1409.9763              1425.6721
 Red. masses --      1.4636                 1.6094                 1.4905
 Frc consts  --      1.6371                 1.8851                 1.7850
 IR Inten    --      1.6102                 7.1430                 3.0734

                     37                     38                     39
                      A                      A                      A
 Frequencies --   1483.9695              1495.4235              1511.5642
 Red. masses --      1.0827                 1.0932                 1.0781
 Frc consts  --      1.4048                 1.4404                 1.4514
 IR Inten    --      0.7959                 2.9532                 1.0441

                     40                     41                     42
                      A                      A                      A
 Frequencies --   1536.0131              1717.4718              2930.5248
 Red. masses --      1.1104                 7.0350                 1.0728
 Frc consts  --      1.5436                12.2262                 5.4283
 IR Inten    --      1.1713                 0.3161                62.8603

                     43                     44                     45
                      A                      A                      A
 Frequencies --   2959.4903              2993.4031              3010.8228
 Red. masses --      1.0700                 1.0558                 1.0598
 Frc consts  --      5.5219                 5.5738                 5.6602
 IR Inten    --     51.4168               101.7332                30.4964

                     46                     47                     48
                      A                      A                      A
 Frequencies --   3044.0942              3052.2142              3062.8169
 Red. masses --      1.1076                 1.0865                 1.1077
 Frc consts  --      6.0473                 5.9639                 6.1225
 IR Inten    --     40.4548                29.0899                27.4241

                     49                     50                     51
                      A                      A                      A
 Frequencies --   3083.2676              3144.7520              3171.9145
 Red. masses --      1.0934                 1.0847                 1.0967
 Frc consts  --      6.1245                 6.3202                 6.5013
 IR Inten    --     32.3722                 7.6478                21.4988

 - Thermochemistry -
 -------------------
 Temperature   298.150 Kelvin.  Pressure   1.00000 Atm.
 Atom     1 has atomic number  6 and mass  12.00000

 Molecular mass:   126.06808 amu.
 Principal axes and moments of inertia in atomic units:
                           1         2         3
     Eigenvalues --   503.695791429.485641617.51366
           X            0.99998   0.00540   0.00194
           Y           -0.00544   0.99968   0.02471
           Z           -0.00181  -0.02472   0.99969
 This molecule is an asymmetric top.
 Rotational symmetry number  1.
 Warning -- assumption of classical behavior for rotation
           may cause significant error
 Rotational temperatures (Kelvin)      0.17196     0.06059     0.05355
 Rotational constants (GHZ):           3.58300     1.26251     1.11575
 Zero-point vibrational energy     422240.2 (Joules/Mol)
                                  100.91783 (Kcal/Mol)
 Warning -- explicit consideration of   9 degrees of freedom as
           vibrations may cause significant error
 Vibrational temperatures:    124.24   149.89   310.84   379.05   464.00
          (Kelvin)            547.64   608.03   684.71   755.27   948.51
                             1041.97  1182.69  1221.45  1297.08  1315.65
                             1384.50  1404.39  1429.81  1436.03  1447.80
                             1492.27  1499.95  1590.94  1624.29  1662.23
                             1671.07  1700.24  1742.36  1803.76  1875.23
                             1884.70  1902.82  1963.88  1982.43  2028.64
                             2051.22  2135.10  2151.58  2174.80  2209.98
                             2471.06  4216.37  4258.04  4306.83  4331.90
                             4379.77  4391.45  4406.70  4436.13  4524.59
                             4563.67

 Zero-point correction=                           0.160823 (Hartree/Particle)
 Thermal correction to Energy=                    0.168556
 Thermal correction to Enthalpy=                  0.169500
 Thermal correction to Gibbs Free Energy=         0.128309
 Sum of electronic and zero-point Energies=           -423.002480
 Sum of electronic and thermal Energies=              -422.994747
 Sum of electronic and thermal Enthalpies=            -422.993803
 Sum of electronic and thermal Free Energies=         -423.034993

                     E (Thermal)             CV                S
                      KCal/Mol        Cal/Mol-Kelvin    Cal/Mol-Kelvin
 Total                  105.770             29.748             86.693
 Electronic               0.000              0.000              0.000
 Translational            0.889              2.981             40.409
 Rotational               0.889              2.981             28.545
 Vibrational            103.993             23.787             17.739
 Vibration     1          0.601              1.959              3.741
 Vibration     2          0.605              1.946              3.375
 Vibration     3          0.645              1.817              1.992
 Vibration     4          0.670              1.740              1.639
 Vibration     5          0.708              1.630              1.297
 Vibration     6          0.750              1.511              1.037
 Vibration     7          0.785              1.421              0.883
 Vibration     8          0.833              1.304              0.721
 Vibration     9          0.880              1.195              0.599

 Optimization completed.
    -- Stationary point found.
 Normal termination of Gaussian 09 at Mon Jan 27 12:59:11 2020.
