 Gaussian 09, Revision D.01,
 Gaussian 09:  ES64L-G09RevD.01 24-Apr-2013

 -----------------------------
 # b3lyp 6-31G(2df,p) opt Freq
 -----------------------------

 -----
 titel
 -----
 Symbolic Z-matrix:
 Charge =  0 Multiplicity = 1

 SCF Done:  E(RB3LYP) =  -423.205858488     A.U. after   14 cycles
 Optimization completed.
    -- Stationary point found.
 Normal termination of Gaussian 09 at Mon Jan 27 16:07:15 2020.

 ----------------------------------------------------------------------
 #N Geom=AllCheck Guess=TCheck SCRF=Check GenChk RB3LYP/6-31G(2df,p) Fr
 eq
 ----------------------------------------------------------------------

 Structure from the checkpoint file:  "/scratch/puck/g09_34879c3b-97ac-4880-af00-0aadef2aeaeb/Gau-83580.chk"
 -----
 titel
 -----
 Charge =  0 Multiplicity = 1

                         Standard orientation:
 ---------------------------------------------------------------------
 Center     Atomic      Atomic             Coordinates (Angstroms)
 Number     Number       Type             X           Y           Z
 ---------------------------------------------------------------------
      1          6           0        1.268439   -0.012664    1.553005
      2          6           0        1.208084   -0.092657    0.045224
      3          8           0        2.433702   -0.457086   -0.534079
      4          6           0        0.441241    0.831018   -0.831115
      5          6           0       -0.649359    1.718832   -0.219632
      6          6           0       -1.721190    0.772125    0.366652
      7          6           0       -1.348934   -0.654535   -0.079544
      8          8           0       -2.061578   -1.622137    0.037626
      9          6           0       -0.009367   -0.627025   -0.737153
     10          1           0        1.504197   -0.995385    1.978629
     11          1           0        2.058988    0.682996    1.852140
     12          1           0        0.330745    0.318618    2.000999
     13          1           0        2.670530   -1.331622   -0.204308
     14          1           0        0.956717    1.179331   -1.718676
     15          1           0       -0.241539    2.406491    0.527913
     16          1           0       -1.082208    2.335937   -1.011590
     17          1           0       -1.787502    0.803340    1.458942
     18          1           0       -2.726709    0.992795   -0.001813
     19          1           0        0.206299   -1.369289   -1.495238
 ---------------------------------------------------------------------

 SCF Done:  E(RB3LYP) =  -423.205858488     A.U. after    1 cycles

 The electronic state is 1-A.
 Alpha  occ. eigenvalues --  -19.15246 -19.11916 -10.26207 -10.25793 -10.20095
 Alpha  occ. eigenvalues --  -10.19692 -10.19192 -10.19088 -10.19040  -1.04142
 Alpha  occ. eigenvalues --   -1.03016  -0.88064  -0.76920  -0.72970  -0.68705
 Alpha  occ. eigenvalues --   -0.61945  -0.55828  -0.53297  -0.52739  -0.47481
 Alpha  occ. eigenvalues --   -0.45902  -0.44449  -0.43518  -0.41609  -0.40493
 Alpha  occ. eigenvalues --   -0.39227  -0.38409  -0.37150  -0.35867  -0.34753
 Alpha  occ. eigenvalues --   -0.32178  -0.29176  -0.26046  -0.23387
 Alpha virt. eigenvalues --   -0.01302   0.06294   0.08591   0.10435   0.11874
 Alpha virt. eigenvalues --    0.12891   0.13851   0.14973   0.16455   0.17335
 Alpha virt. eigenvalues --    0.19124   0.20352   0.20925   0.21353   0.23077

 Mulliken charges:
               1
     1  C   -0.468560
     2  C    0.406120
     3  O   -0.459451
     4  C   -0.095974
     5  C   -0.248634
     6  C   -0.335840
     7  C    0.404313
     8  O   -0.333244
     9  C   -0.237957
    10  H    0.120228
    11  H    0.132770
    12  H    0.128599
    13  H    0.284512
    14  H    0.104978
    15  H    0.109434
    16  H    0.115179
    17  H    0.132291
    18  H    0.133678
    19  H    0.107558
 Sum of Mulliken charges =   0.00000

 Dipole moment (field-independent basis, Debye):
    X=              1.5326    Y=              1.6293    Z=              0.6613  Tot=              2.3326
 Quadrupole moment (field-independent basis, Debye-Ang):
   XX=            -58.2073   YY=            -53.9046   ZZ=            -51.3916
   XY=             -9.4108   XZ=              2.5262   YZ=             -0.0014

  Exact polarizability:  85.437  -0.199  76.108  -0.099  -0.144  66.180
 Approx polarizability: 123.344   8.232 117.970  -2.098  -1.032  97.540

                      1                      2                      3
                      A                      A                      A
 Frequencies --     92.3369               159.3860               186.2759
 Red. masses --      3.5864                 1.9531                 1.3006
 Frc consts  --      0.0180                 0.0292                 0.0266
 IR Inten    --      5.7017                 0.5616                 1.1438

                      4                      5                      6
                      A                      A                      A
 Frequencies --    208.6111               247.7334               327.4140
 Red. masses --      2.5466                 2.4381                 1.1851
 Frc consts  --      0.0653                 0.0882                 0.0749
 IR Inten    --      0.7909                 8.0547                87.3319

                      7                      8                      9
                      A                      A                      A
 Frequencies --    392.8937               408.3167               438.9440
 Red. masses --      3.5685                 4.7153                 2.6136
 Frc consts  --      0.3245                 0.4632                 0.2967
 IR Inten    --     19.3536                14.4014                 1.1945

                     10                     11                     12
                      A                      A                      A
 Frequencies --    489.9221               548.5121               603.8951
 Red. masses --      3.7833                 2.9003                 3.8801
 Frc consts  --      0.5350                 0.5141                 0.8337
 IR Inten    --      8.5599                 1.9738                 4.7858

                     13                     14                     15
                      A                      A                      A
 Frequencies --    662.0224               698.8097               790.5959
 Red. masses --      3.6482                 3.5213                 2.1565
 Frc consts  --      0.9421                 1.0132                 0.7941
 IR Inten    --      1.4773                 0.7250                 5.9795

                     16                     17                     18
                      A                      A                      A
 Frequencies --    825.6693               860.8237               903.0205
 Red. masses --      2.6530                 2.0829                 1.9480
 Frc consts  --      1.0656                 0.9094                 0.9359
 IR Inten    --      5.5150                 8.7522                25.2093

                     19                     20                     21
                      A                      A                      A
 Frequencies --    942.8945               970.9791              1011.3852
 Red. masses --      2.3877                 1.8626                 2.1652
 Frc consts  --      1.2507                 1.0347                 1.3049
 IR Inten    --     25.7429                 0.8312                13.3688

                     22                     23                     24
                      A                      A                      A
 Frequencies --   1025.6147              1037.4948              1070.2484
 Red. masses --      1.7471                 1.4595                 1.7742
 Frc consts  --      1.0828                 0.9256                 1.1973
 IR Inten    --     15.4914                23.2476                 5.1769

                     25                     26                     27
                      A                      A                      A
 Frequencies --   1097.7689              1158.9288              1164.0978
 Red. masses --      1.6718                 1.4870                 1.6700
 Frc consts  --      1.1870                 1.1768                 1.3334
 IR Inten    --      9.3833                 1.5018               137.7673

                     28                     29                     30
                      A                      A                      A
 Frequencies --   1190.7904              1242.0853              1259.6805
 Red. masses --      2.5078                 1.3922                 1.6155
 Frc consts  --      2.0951                 1.2655                 1.5104
 IR Inten    --     10.1130                 4.6133                57.6882

                     31                     32                     33
                      A                      A                      A
 Frequencies --   1265.5169              1284.5600              1323.5856
 Red. masses --      1.3631                 2.3305                 1.6805
 Frc consts  --      1.2862                 2.2657                 1.7346
 IR Inten    --     33.6691                29.0794                17.6610

                     34                     35                     36
                      A                      A                      A
 Frequencies --   1340.1102              1420.5338              1445.0843
 Red. masses --      1.4451                 1.2834                 2.2376
 Frc consts  --      1.5290                 1.5258                 2.7530
 IR Inten    --      8.1142                 4.8574                 9.2292

                     37                     38                     39
                      A                      A                      A
 Frequencies --   1458.7886              1483.9808              1500.2019
 Red. masses --      1.0788                 1.0588                 1.0837
 Frc consts  --      1.3527                 1.3738                 1.4370
 IR Inten    --      5.7591                 4.2050                 5.1454

                     40                     41                     42
                      A                      A                      A
 Frequencies --   1508.0128              1820.2574              3034.2343
 Red. masses --      1.2236                12.5003                 1.0412
 Frc consts  --      1.6394                24.4027                 5.6479
 IR Inten    --      3.7471               266.5180                24.5470

                     43                     44                     45
                      A                      A                      A
 Frequencies --   3050.6468              3062.2531              3084.9162
 Red. masses --      1.0614                 1.0635                 1.1022
 Frc consts  --      5.8196                 5.8756                 6.1804
 IR Inten    --     31.0572                10.3891                 4.8722

                     46                     47                     48
                      A                      A                      A
 Frequencies --   3094.5929              3105.1754              3142.3843
 Red. masses --      1.0985                 1.1013                 1.0967
 Frc consts  --      6.1981                 6.2566                 6.3805
 IR Inten    --     16.7882                22.3851                14.8869

                     49                     50                     51
                      A                      A                      A
 Frequencies --   3180.8479              3200.1105              3790.3756
 Red. masses --      1.0898                 1.0917                 1.0660
 Frc consts  --      6.4967                 6.5868                 9.0231
 IR Inten    --      6.6693                 2.8326                19.3582

 - Thermochemistry -
 -------------------
 Temperature   298.150 Kelvin.  Pressure   1.00000 Atm.
 Atom     1 has atomic number  6 and mass  12.00000

 Molecular mass:   126.06808 amu.
 Principal axes and moments of inertia in atomic units:
                           1         2         3
     Eigenvalues --   699.213591293.954851488.53647
           X            0.99815  -0.05896   0.01489
           Y            0.05889   0.99825   0.00524
           Z           -0.01518  -0.00435   0.99988
 This molecule is an asymmetric top.
 Rotational symmetry number  1.
 Warning -- assumption of classical behavior for rotation
           may cause significant error
 Rotational temperatures (Kelvin)      0.12387     0.06694     0.05819
 Rotational constants (GHZ):           2.58110     1.39475     1.21243
 Zero-point vibrational energy     416380.1 (Joules/Mol)
                                   99.51724 (Kcal/Mol)
 Warning -- explicit consideration of  12 degrees of freedom as
           vibrations may cause significant error
 Vibrational temperatures:    132.85   229.32   268.01   300.14   356.43
          (Kelvin)            471.08   565.29   587.48   631.54   704.89
                              789.19   868.87   952.50  1005.43  1137.49
                             1187.95  1238.53  1299.24  1356.61  1397.02
                             1455.16  1475.63  1492.72  1539.85  1579.44
                             1667.44  1674.88  1713.28  1787.08  1812.40
                             1820.79  1848.19  1904.34  1928.12  2043.83
                             2079.15  2098.87  2135.11  2158.45  2169.69
                             2618.94  4365.58  4389.19  4405.89  4438.50
                             4452.42  4467.65  4521.18  4576.52  4604.24
                             5453.50

 Zero-point correction=                           0.158591 (Hartree/Particle)
 Thermal correction to Energy=                    0.167192
 Thermal correction to Enthalpy=                  0.168136
 Thermal correction to Gibbs Free Energy=         0.125657
 Sum of electronic and zero-point Energies=           -423.047268
 Sum of electronic and thermal Energies=              -423.038666
 Sum of electronic and thermal Enthalpies=            -423.037722
 Sum of electronic and thermal Free Energies=         -423.080202

                     E (Thermal)             CV                S
                      KCal/Mol        Cal/Mol-Kelvin    Cal/Mol-Kelvin
 Total                  104.915             33.338             89.406
 Electronic               0.000              0.000              0.000
 Translational            0.889              2.981             40.409
 Rotational               0.889              2.981             28.689
 Vibrational            103.137             27.377             20.308
 Vibration     1          0.602              1.955              3.610
 Vibration     2          0.621              1.892              2.557
 Vibration     3          0.632              1.859              2.265
 Vibration     4          0.642              1.828              2.056
 Vibration     5          0.661              1.767              1.747
 Vibration     6          0.711              1.621              1.273
 Vibration     7          0.760              1.485              0.989
 Vibration     8          0.773              1.452              0.933
 Vibration     9          0.799              1.385              0.830
 Vibration    10          0.846              1.272              0.684
 Vibration    11          0.904              1.143              0.547
 Vibration    12          0.962              1.024              0.443

 Normal termination of Gaussian 09 at Mon Jan 27 16:54:41 2020.
