 Gaussian 09, Revision D.01,
 Gaussian 09:  ES64L-G09RevD.01 24-Apr-2013

 -----------------------------
 # b3lyp 6-31G(2df,p) opt Freq
 -----------------------------

 -----
 titel
 -----
 Symbolic Z-matrix:
 Charge =  0 Multiplicity = 1

 SCF Done:  E(RB3LYP) =  -423.154647459     A.U. after   13 cycles
 Optimization completed.
    -- Stationary point found.
 Normal termination of Gaussian 09 at Mon Jan 27 18:59:10 2020.

 ----------------------------------------------------------------------
 #N Geom=AllCheck Guess=TCheck SCRF=Check GenChk RB3LYP/6-31G(2df,p) Fr
 eq
 ----------------------------------------------------------------------

 Structure from the checkpoint file:  "/scratch/puck/g09_b268cf18-c7a6-44e7-809a-ac98287b85c7/Gau-70324.chk"
 -----
 titel
 -----
 Charge =  0 Multiplicity = 1

                         Standard orientation:
 ---------------------------------------------------------------------
 Center     Atomic      Atomic             Coordinates (Angstroms)
 Number     Number       Type             X           Y           Z
 ---------------------------------------------------------------------
      1          6           0       -2.176204   -0.755314    0.290552
      2          6           0       -0.690163   -0.510199    0.209687
      3          6           0        0.223489   -1.598097   -0.356947
      4          8           0        1.340543   -0.910064   -0.935591
      5          6           0        1.325711    0.402615   -0.399166
      6          6           0        1.455548    0.397799    1.161829
      7          6           0       -0.069783    0.454258    1.243008
      8          6           0       -0.166722    0.810729   -0.239665
      9          8           0       -0.918229    1.714638   -0.956688
     10          1           0       -2.704134    0.146083    0.613721
     11          1           0       -2.579805   -1.040967   -0.686732
     12          1           0       -2.410392   -1.557403    0.999263
     13          1           0        0.566975   -2.305233    0.411591
     14          1           0       -0.277614   -2.172342   -1.145689
     15          1           0        2.010428    1.026872   -0.972866
     16          1           0        1.973701   -0.468713    1.584363
     17          1           0        1.917566    1.314792    1.540198
     18          1           0       -0.665443    0.804669    2.078622
     19          1           0       -0.621054    2.604902   -0.740032
 ---------------------------------------------------------------------

 SCF Done:  E(RB3LYP) =  -423.154647459     A.U. after    1 cycles

 The electronic state is 1-A.
 Alpha  occ. eigenvalues --  -19.15630 -19.13091 -10.23276 -10.22963 -10.22121
 Alpha  occ. eigenvalues --  -10.19605 -10.19078 -10.18232 -10.18009  -1.04617
 Alpha  occ. eigenvalues --   -1.02704  -0.88132  -0.76915  -0.68981  -0.67300
 Alpha  occ. eigenvalues --   -0.62957  -0.57158  -0.53783  -0.52567  -0.47337
 Alpha  occ. eigenvalues --   -0.46811  -0.42499  -0.41876  -0.40850  -0.40162
 Alpha  occ. eigenvalues --   -0.38962  -0.38526  -0.37722  -0.35715  -0.32084
 Alpha  occ. eigenvalues --   -0.29496  -0.27509  -0.24640  -0.22815
 Alpha virt. eigenvalues --    0.06963   0.09749   0.10381   0.11227   0.12389
 Alpha virt. eigenvalues --    0.14847   0.15090   0.15595   0.16971   0.17241
 Alpha virt. eigenvalues --    0.17912   0.18460   0.19657   0.21400   0.21954

 Mulliken charges:
               1
     1  C   -0.492298
     2  C    0.264392
     3  C   -0.149337
     4  O   -0.263259
     5  C    0.013023
     6  C   -0.257137
     7  C   -0.205097
     8  C    0.330169
     9  O   -0.460107
    10  H    0.126354
    11  H    0.125816
    12  H    0.117674
    13  H    0.094454
    14  H    0.103519
    15  H    0.082274
    16  H    0.099764
    17  H    0.096267
    18  H    0.084626
    19  H    0.288902
 Sum of Mulliken charges =   0.00000

 Dipole moment (field-independent basis, Debye):
    X=             -0.4338    Y=              1.3664    Z=              1.5466  Tot=              2.1088
 Quadrupole moment (field-independent basis, Debye-Ang):
   XX=            -55.0243   YY=            -47.0719   ZZ=            -55.5045
   XY=              3.6332   XZ=              0.2192   YZ=             -0.3810

  Exact polarizability:  77.637   4.647  77.103   2.006   1.003  68.172
 Approx polarizability: 105.989   4.233 113.379   1.977   0.280 106.917

                      1                      2                      3
                      A                      A                      A
 Frequencies --    183.9150               195.9085               217.0700
 Red. masses --      1.0590                 2.8064                 2.9507
 Frc consts  --      0.0211                 0.0635                 0.0819
 IR Inten    --      0.6542                 0.9454                 3.3745

                      4                      5                      6
                      A                      A                      A
 Frequencies --    229.4804               312.7260               336.6933
 Red. masses --      2.9255                 1.5166                 1.8959
 Frc consts  --      0.0908                 0.0874                 0.1266
 IR Inten    --      3.7969                42.1690                12.6585

                      7                      8                      9
                      A                      A                      A
 Frequencies --    353.0745               436.7705               504.1815
 Red. masses --      2.4035                 3.1321                 2.5174
 Frc consts  --      0.1765                 0.3520                 0.3770
 IR Inten    --     43.0632                 4.0511                 0.7115

                     10                     11                     12
                      A                      A                      A
 Frequencies --    561.7109               656.8342               675.8495
 Red. masses --      4.1542                 4.3449                 5.1193
 Frc consts  --      0.7723                 1.1044                 1.3777
 IR Inten    --      1.2652                 5.5294                14.7914

                     13                     14                     15
                      A                      A                      A
 Frequencies --    717.0121               804.7452               845.0960
 Red. masses --      4.0034                 3.9060                 2.4470
 Frc consts  --      1.2126                 1.4904                 1.0297
 IR Inten    --      6.3965                 6.2146                 9.6118

                     16                     17                     18
                      A                      A                      A
 Frequencies --    910.7622               927.7047               942.8841
 Red. masses --      1.5459                 2.3197                 2.0368
 Frc consts  --      0.7555                 1.1763                 1.0669
 IR Inten    --      2.9508                 3.0666                 9.5122

                     19                     20                     21
                      A                      A                      A
 Frequencies --    980.1198               990.4985              1002.4316
 Red. masses --      2.9815                 1.5505                 1.4922
 Frc consts  --      1.6875                 0.8962                 0.8835
 IR Inten    --     21.6960                 2.8074                 5.6506

                     22                     23                     24
                      A                      A                      A
 Frequencies --   1050.1510              1073.9277              1095.6895
 Red. masses --      4.5287                 2.6253                 2.3076
 Frc consts  --      2.9426                 1.7840                 1.6322
 IR Inten    --     62.8048                16.8863                 6.8749

                     25                     26                     27
                      A                      A                      A
 Frequencies --   1129.3830              1135.2603              1164.1130
 Red. masses --      1.8289                 1.6939                 1.4553
 Frc consts  --      1.3745                 1.2862                 1.1619
 IR Inten    --      1.2443                 5.3180                14.2676

                     28                     29                     30
                      A                      A                      A
 Frequencies --   1210.1304              1227.1140              1244.1669
 Red. masses --      2.0580                 1.2719                 1.8181
 Frc consts  --      1.7757                 1.1285                 1.6582
 IR Inten    --     28.3379                 7.8374                 2.3480

                     31                     32                     33
                      A                      A                      A
 Frequencies --   1269.6436              1282.8783              1301.5326
 Red. masses --      1.8046                 1.7632                 1.5075
 Frc consts  --      1.7139                 1.7097                 1.5046
 IR Inten    --     34.1606                 6.5722                83.2158

                     34                     35                     36
                      A                      A                      A
 Frequencies --   1344.7384              1384.4817              1419.4857
 Red. masses --      1.7808                 1.6935                 1.3108
 Frc consts  --      1.8973                 1.9125                 1.5561
 IR Inten    --     19.5624                17.0352                 1.1783

                     37                     38                     39
                      A                      A                      A
 Frequencies --   1472.5101              1489.0289              1491.7982
 Red. masses --      1.7694                 1.0731                 1.1104
 Frc consts  --      2.2605                 1.4019                 1.4559
 IR Inten    --      5.6282                 1.9101                 7.4839

                     40                     41                     42
                      A                      A                      A
 Frequencies --   1509.5994              1528.2533              2997.1632
 Red. masses --      1.3943                 1.1326                 1.0637
 Frc consts  --      1.8721                 1.5585                 5.6296
 IR Inten    --     19.9100                 3.2394                62.2395

                     43                     44                     45
                      A                      A                      A
 Frequencies --   3031.3518              3043.0742              3045.7224
 Red. masses --      1.0373                 1.0593                 1.0965
 Frc consts  --      5.6161                 5.7794                 5.9931
 IR Inten    --     34.2980                23.2441                67.1816

                     46                     47                     48
                      A                      A                      A
 Frequencies --   3090.8678              3094.1828              3112.4710
 Red. masses --      1.1012                 1.1086                 1.0998
 Frc consts  --      6.1983                 6.2532                 6.2773
 IR Inten    --     22.0976                23.0527                16.0018

                     49                     50                     51
                      A                      A                      A
 Frequencies --   3123.9701              3174.5419              3798.7954
 Red. masses --      1.0907                 1.0924                 1.0662
 Frc consts  --      6.2713                 6.4864                 9.0656
 IR Inten    --     36.8485                16.5929                25.1674

 - Thermochemistry -
 -------------------
 Temperature   298.150 Kelvin.  Pressure   1.00000 Atm.
 Atom     1 has atomic number  6 and mass  12.00000

 Molecular mass:   126.06808 amu.
 Principal axes and moments of inertia in atomic units:
                           1         2         3
     Eigenvalues --   790.40522 961.155631158.41187
           X            0.98953   0.14358   0.01437
           Y           -0.14380   0.98949   0.01524
           Z           -0.01203  -0.01715   0.99978
 This molecule is an asymmetric top.
 Rotational symmetry number  1.
 Warning -- assumption of classical behavior for rotation
           may cause significant error
 Rotational temperatures (Kelvin)      0.10958     0.09011     0.07477
 Rotational constants (GHZ):           2.28331     1.87768     1.55794
 Zero-point vibrational energy     419419.7 (Joules/Mol)
                                  100.24371 (Kcal/Mol)
 Warning -- explicit consideration of  10 degrees of freedom as
           vibrations may cause significant error
 Vibrational temperatures:    264.61   281.87   312.31   330.17   449.94
          (Kelvin)            484.43   507.99   628.41   725.40   808.18
                              945.04   972.40  1031.62  1157.85  1215.90
                             1310.38  1334.76  1356.60  1410.17  1425.10
                             1442.27  1510.93  1545.14  1576.45  1624.93
                             1633.38  1674.90  1741.11  1765.54  1790.08
                             1826.73  1845.77  1872.61  1934.78  1991.96
                             2042.32  2118.61  2142.38  2146.36  2171.97
                             2198.81  4312.24  4361.43  4378.30  4382.11
                             4447.06  4451.83  4478.15  4494.69  4567.45
                             5465.61

 Zero-point correction=                           0.159749 (Hartree/Particle)
 Thermal correction to Energy=                    0.167643
 Thermal correction to Enthalpy=                  0.168587
 Thermal correction to Gibbs Free Energy=         0.127989
 Sum of electronic and zero-point Energies=           -422.994899
 Sum of electronic and thermal Energies=              -422.987004
 Sum of electronic and thermal Enthalpies=            -422.986060
 Sum of electronic and thermal Free Energies=         -423.026658

                     E (Thermal)             CV                S
                      KCal/Mol        Cal/Mol-Kelvin    Cal/Mol-Kelvin
 Total                  105.198             31.607             85.446
 Electronic               0.000              0.000              0.000
 Translational            0.889              2.981             40.409
 Rotational               0.889              2.981             28.267
 Vibrational            103.420             25.645             16.771
 Vibration     1          0.631              1.862              2.288
 Vibration     2          0.636              1.846              2.171
 Vibration     3          0.646              1.815              1.983
 Vibration     4          0.652              1.796              1.883
 Vibration     5          0.701              1.649              1.348
 Vibration     6          0.717              1.602              1.228
 Vibration     7          0.729              1.569              1.152
 Vibration     8          0.797              1.390              0.837
 Vibration     9          0.859              1.241              0.648
 Vibration    10          0.917              1.114              0.520

 Normal termination of Gaussian 09 at Mon Jan 27 19:47:07 2020.
