 Gaussian 09, Revision D.01,
 Gaussian 09:  ES64L-G09RevD.01 24-Apr-2013

 -----------------------------
 # b3lyp 6-31G(2df,p) opt Freq
 -----------------------------

 -----
 titel
 -----
 Symbolic Z-matrix:
 Charge =  0 Multiplicity = 1

 SCF Done:  E(RB3LYP) =  -423.137380468     A.U. after   13 cycles
 Optimization completed.
    -- Stationary point found.
 Normal termination of Gaussian 09 at Tue Jan 28 08:11:13 2020.

 ----------------------------------------------------------------------
 #N Geom=AllCheck Guess=TCheck SCRF=Check GenChk RB3LYP/6-31G(2df,p) Fr
 eq
 ----------------------------------------------------------------------

 Structure from the checkpoint file:  "/scratch/puck/g09_c6251ab8-1692-46c0-a2e2-880a7b439c07/Gau-54956.chk"
 -----
 titel
 -----
 Charge =  0 Multiplicity = 1

                         Standard orientation:
 ---------------------------------------------------------------------
 Center     Atomic      Atomic             Coordinates (Angstroms)
 Number     Number       Type             X           Y           Z
 ---------------------------------------------------------------------
      1          8           0       -2.330193   -1.038106   -0.264458
      2          6           0       -1.309898   -0.324115    0.423499
      3          6           0       -1.324132    1.091571   -0.158335
      4          8           0       -0.104739    1.773026    0.090469
      5          6           0        1.030740    0.968252   -0.075311
      6          6           0        1.269155   -0.208303    0.918692
      7          6           0        2.197125   -0.819005   -0.162915
      8          6           0        0.954587   -0.327503   -0.949427
      9          6           0        0.076666   -0.920581    0.206088
     10          1           0       -2.391202   -1.917181    0.122256
     11          1           0       -1.524335   -0.294526    1.504333
     12          1           0       -1.498035    0.992846   -1.240097
     13          1           0       -2.124992    1.703247    0.262805
     14          1           0        1.877837    1.636682   -0.248716
     15          1           0        1.446531   -0.139731    1.993186
     16          1           0        3.141299   -0.301009   -0.354711
     17          1           0        2.337051   -1.901672   -0.119153
     18          1           0        0.780784   -0.404842   -2.023049
     19          1           0        0.069059   -2.015079    0.281302
 ---------------------------------------------------------------------

 SCF Done:  E(RB3LYP) =  -423.137380468     A.U. after    1 cycles

 The electronic state is 1-A.
 Alpha  occ. eigenvalues --  -19.13861 -19.13835 -10.23578 -10.23044 -10.22184
 Alpha  occ. eigenvalues --  -10.19969 -10.19677 -10.19519 -10.19098  -1.04048
 Alpha  occ. eigenvalues --   -1.01800  -0.90659  -0.75767  -0.68099  -0.64039
 Alpha  occ. eigenvalues --   -0.63210  -0.60481  -0.52143  -0.51011  -0.50023
 Alpha  occ. eigenvalues --   -0.49093  -0.47077  -0.42683  -0.39359  -0.38122
 Alpha  occ. eigenvalues --   -0.37950  -0.37255  -0.34573  -0.33049  -0.31959
 Alpha  occ. eigenvalues --   -0.30654  -0.28639  -0.26537  -0.24084
 Alpha virt. eigenvalues --    0.07296   0.10686   0.11023   0.12092   0.13368
 Alpha virt. eigenvalues --    0.14123   0.14348   0.14953   0.15804   0.17188
 Alpha virt. eigenvalues --    0.17330   0.18896   0.19024   0.20987   0.22805

 Mulliken charges:
               1
     1  O   -0.433145
     2  C    0.060787
     3  C   -0.078235
     4  O   -0.283675
     5  C    0.171539
     6  C   -0.101192
     7  C   -0.242098
     8  C   -0.108961
     9  C   -0.018260
    10  H    0.282458
    11  H    0.067403
    12  H    0.106143
    13  H    0.110825
    14  H    0.078316
    15  H    0.070691
    16  H    0.092910
    17  H    0.095424
    18  H    0.078523
    19  H    0.050545
 Sum of Mulliken charges =   0.00000

 Dipole moment (field-independent basis, Debye):
    X=              0.6048    Y=             -1.8282    Z=              0.7098  Tot=              2.0523
 Quadrupole moment (field-independent basis, Debye-Ang):
   XX=            -53.5407   YY=            -52.9192   ZZ=            -52.8039
   XY=              1.4079   XZ=             -2.5279   YZ=             -1.8931

  Exact polarizability:  85.283  -1.002  73.147  -0.567  -0.724  65.695
 Approx polarizability: 114.245   1.081 110.252   1.102   0.159 104.630

                      1                      2                      3
                      A                      A                      A
 Frequencies --    141.3114               214.9553               246.3320
 Red. masses --      3.4073                 2.7302                 1.0807
 Frc consts  --      0.0401                 0.0743                 0.0386
 IR Inten    --      1.2629                 1.8495               102.6954

                      4                      5                      6
                      A                      A                      A
 Frequencies --    322.2717               383.7359               446.4727
 Red. masses --      3.5067                 4.1464                 2.8393
 Frc consts  --      0.2146                 0.3597                 0.3335
 IR Inten    --     14.1051                 2.8316                 1.9731

                      7                      8                      9
                      A                      A                      A
 Frequencies --    470.3286               498.5329               589.5159
 Red. masses --      3.7409                 5.6397                 4.0446
 Frc consts  --      0.4876                 0.8258                 0.8282
 IR Inten    --      2.9308                 1.1669                 7.4835

                     10                     11                     12
                      A                      A                      A
 Frequencies --    680.4884               776.4993               816.8364
 Red. masses --      3.5738                 2.8657                 2.8131
 Frc consts  --      0.9750                 1.0180                 1.1059
 IR Inten    --      1.8393                 1.8331                 1.2651

                     13                     14                     15
                      A                      A                      A
 Frequencies --    867.6188               893.7190               904.4525
 Red. masses --      2.3163                 1.9745                 2.0642
 Frc consts  --      1.0273                 0.9292                 0.9949
 IR Inten    --      1.3602                 4.1958                 2.1399

                     16                     17                     18
                      A                      A                      A
 Frequencies --    946.4378               973.4013               983.4963
 Red. masses --      2.2373                 2.3674                 2.8941
 Frc consts  --      1.1808                 1.3216                 1.6493
 IR Inten    --      3.7498                17.4903                42.8120

                     19                     20                     21
                      A                      A                      A
 Frequencies --   1010.4317              1051.0917              1061.5910
 Red. masses --      1.0661                 1.6184                 1.6280
 Frc consts  --      0.6413                 1.0535                 1.0810
 IR Inten    --      0.6987                 6.7840                 9.5067

                     22                     23                     24
                      A                      A                      A
 Frequencies --   1080.7581              1092.3653              1106.5452
 Red. masses --      2.9402                 1.8896                 2.5300
 Frc consts  --      2.0234                 1.3285                 1.8252
 IR Inten    --     74.3403                11.0094                 2.8081

                     25                     26                     27
                      A                      A                      A
 Frequencies --   1111.4404              1135.6165              1168.8657
 Red. masses --      1.9367                 2.1041                 3.3125
 Frc consts  --      1.4096                 1.5988                 2.6664
 IR Inten    --     11.7192                12.5247                95.1456

                     28                     29                     30
                      A                      A                      A
 Frequencies --   1173.4234              1206.3548              1233.0190
 Red. masses --      1.6488                 1.4492                 1.2215
 Frc consts  --      1.3376                 1.2426                 1.0942
 IR Inten    --     23.7749                 0.2842                15.4141

                     31                     32                     33
                      A                      A                      A
 Frequencies --   1241.5922              1245.6351              1261.9022
 Red. masses --      1.6919                 1.6547                 1.7255
 Frc consts  --      1.5367                 1.5127                 1.6189
 IR Inten    --      9.6653                10.7155                20.0211

                     34                     35                     36
                      A                      A                      A
 Frequencies --   1284.4344              1337.9089              1362.2144
 Red. masses --      1.2877                 1.4939                 1.2305
 Frc consts  --      1.2517                 1.5756                 1.3453
 IR Inten    --     30.0446                 1.1272                 9.5965

                     37                     38                     39
                      A                      A                      A
 Frequencies --   1379.6988              1416.5039              1449.6970
 Red. masses --      1.4283                 1.3308                 1.5687
 Frc consts  --      1.6019                 1.5733                 1.9424
 IR Inten    --     20.1069                23.5551                 6.7190

                     40                     41                     42
                      A                      A                      A
 Frequencies --   1509.4116              1518.2247              2964.5689
 Red. masses --      1.0874                 1.1372                 1.0825
 Frc consts  --      1.4597                 1.5444                 5.6053
 IR Inten    --      2.1821                 2.5906                43.5880

                     43                     44                     45
                      A                      A                      A
 Frequencies --   3002.1327              3028.7328              3051.5659
 Red. masses --      1.0687                 1.0850                 1.0547
 Frc consts  --      5.6752                 5.8641                 5.7867
 IR Inten    --     45.8784                55.7063                48.4168

                     46                     47                     48
                      A                      A                      A
 Frequencies --   3082.5135              3101.5603              3104.6641
 Red. masses --      1.0858                 1.0911                 1.0954
 Frc consts  --      6.0786                 6.1842                 6.2207
 IR Inten    --     44.0807                66.0351                47.2697

                     49                     50                     51
                      A                      A                      A
 Frequencies --   3111.9167              3117.2142              3819.7780
 Red. masses --      1.0942                 1.1097                 1.0663
 Frc consts  --      6.2430                 6.3532                 9.1664
 IR Inten    --     23.3471                33.5232                18.8751

 - Thermochemistry -
 -------------------
 Temperature   298.150 Kelvin.  Pressure   1.00000 Atm.
 Atom     1 has atomic number  8 and mass  15.99491

 Molecular mass:   126.06808 amu.
 Principal axes and moments of inertia in atomic units:
                           1         2         3
     Eigenvalues --   608.896001086.305991425.00246
           X            0.99970  -0.02307  -0.00767
           Y            0.02295   0.99961  -0.01609
           Z            0.00804   0.01591   0.99984
 This molecule is an asymmetric top.
 Rotational symmetry number  1.
 Warning -- assumption of classical behavior for rotation
           may cause significant error
 Rotational temperatures (Kelvin)      0.14225     0.07973     0.06078
 Rotational constants (GHZ):           2.96396     1.66136     1.26648
 Zero-point vibrational energy     424553.4 (Joules/Mol)
                                  101.47069 (Kcal/Mol)
 Warning -- explicit consideration of   9 degrees of freedom as
           vibrations may cause significant error
 Vibrational temperatures:    203.32   309.27   354.42   463.68   552.11
          (Kelvin)            642.37   676.70   717.28   848.18   979.07
                             1117.21  1175.24  1248.31  1285.86  1301.30
                             1361.71  1400.51  1415.03  1453.78  1512.28
                             1527.39  1554.97  1571.67  1592.07  1599.11
                             1633.90  1681.73  1688.29  1735.67  1774.04
                             1786.37  1792.19  1815.59  1848.01  1924.95
                             1959.92  1985.08  2038.03  2085.79  2171.70
                             2184.38  4265.35  4319.39  4357.67  4390.52
                             4435.04  4462.45  4466.91  4477.35  4484.97
                             5495.80

 Zero-point correction=                           0.161704 (Hartree/Particle)
 Thermal correction to Energy=                    0.168810
 Thermal correction to Enthalpy=                  0.169754
 Thermal correction to Gibbs Free Energy=         0.130434
 Sum of electronic and zero-point Energies=           -422.975677
 Sum of electronic and thermal Energies=              -422.968571
 Sum of electronic and thermal Enthalpies=            -422.967627
 Sum of electronic and thermal Free Energies=         -423.006946

                     E (Thermal)             CV                S
                      KCal/Mol        Cal/Mol-Kelvin    Cal/Mol-Kelvin
 Total                  105.930             29.155             82.756
 Electronic               0.000              0.000              0.000
 Translational            0.889              2.981             40.409
 Rotational               0.889              2.981             28.335
 Vibrational            104.152             23.194             14.012
 Vibration     1          0.615              1.912              2.786
 Vibration     2          0.645              1.818              2.001
 Vibration     3          0.661              1.769              1.757
 Vibration     4          0.707              1.631              1.299
 Vibration     5          0.753              1.505              1.024
 Vibration     6          0.806              1.369              0.807
 Vibration     7          0.827              1.316              0.737
 Vibration     8          0.854              1.253              0.662
 Vibration     9          0.947              1.054              0.468

 Optimization completed.
    -- Stationary point found.
 Normal termination of Gaussian 09 at Tue Jan 28 09:00:32 2020.
