 Gaussian 09, Revision D.01,
 Gaussian 09:  ES64L-G09RevD.01 24-Apr-2013

 -----------------------------
 # b3lyp 6-31G(2df,p) opt Freq
 -----------------------------

 -----
 titel
 -----
 Symbolic Z-matrix:
 Charge =  0 Multiplicity = 1

 SCF Done:  E(RB3LYP) =  -423.132178443     A.U. after   14 cycles
 Optimization completed.
    -- Stationary point found.
 Normal termination of Gaussian 09 at Tue Jan 28 03:25:06 2020.

 ----------------------------------------------------------------------
 #N Geom=AllCheck Guess=TCheck SCRF=Check GenChk RB3LYP/6-31G(2df,p) Fr
 eq
 ----------------------------------------------------------------------

 Structure from the checkpoint file:  "/scratch/puck/g09_7a91220b-3336-47ff-af56-cb7531b32ca3/Gau-89270.chk"
 -----
 titel
 -----
 Charge =  0 Multiplicity = 1

                         Standard orientation:
 ---------------------------------------------------------------------
 Center     Atomic      Atomic             Coordinates (Angstroms)
 Number     Number       Type             X           Y           Z
 ---------------------------------------------------------------------
      1          6           0        2.590783   -1.098334    0.137681
      2          6           0        1.310353   -0.448999   -0.346860
      3          8           0        1.471517    0.989336   -0.523950
      4          6           0        0.466538    1.278900    0.460210
      5          6           0       -0.947850    1.455334   -0.155355
      6          6           0       -1.192447   -0.043061    0.098889
      7          6           0       -2.439675   -0.740108    0.413422
      8          8           0       -1.765667   -0.938902   -0.837519
      9          6           0        0.197822   -0.237482    0.705363
     10          1           0        2.918627   -0.660378    1.085766
     11          1           0        2.442710   -2.174475    0.280719
     12          1           0        3.387271   -0.955451   -0.599182
     13          1           0        0.962933   -0.921834   -1.273597
     14          1           0        0.800138    1.997066    1.212057
     15          1           0       -1.613418    2.114315    0.409896
     16          1           0       -0.933750    1.758552   -1.204379
     17          1           0       -2.430392   -1.594516    1.089691
     18          1           0       -3.387411   -0.205720    0.352746
     19          1           0        0.293363   -0.758531    1.657934
 ---------------------------------------------------------------------

 SCF Done:  E(RB3LYP) =  -423.132178443     A.U. after    1 cycles

 The electronic state is 1-A.
 Alpha  occ. eigenvalues --  -19.15272 -19.13034 -10.24472 -10.23734 -10.23521
 Alpha  occ. eigenvalues --  -10.23517 -10.19217 -10.18499 -10.17725  -1.07411
 Alpha  occ. eigenvalues --   -1.03794  -0.82000  -0.75880  -0.68069  -0.66689
 Alpha  occ. eigenvalues --   -0.62790  -0.58163  -0.51870  -0.51318  -0.49973
 Alpha  occ. eigenvalues --   -0.48118  -0.46265  -0.43035  -0.41112  -0.40175
 Alpha  occ. eigenvalues --   -0.39052  -0.37690  -0.35454  -0.34956  -0.32620
 Alpha  occ. eigenvalues --   -0.29553  -0.28335  -0.26437  -0.24542
 Alpha virt. eigenvalues --    0.06238   0.08527   0.10245   0.10837   0.11858
 Alpha virt. eigenvalues --    0.12876   0.14076   0.14880   0.16081   0.16444
 Alpha virt. eigenvalues --    0.16774   0.17135   0.18959   0.20002   0.21575

 Mulliken charges:
               1
     1  C   -0.410704
     2  C    0.155918
     3  O   -0.310987
     4  C    0.118404
     5  C   -0.338879
     6  C    0.448676
     7  C   -0.270977
     8  O   -0.266338
     9  C   -0.206087
    10  H    0.118352
    11  H    0.116977
    12  H    0.128879
    13  H    0.096505
    14  H    0.079188
    15  H    0.107021
    16  H    0.126215
    17  H    0.114879
    18  H    0.116663
    19  H    0.076295
 Sum of Mulliken charges =   0.00000

 Dipole moment (field-independent basis, Debye):
    X=             -0.6897    Y=             -0.1617    Z=              2.3079  Tot=              2.4141
 Quadrupole moment (field-independent basis, Debye-Ang):
   XX=            -52.4680   YY=            -52.9331   ZZ=            -53.6376
   XY=             -4.1199   XZ=             -1.8865   YZ=             -0.3472

  Exact polarizability:  88.751  -1.946  75.093  -1.932  -0.692  62.929
 Approx polarizability: 112.237   1.821 108.965  -3.879   1.049 100.932

                      1                      2                      3
                      A                      A                      A
 Frequencies --     73.3255               121.8693               219.0215
 Red. masses --      3.7765                 3.6703                 2.3254
 Frc consts  --      0.0120                 0.0321                 0.0657
 IR Inten    --      1.8174                 2.6009                 1.1407

                      4                      5                      6
                      A                      A                      A
 Frequencies --    237.9684               296.5533               344.6727
 Red. masses --      1.0928                 2.8656                 2.8968
 Frc consts  --      0.0365                 0.1485                 0.2028
 IR Inten    --      0.0578                 0.7309                 1.3216

                      7                      8                      9
                      A                      A                      A
 Frequencies --    376.6663               418.2090               510.8468
 Red. masses --      2.3803                 3.5333                 2.9609
 Frc consts  --      0.1990                 0.3641                 0.4553
 IR Inten    --      1.6464                 6.8111                 1.5318

                     10                     11                     12
                      A                      A                      A
 Frequencies --    551.3800               748.0841               805.9238
 Red. masses --      5.4002                 2.6075                 2.2159
 Frc consts  --      0.9673                 0.8598                 0.8480
 IR Inten    --      6.1069                 2.5057                 9.9847

                     13                     14                     15
                      A                      A                      A
 Frequencies --    828.1676               852.4494               854.4593
 Red. masses --      1.7918                 2.9643                 2.3057
 Frc consts  --      0.7241                 1.2691                 0.9918
 IR Inten    --     13.1610                15.5658                11.3869

                     16                     17                     18
                      A                      A                      A
 Frequencies --    888.4163               911.7276               950.5614
 Red. masses --      2.3701                 2.7188                 2.0844
 Frc consts  --      1.1022                 1.3315                 1.1097
 IR Inten    --     13.3016                12.1084                 2.2460

                     19                     20                     21
                      A                      A                      A
 Frequencies --    961.2633              1007.9079              1041.9906
 Red. masses --      3.5943                 2.5352                 3.4173
 Frc consts  --      1.9568                 1.5174                 2.1860
 IR Inten    --     24.6101                10.1551                82.1956

                     22                     23                     24
                      A                      A                      A
 Frequencies --   1077.8249              1090.8910              1117.5145
 Red. masses --      1.6463                 1.6358                 1.9251
 Frc consts  --      1.1268                 1.1469                 1.4164
 IR Inten    --     15.2315                 8.0541                 4.8222

                     25                     26                     27
                      A                      A                      A
 Frequencies --   1127.3921              1139.5403              1147.9768
 Red. masses --      1.3317                 2.2339                 1.6508
 Frc consts  --      0.9972                 1.7091                 1.2817
 IR Inten    --      1.7380                 5.9105                 0.6943

                     28                     29                     30
                      A                      A                      A
 Frequencies --   1171.9419              1188.7175              1221.6822
 Red. masses --      1.5789                 1.6729                 1.4976
 Frc consts  --      1.2777                 1.3928                 1.3170
 IR Inten    --      3.2781                 9.9503                 2.3415

                     31                     32                     33
                      A                      A                      A
 Frequencies --   1249.7984              1264.1887              1290.7424
 Red. masses --      1.6115                 2.0055                 1.4002
 Frc consts  --      1.4831                 1.8884                 1.3744
 IR Inten    --      1.1919                 9.9665                 6.0521

                     34                     35                     36
                      A                      A                      A
 Frequencies --   1336.0690              1387.8978              1403.1923
 Red. masses --      1.4894                 1.3403                 1.3614
 Frc consts  --      1.5665                 1.5211                 1.5794
 IR Inten    --     20.6911                10.3048                12.7461

                     37                     38                     39
                      A                      A                      A
 Frequencies --   1429.5526              1456.7696              1481.5895
 Red. masses --      1.8444                 1.2774                 1.0541
 Frc consts  --      2.2208                 1.5972                 1.3633
 IR Inten    --     21.2264                 5.3081                 3.3040

                     40                     41                     42
                      A                      A                      A
 Frequencies --   1492.0561              1533.3060              3031.3170
 Red. masses --      1.0491                 1.5490                 1.0418
 Frc consts  --      1.3761                 2.1456                 5.6405
 IR Inten    --      2.3709                 6.4082                17.6699

                     43                     44                     45
                      A                      A                      A
 Frequencies --   3033.5059              3057.8927              3076.0003
 Red. masses --      1.0773                 1.0608                 1.0502
 Frc consts  --      5.8411                 5.8440                 5.8548
 IR Inten    --     24.9745                15.7837                28.4171

                     46                     47                     48
                      A                      A                      A
 Frequencies --   3086.4077              3105.6199              3110.6169
 Red. masses --      1.0885                 1.1010                 1.0972
 Frc consts  --      6.1090                 6.2566                 6.2550
 IR Inten    --     48.9300                22.0103                 5.3291

                     49                     50                     51
                      A                      A                      A
 Frequencies --   3113.4951              3124.1188              3162.4944
 Red. masses --      1.0957                 1.1058                 1.1194
 Frc consts  --      6.2580                 6.3588                 6.5964
 IR Inten    --     40.7275                11.6981                22.4285

 - Thermochemistry -
 -------------------
 Temperature   298.150 Kelvin.  Pressure   1.00000 Atm.
 Atom     1 has atomic number  6 and mass  12.00000

 Molecular mass:   126.06808 amu.
 Principal axes and moments of inertia in atomic units:
                           1         2         3
     Eigenvalues --   567.451781342.452851634.08862
           X            0.99884  -0.04806  -0.00358
           Y            0.04799   0.99869  -0.01780
           Z            0.00443   0.01760   0.99984
 This molecule is an asymmetric top.
 Rotational symmetry number  1.
 Warning -- assumption of classical behavior for rotation
           may cause significant error
 Rotational temperatures (Kelvin)      0.15264     0.06452     0.05300
 Rotational constants (GHZ):           3.18043     1.34436     1.10443
 Zero-point vibrational energy     415771.6 (Joules/Mol)
                                   99.37179 (Kcal/Mol)
 Warning -- explicit consideration of  10 degrees of freedom as
           vibrations may cause significant error
 Vibrational temperatures:    105.50   175.34   315.12   342.38   426.67
          (Kelvin)            495.91   541.94   601.71   734.99   793.31
                             1076.32  1159.54  1191.55  1226.48  1229.37
                             1278.23  1311.77  1367.64  1383.04  1450.15
                             1499.19  1550.75  1569.55  1607.85  1622.06
                             1639.54  1651.68  1686.16  1710.30  1757.73
                             1798.18  1818.88  1857.09  1922.30  1996.87
                             2018.88  2056.80  2095.96  2131.67  2146.73
                             2206.08  4361.38  4364.53  4399.62  4425.67
                             4440.65  4468.29  4475.48  4479.62  4494.90
                             4550.12

 Zero-point correction=                           0.158359 (Hartree/Particle)
 Thermal correction to Energy=                    0.166445
 Thermal correction to Enthalpy=                  0.167389
 Thermal correction to Gibbs Free Energy=         0.125560
 Sum of electronic and zero-point Energies=           -422.973819
 Sum of electronic and thermal Energies=              -422.965734
 Sum of electronic and thermal Enthalpies=            -422.964790
 Sum of electronic and thermal Free Energies=         -423.006618

                     E (Thermal)             CV                S
                      KCal/Mol        Cal/Mol-Kelvin    Cal/Mol-Kelvin
 Total                  104.446             31.186             88.036
 Electronic               0.000              0.000              0.000
 Translational            0.889              2.981             40.409
 Rotational               0.889              2.981             28.611
 Vibrational            102.668             25.224             19.016
 Vibration     1          0.599              1.967              4.062
 Vibration     2          0.609              1.931              3.071
 Vibration     3          0.647              1.812              1.967
 Vibration     4          0.656              1.783              1.818
 Vibration     5          0.690              1.680              1.436
 Vibration     6          0.723              1.586              1.190
 Vibration     7          0.747              1.520              1.053
 Vibration     8          0.781              1.431              0.898
 Vibration     9          0.866              1.226              0.632
 Vibration    10          0.907              1.137              0.541

 Normal termination of Gaussian 09 at Tue Jan 28 04:07:12 2020.
