 Gaussian 09, Revision D.01,
 Gaussian 09:  ES64L-G09RevD.01 24-Apr-2013

 -----------------------------
 # b3lyp 6-31G(2df,p) opt Freq
 -----------------------------

 -----
 titel
 -----
 Symbolic Z-matrix:
 Charge =  0 Multiplicity = 1

 SCF Done:  E(RB3LYP) =  -423.205730393     A.U. after   14 cycles
 Optimization completed.
    -- Stationary point found.
 Normal termination of Gaussian 09 at Tue Jan 28 14:09:30 2020.

 ----------------------------------------------------------------------
 #N Geom=AllCheck Guess=TCheck SCRF=Check GenChk RB3LYP/6-31G(2df,p) Fr
 eq
 ----------------------------------------------------------------------

 Structure from the checkpoint file:  "/scratch/puck/g09_46841909-8399-46e5-84ab-4ee93cad454a/Gau-147365.chk"
 -----
 titel
 -----
 Charge =  0 Multiplicity = 1

                         Standard orientation:
 ---------------------------------------------------------------------
 Center     Atomic      Atomic             Coordinates (Angstroms)
 Number     Number       Type             X           Y           Z
 ---------------------------------------------------------------------
      1          6           0        3.610555   -0.425299   -0.173562
      2          8           0        2.222567   -0.376845   -0.403979
      3          6           0        1.556747    0.534959    0.449862
      4          6           0        0.086708    0.445118    0.197839
      5          6           0       -0.737230    1.465043   -0.060368
      6          6           0       -2.167877    1.036401   -0.230624
      7          6           0       -2.105905   -0.487725   -0.020357
      8          8           0       -3.042970   -1.240255   -0.046853
      9          6           0       -0.641668   -0.874496    0.235462
     10          1           0        3.842863   -0.735679    0.857792
     11          1           0        4.031173   -1.157503   -0.866749
     12          1           0        4.089718    0.550216   -0.352884
     13          1           0        1.776439    0.281767    1.504262
     14          1           0        1.914844    1.564384    0.283721
     15          1           0       -0.420941    2.499500   -0.141607
     16          1           0       -2.860134    1.488352    0.491642
     17          1           0       -2.578629    1.259211   -1.224163
     18          1           0       -0.550779   -1.401269    1.194755
     19          1           0       -0.289298   -1.576188   -0.529631
 ---------------------------------------------------------------------

 SCF Done:  E(RB3LYP) =  -423.205730393     A.U. after    1 cycles

 The electronic state is 1-A.
 Alpha  occ. eigenvalues --  -19.14665 -19.12796 -10.26842 -10.23852 -10.22930
 Alpha  occ. eigenvalues --  -10.19599 -10.19402 -10.19064 -10.19050  -1.03967
 Alpha  occ. eigenvalues --   -1.03889  -0.85085  -0.75299  -0.71651  -0.68272
 Alpha  occ. eigenvalues --   -0.63392  -0.54296  -0.53882  -0.49057  -0.48792
 Alpha  occ. eigenvalues --   -0.47259  -0.46254  -0.43643  -0.41639  -0.41142
 Alpha  occ. eigenvalues --   -0.40750  -0.39136  -0.37313  -0.35911  -0.35260
 Alpha  occ. eigenvalues --   -0.32532  -0.26422  -0.25052  -0.23882
 Alpha virt. eigenvalues --   -0.01417   0.00805   0.08729   0.10987   0.12645
 Alpha virt. eigenvalues --    0.13318   0.13892   0.15071   0.15788   0.16458
 Alpha virt. eigenvalues --    0.17797   0.17992   0.18180   0.19807   0.22583

 Mulliken charges:
               1
     1  C   -0.221151
     2  O   -0.235363
     3  C   -0.177502
     4  C    0.329959
     5  C   -0.188694
     6  C   -0.366122
     7  C    0.393343
     8  O   -0.302066
     9  C   -0.411971
    10  H    0.104591
    11  H    0.130192
    12  H    0.105368
    13  H    0.091296
    14  H    0.092636
    15  H    0.096704
    16  H    0.136308
    17  H    0.139136
    18  H    0.131321
    19  H    0.152012
 Sum of Mulliken charges =   0.00000

 Dipole moment (field-independent basis, Debye):
    X=              2.7509    Y=              2.0900    Z=              0.7606  Tot=              3.5375
 Quadrupole moment (field-independent basis, Debye-Ang):
   XX=            -56.7198   YY=            -53.2754   ZZ=            -52.5297
   XY=             -6.3410   XZ=              1.1969   YZ=             -0.5168

  Exact polarizability: 101.787  -6.039  80.312   3.508  -2.916  56.995
 Approx polarizability: 129.115  -8.776 124.497   6.282  -5.095  89.193

                      1                      2                      3
                      A                      A                      A
 Frequencies --     65.3646                69.9199                91.6503
 Red. masses --      3.2408                 3.0037                 2.3857
 Frc consts  --      0.0082                 0.0087                 0.0118
 IR Inten    --      3.0810                 0.0268                 3.1898

                      4                      5                      6
                      A                      A                      A
 Frequencies --    129.8795               224.6425               279.5111
 Red. masses --      3.1062                 1.3169                 2.1196
 Frc consts  --      0.0309                 0.0392                 0.0976
 IR Inten    --      6.2209                 2.3154                 1.7495

                      7                      8                      9
                      A                      A                      A
 Frequencies --    325.2681               353.3144               453.1048
 Red. masses --      2.9658                 3.3558                 2.0135
 Frc consts  --      0.1849                 0.2468                 0.2436
 IR Inten    --      1.8546                 0.8420                 1.1822

                     10                     11                     12
                      A                      A                      A
 Frequencies --    482.4430               493.6362               607.4709
 Red. masses --      2.9834                 3.2160                 6.2417
 Frc consts  --      0.4091                 0.4617                 1.3571
 IR Inten    --      4.0750                 4.1455                 3.1516

                     13                     14                     15
                      A                      A                      A
 Frequencies --    710.7315               784.6699               805.7076
 Red. masses --      3.7744                 3.3934                 1.3223
 Frc consts  --      1.1233                 1.2310                 0.5058
 IR Inten    --      2.9734                 4.1580                 8.3725

                     16                     17                     18
                      A                      A                      A
 Frequencies --    848.1810               890.6899               971.4419
 Red. masses --      1.6318                 3.3540                 2.1955
 Frc consts  --      0.6917                 1.5677                 1.2207
 IR Inten    --     13.6575                 1.1283                19.8854

                     19                     20                     21
                      A                      A                      A
 Frequencies --    990.5401              1007.5250              1038.9414
 Red. masses --      2.1693                 2.2506                 1.6774
 Frc consts  --      1.2540                 1.3461                 1.0668
 IR Inten    --      6.3202                 8.8904                 3.5731

                     22                     23                     24
                      A                      A                      A
 Frequencies --   1123.4161              1125.3202              1148.0854
 Red. masses --      1.2397                 4.2929                 4.6714
 Frc consts  --      0.9219                 3.2030                 3.6278
 IR Inten    --      2.8032                43.7209               170.5878

                     25                     26                     27
                      A                      A                      A
 Frequencies --   1178.4275              1183.8060              1192.4016
 Red. masses --      1.2668                 1.3134                 2.0883
 Frc consts  --      1.0365                 1.0844                 1.7494
 IR Inten    --      2.6269                 9.0444                34.5138

                     28                     29                     30
                      A                      A                      A
 Frequencies --   1222.8710              1246.8346              1276.7197
 Red. masses --      1.5507                 1.2006                 1.7744
 Frc consts  --      1.3662                 1.0997                 1.7041
 IR Inten    --     30.7652                 3.4855                 2.4606

                     31                     32                     33
                      A                      A                      A
 Frequencies --   1287.8386              1361.4690              1411.9867
 Red. masses --      1.6091                 2.5465                 1.4000
 Frc consts  --      1.5724                 2.7811                 1.6445
 IR Inten    --     21.1397                 0.2727                47.5939

                     34                     35                     36
                      A                      A                      A
 Frequencies --   1439.6343              1445.2191              1479.5937
 Red. masses --      1.0855                 1.0933                 1.1511
 Frc consts  --      1.3255                 1.3455                 1.4847
 IR Inten    --      9.8898                 1.4861                 1.1287

                     37                     38                     39
                      A                      A                      A
 Frequencies --   1485.2736              1499.5288              1518.6333
 Red. masses --      1.0552                 1.0732                 1.0795
 Frc consts  --      1.3715                 1.4218                 1.4669
 IR Inten    --      4.7846                 6.5750                 2.7013

                     40                     41                     42
                      A                      A                      A
 Frequencies --   1717.5786              1854.8357              2926.1888
 Red. masses --      7.4467                12.8283                 1.0648
 Frc consts  --     12.9434                26.0035                 5.3717
 IR Inten    --      0.1438               229.8304                43.1042

                     43                     44                     45
                      A                      A                      A
 Frequencies --   2968.8724              2981.2030              3013.4538
 Red. masses --      1.0419                 1.0875                 1.1031
 Frc consts  --      5.4109                 5.6944                 5.9019
 IR Inten    --     68.0829                59.6635                53.4614

                     46                     47                     48
                      A                      A                      A
 Frequencies --   3025.1727              3030.4344              3052.5430
 Red. masses --      1.0600                 1.0641                 1.1003
 Frc consts  --      5.7158                 5.7577                 6.0407
 IR Inten    --     19.0510                12.3181                 8.2462

                     49                     50                     51
                      A                      A                      A
 Frequencies --   3067.1808              3116.8144              3187.8291
 Red. masses --      1.0953                 1.0958                 1.0935
 Frc consts  --      6.0711                 6.2721                 6.5472
 IR Inten    --      3.6069                26.9804                12.3732

 - Thermochemistry -
 -------------------
 Temperature   298.150 Kelvin.  Pressure   1.00000 Atm.
 Atom     1 has atomic number  6 and mass  12.00000

 Molecular mass:   126.06808 amu.
 Principal axes and moments of inertia in atomic units:
                           1         2         3
     Eigenvalues --   426.348542208.900462530.24459
           X            0.99983  -0.01756   0.00515
           Y            0.01761   0.99979  -0.01074
           Z           -0.00496   0.01083   0.99993
 This molecule is an asymmetric top.
 Rotational symmetry number  1.
 Rotational temperatures (Kelvin)      0.20315     0.03921     0.03423
 Rotational constants (GHZ):           4.23302     0.81703     0.71327
 Zero-point vibrational energy     413870.8 (Joules/Mol)
                                   98.91750 (Kcal/Mol)
 Warning -- explicit consideration of  12 degrees of freedom as
           vibrations may cause significant error
 Vibrational temperatures:     94.05   100.60   131.86   186.87   323.21
          (Kelvin)            402.15   467.99   508.34   651.92   694.13
                              710.23   874.01  1022.58  1128.96  1159.23
                             1220.34  1281.50  1397.69  1425.16  1449.60
                             1494.80  1616.34  1619.08  1651.84  1695.49
                             1703.23  1715.60  1759.44  1793.91  1836.91
                             1852.91  1958.85  2031.53  2071.31  2079.35
                             2128.80  2136.97  2157.48  2184.97  2471.21
                             2668.69  4210.13  4271.54  4289.28  4335.68
                             4352.54  4360.11  4391.92  4412.98  4484.40
                             4586.57

 Zero-point correction=                           0.157635 (Hartree/Particle)
 Thermal correction to Energy=                    0.166855
 Thermal correction to Enthalpy=                  0.167799
 Thermal correction to Gibbs Free Energy=         0.122599
 Sum of electronic and zero-point Energies=           -423.048095
 Sum of electronic and thermal Energies=              -423.038876
 Sum of electronic and thermal Enthalpies=            -423.037931
 Sum of electronic and thermal Free Energies=         -423.083131

                     E (Thermal)             CV                S
                      KCal/Mol        Cal/Mol-Kelvin    Cal/Mol-Kelvin
 Total                  104.703             32.981             95.131
 Electronic               0.000              0.000              0.000
 Translational            0.889              2.981             40.409
 Rotational               0.889              2.981             29.256
 Vibrational            102.925             27.019             25.466
 Vibration     1          0.597              1.971              4.288
 Vibration     2          0.598              1.968              4.156
 Vibration     3          0.602              1.955              3.625
 Vibration     4          0.612              1.923              2.948
 Vibration     5          0.649              1.804              1.921
 Vibration     6          0.680              1.711              1.537
 Vibration     7          0.709              1.625              1.283
 Vibration     8          0.730              1.568              1.151
 Vibration     9          0.812              1.354              0.786
 Vibration    10          0.839              1.289              0.704
 Vibration    11          0.849              1.264              0.674
 Vibration    12          0.966              1.016              0.437

 Optimization completed.
    -- Stationary point found.
 Normal termination of Gaussian 09 at Tue Jan 28 14:45:32 2020.
