 Gaussian 09, Revision D.01,
 Gaussian 09:  ES64L-G09RevD.01 24-Apr-2013

 -----------------------------
 # b3lyp 6-31G(2df,p) opt Freq
 -----------------------------

 -----
 titel
 -----
 Symbolic Z-matrix:
 Charge =  0 Multiplicity = 1

 SCF Done:  E(RB3LYP) =  -423.114415506     A.U. after   13 cycles
 Optimization completed.
    -- Stationary point found.
 Normal termination of Gaussian 09 at Tue Jan 28 02:13:03 2020.

 ----------------------------------------------------------------------
 #N Geom=AllCheck Guess=TCheck SCRF=Check GenChk RB3LYP/6-31G(2df,p) Fr
 eq
 ----------------------------------------------------------------------

 Structure from the checkpoint file:  "/scratch/puck/g09_2b929b3d-7d88-43f1-99c8-01d0a32bfcd2/Gau-112086.chk"
 -----
 titel
 -----
 Charge =  0 Multiplicity = 1

                         Standard orientation:
 ---------------------------------------------------------------------
 Center     Atomic      Atomic             Coordinates (Angstroms)
 Number     Number       Type             X           Y           Z
 ---------------------------------------------------------------------
      1          8           0        3.082454    0.460881   -0.523389
      2          6           0        1.860772   -0.200891   -0.380003
      3          6           0        1.485630   -0.965902    0.854730
      4          6           0        0.756574    0.328072    0.507842
      5          6           0       -0.644128    0.304764    0.035536
      6          6           0       -1.557932    1.472273   -0.169048
      7          6           0       -2.014929    0.310128    0.695938
      8          6           0       -2.308050   -0.881789   -0.201499
      9          8           0       -1.012354   -0.764897   -0.853119
     10          1           0        3.414195    0.689511    0.350477
     11          1           0        1.555978   -0.622078   -1.331070
     12          1           0        0.948736   -1.899755    0.729896
     13          1           0        2.164879   -0.939168    1.702120
     14          1           0        1.011918    1.198461    1.106079
     15          1           0       -1.300974    2.369545    0.386042
     16          1           0       -2.002908    1.646953   -1.145721
     17          1           0       -2.302253    0.417101    1.733093
     18          1           0       -2.382060   -1.833835    0.335775
     19          1           0       -3.135931   -0.794540   -0.915594
 ---------------------------------------------------------------------

 SCF Done:  E(RB3LYP) =  -423.114415506     A.U. after    1 cycles

 The electronic state is 1-A.
 Alpha  occ. eigenvalues --  -19.14124 -19.13737 -10.24394 -10.23441 -10.23430
 Alpha  occ. eigenvalues --  -10.19354 -10.19323 -10.18756 -10.18346  -1.04997
 Alpha  occ. eigenvalues --   -1.02605  -0.84918  -0.82752  -0.70374  -0.63260
 Alpha  occ. eigenvalues --   -0.61171  -0.59256  -0.53274  -0.52229  -0.51213
 Alpha  occ. eigenvalues --   -0.47095  -0.45762  -0.43906  -0.40804  -0.39292
 Alpha  occ. eigenvalues --   -0.38209  -0.37609  -0.36427  -0.34614  -0.32479
 Alpha  occ. eigenvalues --   -0.29406  -0.27697  -0.24173  -0.22141
 Alpha virt. eigenvalues --    0.07312   0.08118   0.09700   0.10929   0.11797
 Alpha virt. eigenvalues --    0.13458   0.13648   0.13951   0.16092   0.16763
 Alpha virt. eigenvalues --    0.18208   0.18581   0.20201   0.21024   0.22073

 Mulliken charges:
               1
     1  O   -0.424329
     2  C    0.144707
     3  C   -0.344033
     4  C   -0.200532
     5  C    0.500366
     6  C   -0.337383
     7  C   -0.191133
     8  C   -0.087548
     9  O   -0.325025
    10  H    0.281929
    11  H    0.130656
    12  H    0.127065
    13  H    0.102314
    14  H    0.083937
    15  H    0.113762
    16  H    0.113353
    17  H    0.099161
    18  H    0.108341
    19  H    0.104391
 Sum of Mulliken charges =   0.00000

 Dipole moment (field-independent basis, Debye):
    X=             -0.9124    Y=              0.4817    Z=              2.5318  Tot=              2.7340
 Quadrupole moment (field-independent basis, Debye-Ang):
   XX=            -51.8387   YY=            -52.0416   ZZ=            -53.2582
   XY=              1.1580   XZ=              4.9541   YZ=              0.8673

  Exact polarizability:  90.768   1.038  73.636   2.144  -0.960  65.365
 Approx polarizability: 118.499   1.788 108.852  -1.737   0.000 102.248

                      1                      2                      3
                      A                      A                      A
 Frequencies --     56.2242               113.6735               127.7774
 Red. masses --      3.8300                 1.5165                 1.8736
 Frc consts  --      0.0071                 0.0115                 0.0180
 IR Inten    --      0.2491                44.7473                39.3188

                      4                      5                      6
                      A                      A                      A
 Frequencies --    167.7235               272.1546               333.2230
 Red. masses --      3.3022                 3.8619                 3.5516
 Frc consts  --      0.0547                 0.1685                 0.2323
 IR Inten    --      8.1611                12.5696                 2.2867

                      7                      8                      9
                      A                      A                      A
 Frequencies --    377.8652               409.1127               436.0243
 Red. masses --      2.9221                 2.3043                 2.3638
 Frc consts  --      0.2458                 0.2272                 0.2648
 IR Inten    --      6.0295                 0.7805                 1.9306

                     10                     11                     12
                      A                      A                      A
 Frequencies --    509.8296               668.5635               753.7931
 Red. masses --      2.5907                 2.6470                 2.7582
 Frc consts  --      0.3967                 0.6971                 0.9234
 IR Inten    --      3.6435                 2.9594                 2.5475

                     13                     14                     15
                      A                      A                      A
 Frequencies --    810.9884               814.2217               872.6131
 Red. masses --      2.3020                 1.9767                 1.8925
 Frc consts  --      0.8921                 0.7721                 0.8491
 IR Inten    --     23.5531                 8.0411                12.1383

                     16                     17                     18
                      A                      A                      A
 Frequencies --    905.7366               927.5118               949.1350
 Red. masses --      2.3920                 2.3505                 2.0115
 Frc consts  --      1.1562                 1.1914                 1.0677
 IR Inten    --      9.9208                41.8040                 3.3972

                     19                     20                     21
                      A                      A                      A
 Frequencies --    970.8155               973.9714               992.3686
 Red. masses --      2.8958                 2.4708                 2.4159
 Frc consts  --      1.6080                 1.3809                 1.4018
 IR Inten    --     23.8551                36.9949                37.5180

                     22                     23                     24
                      A                      A                      A
 Frequencies --   1006.4146              1018.3828              1056.2517
 Red. masses --      1.5228                 1.7100                 1.3992
 Frc consts  --      0.9087                 1.0449                 0.9197
 IR Inten    --      2.7508                 3.8863                 2.3603

                     25                     26                     27
                      A                      A                      A
 Frequencies --   1069.5439              1076.3834              1101.1787
 Red. masses --      1.3991                 1.4593                 2.2432
 Frc consts  --      0.9430                 0.9962                 1.6027
 IR Inten    --      5.3317                 3.0511                92.5657

                     28                     29                     30
                      A                      A                      A
 Frequencies --   1128.6903              1130.9227              1165.4669
 Red. masses --      1.2321                 1.8540                 1.2562
 Frc consts  --      0.9248                 1.3971                 1.0053
 IR Inten    --     13.8198                10.2810                 5.8144

                     31                     32                     33
                      A                      A                      A
 Frequencies --   1195.2177              1230.6875              1275.9818
 Red. masses --      1.9252                 1.8470                 1.8122
 Frc consts  --      1.6204                 1.6482                 1.7384
 IR Inten    --     19.0587                64.7200                 4.3894

                     34                     35                     36
                      A                      A                      A
 Frequencies --   1295.7772              1339.9081              1345.5253
 Red. masses --      1.6212                 1.7225                 1.5283
 Frc consts  --      1.6038                 1.8221                 1.6302
 IR Inten    --      1.0730                15.1003                 2.3082

                     37                     38                     39
                      A                      A                      A
 Frequencies --   1415.2851              1439.3155              1474.6279
 Red. masses --      1.3946                 1.2471                 1.3853
 Frc consts  --      1.6459                 1.5222                 1.7748
 IR Inten    --     21.5276                20.7222                21.1021

                     40                     41                     42
                      A                      A                      A
 Frequencies --   1502.7109              1521.1966              3021.9276
 Red. masses --      2.1354                 1.2270                 1.0551
 Frc consts  --      2.8411                 1.6729                 5.6767
 IR Inten    --     48.0452                 2.3786                83.7161

                     43                     44                     45
                      A                      A                      A
 Frequencies --   3070.9257              3107.5709              3122.5461
 Red. masses --      1.1109                 1.0549                 1.0553
 Frc consts  --      6.1728                 6.0023                 6.0622
 IR Inten    --     35.5331                13.6254                12.0276

                     46                     47                     48
                      A                      A                      A
 Frequencies --   3147.6111              3188.8025              3198.1705
 Red. masses --      1.0883                 1.0900                 1.1088
 Frc consts  --      6.3526                 6.5306                 6.6822
 IR Inten    --      7.3036                 2.7594                 4.7388

                     49                     50                     51
                      A                      A                      A
 Frequencies --   3206.7335              3217.3961              3822.4008
 Red. masses --      1.1002                 1.1141                 1.0660
 Frc consts  --      6.6655                 6.7949                 9.1764
 IR Inten    --     14.4940                 8.1996                21.5966

 - Thermochemistry -
 -------------------
 Temperature   298.150 Kelvin.  Pressure   1.00000 Atm.
 Atom     1 has atomic number  8 and mass  15.99491

 Molecular mass:   126.06808 amu.
 Principal axes and moments of inertia in atomic units:
                           1         2         3
     Eigenvalues --   467.738091734.885781858.37816
           X            0.99992  -0.00452   0.01142
           Y            0.00476   0.99976  -0.02122
           Z           -0.01132   0.02127   0.99971
 This molecule is an asymmetric top.
 Rotational symmetry number  1.
 Warning -- assumption of classical behavior for rotation
           may cause significant error
 Rotational temperatures (Kelvin)      0.18518     0.04992     0.04661
 Rotational constants (GHZ):           3.85844     1.04027     0.97114
 Zero-point vibrational energy     414726.6 (Joules/Mol)
                                   99.12205 (Kcal/Mol)
 Warning -- explicit consideration of  10 degrees of freedom as
           vibrations may cause significant error
 Vibrational temperatures:     80.89   163.55   183.84   241.32   391.57
          (Kelvin)            479.43   543.66   588.62   627.34   733.53
                              961.91  1084.54  1166.83  1171.48  1255.49
                             1303.15  1334.48  1365.59  1396.79  1401.33
                             1427.80  1448.00  1465.22  1519.71  1538.83
                             1548.67  1584.35  1623.93  1627.14  1676.84
                             1719.65  1770.68  1835.85  1864.33  1927.83
                             1935.91  2036.28  2070.85  2121.66  2162.06
                             2188.66  4347.87  4418.37  4471.10  4492.64
                             4528.70  4587.97  4601.45  4613.77  4629.11
                             5499.58

 Zero-point correction=                           0.157961 (Hartree/Particle)
 Thermal correction to Energy=                    0.166622
 Thermal correction to Enthalpy=                  0.167567
 Thermal correction to Gibbs Free Energy=         0.124136
 Sum of electronic and zero-point Energies=           -422.956454
 Sum of electronic and thermal Energies=              -422.947793
 Sum of electronic and thermal Enthalpies=            -422.946849
 Sum of electronic and thermal Free Energies=         -422.990279

                     E (Thermal)             CV                S
                      KCal/Mol        Cal/Mol-Kelvin    Cal/Mol-Kelvin
 Total                  104.557             32.672             91.407
 Electronic               0.000              0.000              0.000
 Translational            0.889              2.981             40.409
 Rotational               0.889              2.981             28.802
 Vibrational            102.780             26.710             22.196
 Vibration     1          0.596              1.975              4.586
 Vibration     2          0.607              1.938              3.205
 Vibration     3          0.611              1.925              2.979
 Vibration     4          0.624              1.882              2.461
 Vibration     5          0.675              1.725              1.582
 Vibration     6          0.715              1.609              1.244
 Vibration     7          0.748              1.517              1.048
 Vibration     8          0.773              1.450              0.930
 Vibration     9          0.796              1.392              0.839
 Vibration    10          0.865              1.228              0.634

 Normal termination of Gaussian 09 at Tue Jan 28 02:54:57 2020.
