 Gaussian 09, Revision D.01,
 Gaussian 09:  ES64L-G09RevD.01 24-Apr-2013

 -----------------------------
 # b3lyp 6-31G(2df,p) opt Freq
 -----------------------------

 -----
 titel
 -----
 Symbolic Z-matrix:
 Charge =  0 Multiplicity = 1

 SCF Done:  E(RB3LYP) =  -423.115572113     A.U. after   13 cycles
 Optimization completed.
    -- Stationary point found.
 Normal termination of Gaussian 09 at Mon Jan 27 17:26:34 2020.

 ----------------------------------------------------------------------
 #N Geom=AllCheck Guess=TCheck SCRF=Check GenChk RB3LYP/6-31G(2df,p) Fr
 eq
 ----------------------------------------------------------------------

 Structure from the checkpoint file:  "/scratch/puck/g09_d145c9de-207e-4d10-998a-da8d47707e7b/Gau-79043.chk"
 -----
 titel
 -----
 Charge =  0 Multiplicity = 1

                         Standard orientation:
 ---------------------------------------------------------------------
 Center     Atomic      Atomic             Coordinates (Angstroms)
 Number     Number       Type             X           Y           Z
 ---------------------------------------------------------------------
      1          6           0        2.331200   -0.648000   -0.731480
      2          6           0        0.987783   -0.448927   -0.112717
      3          8           0        0.915105    0.033362    1.248968
      4          6           0        0.184520    0.729196    0.220484
      5          6           0        0.355390    2.201193    0.048462
      6          6           0       -1.138030   -0.081021   -0.069271
      7          8           0       -2.170427    0.452598   -0.819433
      8          6           0       -1.245347   -1.318707    0.775531
      9          6           0       -0.298802   -1.290193   -0.412216
     10          1           0        2.798971   -1.565702   -0.356550
     11          1           0        2.244747   -0.736105   -1.819550
     12          1           0        2.991433    0.191270   -0.497718
     13          1           0       -0.120661    2.748125    0.870956
     14          1           0        1.414455    2.471519    0.031501
     15          1           0       -0.111592    2.526303   -0.886000
     16          1           0       -2.824633    0.819029   -0.213771
     17          1           0       -0.862573   -1.350677    1.787911
     18          1           0       -2.149185   -1.891237    0.588959
     19          1           0       -0.398670   -1.961450   -1.254772
 ---------------------------------------------------------------------

 SCF Done:  E(RB3LYP) =  -423.115572113     A.U. after    1 cycles

 The electronic state is 1-A.
 Alpha  occ. eigenvalues --  -19.15191 -19.14106 -10.23644 -10.23590 -10.23225
 Alpha  occ. eigenvalues --  -10.18637 -10.18471 -10.18394 -10.18314  -1.06885
 Alpha  occ. eigenvalues --   -1.03357  -0.85548  -0.74498  -0.74439  -0.66232
 Alpha  occ. eigenvalues --   -0.60113  -0.57238  -0.52755  -0.51079  -0.48850
 Alpha  occ. eigenvalues --   -0.44869  -0.42971  -0.42234  -0.41776  -0.40698
 Alpha  occ. eigenvalues --   -0.40355  -0.37719  -0.35999  -0.34677  -0.33129
 Alpha  occ. eigenvalues --   -0.32010  -0.27103  -0.24201  -0.22142
 Alpha virt. eigenvalues --    0.06736   0.08248   0.10444   0.11080   0.12945
 Alpha virt. eigenvalues --    0.14034   0.14326   0.14745   0.15822   0.16604
 Alpha virt. eigenvalues --    0.18258   0.18961   0.20350   0.20619   0.22561

 Mulliken charges:
               1
     1  C   -0.505425
     2  C    0.344915
     3  O   -0.327542
     4  C    0.269616
     5  C   -0.513047
     6  C    0.324266
     7  O   -0.454303
     8  C   -0.356258
     9  C   -0.197862
    10  H    0.132162
    11  H    0.127254
    12  H    0.131685
    13  H    0.126621
    14  H    0.131195
    15  H    0.137711
    16  H    0.288661
    17  H    0.131974
    18  H    0.110563
    19  H    0.097812
 Sum of Mulliken charges =   0.00000

 Dipole moment (field-independent basis, Debye):
    X=             -0.5157    Y=              0.5093    Z=             -0.5587  Tot=              0.9152
 Quadrupole moment (field-independent basis, Debye-Ang):
   XX=            -48.6102   YY=            -50.2132   ZZ=            -56.4703
   XY=             -1.2164   XZ=             -5.3223   YZ=              1.4319

  Exact polarizability:  82.759  -1.253  79.499  -3.846   1.298  64.008
 Approx polarizability: 112.866  -6.722 112.398  -1.415   2.827 104.571

                      1                      2                      3
                      A                      A                      A
 Frequencies --    154.9660               174.4078               182.2118
 Red. masses --      2.9563                 1.3198                 1.6940
 Frc consts  --      0.0418                 0.0237                 0.0331
 IR Inten    --      2.9666                 0.7500                 0.3385

                      4                      5                      6
                      A                      A                      A
 Frequencies --    187.1340               216.5229               283.8987
 Red. masses --      1.0661                 3.2706                 2.1252
 Frc consts  --      0.0220                 0.0903                 0.1009
 IR Inten    --      0.1082                 1.1499                18.4073

                      7                      8                      9
                      A                      A                      A
 Frequencies --    290.6356               381.1436               421.0631
 Red. masses --      1.3732                 2.5424                 4.4544
 Frc consts  --      0.0683                 0.2176                 0.4653
 IR Inten    --     68.6466                15.1006                21.1935

                     10                     11                     12
                      A                      A                      A
 Frequencies --    436.8163               504.3538               554.5111
 Red. masses --      2.9294                 3.9681                 3.3118
 Frc consts  --      0.3293                 0.5947                 0.6000
 IR Inten    --      0.5611                 4.1157                 5.5599

                     13                     14                     15
                      A                      A                      A
 Frequencies --    573.4245               629.1106               692.2640
 Red. masses --      4.0269                 3.8701                 3.2183
 Frc consts  --      0.7801                 0.9025                 0.9087
 IR Inten    --      4.9583                 2.1595                 1.0868

                     16                     17                     18
                      A                      A                      A
 Frequencies --    742.4949               844.0724               859.1083
 Red. masses --      3.3602                 2.7325                 2.7342
 Frc consts  --      1.0914                 1.1470                 1.1890
 IR Inten    --      6.3368                 4.5446                 6.2589

                     19                     20                     21
                      A                      A                      A
 Frequencies --    894.7391               916.4537               949.3086
 Red. masses --      2.2493                 1.7688                 2.0668
 Frc consts  --      1.0609                 0.8753                 1.0974
 IR Inten    --     26.9165                10.2322                 7.5482

                     22                     23                     24
                      A                      A                      A
 Frequencies --    991.3840              1010.8899              1075.8043
 Red. masses --      1.2254                 2.2759                 1.6497
 Frc consts  --      0.7096                 1.3703                 1.1249
 IR Inten    --      3.4154                 2.4745                15.9816

                     25                     26                     27
                      A                      A                      A
 Frequencies --   1089.8150              1104.1667              1110.8390
 Red. masses --      1.5188                 1.8707                 1.7440
 Frc consts  --      1.0628                 1.3438                 1.2680
 IR Inten    --      8.6854                 9.6444                18.4438

                     28                     29                     30
                      A                      A                      A
 Frequencies --   1165.1089              1191.3717              1255.3872
 Red. masses --      1.8664                 2.1626                 3.5767
 Frc consts  --      1.4927                 1.8085                 3.3212
 IR Inten    --     49.3730                 8.8242                19.2684

                     31                     32                     33
                      A                      A                      A
 Frequencies --   1258.9799              1300.7880              1389.0154
 Red. masses --      2.6451                 1.8441                 1.7003
 Frc consts  --      2.4702                 1.8384                 1.9328
 IR Inten    --     19.7736                93.0990                16.0071

                     34                     35                     36
                      A                      A                      A
 Frequencies --   1406.4371              1408.9240              1470.8806
 Red. masses --      1.3082                 1.2953                 1.4078
 Frc consts  --      1.5247                 1.5149                 1.7945
 IR Inten    --      5.6672                 1.8359                 3.7405

                     37                     38                     39
                      A                      A                      A
 Frequencies --   1474.5178              1476.0998              1487.3481
 Red. masses --      1.1970                 1.1725                 1.0453
 Frc consts  --      1.5333                 1.5052                 1.3625
 IR Inten    --      4.3613                 7.6643                 2.0350

                     40                     41                     42
                      A                      A                      A
 Frequencies --   1492.8173              1537.9635              3031.2607
 Red. masses --      1.0946                 4.1423                 1.0368
 Frc consts  --      1.4372                 5.7728                 5.6128
 IR Inten    --     10.5481                 9.5360                35.7102

                     43                     44                     45
                      A                      A                      A
 Frequencies --   3033.0037              3093.2915              3096.5132
 Red. masses --      1.0377                 1.0996                 1.0965
 Frc consts  --      5.6240                 6.1991                 6.1944
 IR Inten    --     13.1027                14.0704                15.6040

                     46                     47                     48
                      A                      A                      A
 Frequencies --   3119.6805              3124.0790              3134.3561
 Red. masses --      1.1009                 1.1017                 1.0535
 Frc consts  --      6.3127                 6.3352                 6.0977
 IR Inten    --     10.0934                14.9105                14.8508

                     49                     50                     51
                      A                      A                      A
 Frequencies --   3206.6410              3230.4826              3785.0089
 Red. masses --      1.0942                 1.1151                 1.0662
 Frc consts  --      6.6291                 6.8566                 8.9997
 IR Inten    --      5.3357                 3.4827                22.8866

 - Thermochemistry -
 -------------------
 Temperature   298.150 Kelvin.  Pressure   1.00000 Atm.
 Atom     1 has atomic number  6 and mass  12.00000

 Molecular mass:   126.06808 amu.
 Principal axes and moments of inertia in atomic units:
                           1         2         3
     Eigenvalues --   755.936011082.160541393.44304
           X            0.99886   0.01315  -0.04592
           Y           -0.01278   0.99988   0.00820
           Z            0.04602  -0.00760   0.99891
 This molecule is an asymmetric top.
 Rotational symmetry number  1.
 Warning -- assumption of classical behavior for rotation
           may cause significant error
 Rotational temperatures (Kelvin)      0.11458     0.08004     0.06216
 Rotational constants (GHZ):           2.38743     1.66772     1.29517
 Zero-point vibrational energy     409371.1 (Joules/Mol)
                                   97.84203 (Kcal/Mol)
 Warning -- explicit consideration of  13 degrees of freedom as
           vibrations may cause significant error
 Vibrational temperatures:    222.96   250.93   262.16   269.24   311.53
          (Kelvin)            408.47   418.16   548.38   605.82   628.48
                              725.65   797.82   825.03   905.15   996.01
                             1068.28  1214.43  1236.06  1287.33  1318.57
                             1365.84  1426.38  1454.44  1547.84  1568.00
                             1588.65  1598.25  1676.33  1714.12  1806.22
                             1811.39  1871.54  1998.48  2023.55  2027.12
                             2116.27  2121.50  2123.78  2139.96  2147.83
                             2212.78  4361.30  4363.81  4450.55  4455.19
                             4488.52  4494.85  4509.63  4613.64  4647.94
                             5445.78

 Zero-point correction=                           0.155921 (Hartree/Particle)
 Thermal correction to Energy=                    0.164984
 Thermal correction to Enthalpy=                  0.165929
 Thermal correction to Gibbs Free Energy=         0.122998
 Sum of electronic and zero-point Energies=           -422.959651
 Sum of electronic and thermal Energies=              -422.950588
 Sum of electronic and thermal Enthalpies=            -422.949644
 Sum of electronic and thermal Free Energies=         -422.992574

                     E (Thermal)             CV                S
                      KCal/Mol        Cal/Mol-Kelvin    Cal/Mol-Kelvin
 Total                  103.529             35.175             90.355
 Electronic               0.000              0.000              0.000
 Translational            0.889              2.981             40.409
 Rotational               0.889              2.981             28.524
 Vibrational            101.752             29.214             21.423
 Vibration     1          0.620              1.897              2.610
 Vibration     2          0.627              1.874              2.387
 Vibration     3          0.630              1.864              2.306
 Vibration     4          0.632              1.857              2.256
 Vibration     5          0.645              1.816              1.988
 Vibration     6          0.682              1.704              1.510
 Vibration     7          0.687              1.691              1.470
 Vibration     8          0.751              1.510              1.035
 Vibration     9          0.784              1.424              0.888
 Vibration    10          0.797              1.390              0.837
 Vibration    11          0.860              1.240              0.647
 Vibration    12          0.910              1.130              0.535
 Vibration    13          0.930              1.089              0.498

 Optimization completed.
    -- Stationary point found.
 Normal termination of Gaussian 09 at Mon Jan 27 18:18:47 2020.
