 Gaussian 09, Revision D.01,
 Gaussian 09:  ES64L-G09RevD.01 24-Apr-2013

 -----------------------------
 # b3lyp 6-31G(2df,p) opt Freq
 -----------------------------

 -----
 titel
 -----
 Symbolic Z-matrix:
 Charge =  0 Multiplicity = 1

 SCF Done:  E(RB3LYP) =  -423.214533047     A.U. after   14 cycles
 Optimization completed.
    -- Stationary point found.
 Normal termination of Gaussian 09 at Mon Jan 27 14:10:09 2020.

 ----------------------------------------------------------------------
 #N Geom=AllCheck Guess=TCheck SCRF=Check GenChk RB3LYP/6-31G(2df,p) Fr
 eq
 ----------------------------------------------------------------------

 Structure from the checkpoint file:  "/scratch/puck/g09_ecdecdc1-9d27-4d49-aa98-2ad49b595ccf/Gau-31519.chk"
 -----
 titel
 -----
 Charge =  0 Multiplicity = 1

                         Standard orientation:
 ---------------------------------------------------------------------
 Center     Atomic      Atomic             Coordinates (Angstroms)
 Number     Number       Type             X           Y           Z
 ---------------------------------------------------------------------
      1          6           0        1.883311   -1.222787    0.750153
      2          6           0        1.472530   -0.034530   -0.088864
      3          8           0        2.178114    0.932661   -0.263725
      4          6           0        0.065903   -0.067732   -0.717621
      5          8           0       -0.506844   -1.366760   -0.685889
      6          6           0       -1.726860   -1.354792    0.060456
      7          6           0       -1.898772    0.070284    0.493087
      8          6           0       -0.896718    0.825375    0.047946
      9          6           0       -0.677523    2.295095    0.193793
     10          1           0        2.882844   -1.057316    1.153516
     11          1           0        1.167938   -1.371477    1.566558
     12          1           0        1.855428   -2.135082    0.147281
     13          1           0        0.184594    0.271784   -1.758740
     14          1           0       -2.551877   -1.706067   -0.578232
     15          1           0       -1.651205   -2.057056    0.905318
     16          1           0       -2.749648    0.414948    1.067777
     17          1           0       -0.709285    2.790991   -0.784269
     18          1           0       -1.440926    2.747129    0.831837
     19          1           0        0.310756    2.509459    0.612168
 ---------------------------------------------------------------------

 SCF Done:  E(RB3LYP) =  -423.214533047     A.U. after    1 cycles

 The electronic state is 1-A.
 Alpha  occ. eigenvalues --  -19.14558 -19.12969 -10.26836 -10.24070 -10.23733
 Alpha  occ. eigenvalues --  -10.20196 -10.18832 -10.18685 -10.18433  -1.04897
 Alpha  occ. eigenvalues --   -1.03570  -0.81209  -0.76611  -0.73199  -0.69824
 Alpha  occ. eigenvalues --   -0.62333  -0.56063  -0.53074  -0.49562  -0.48100
 Alpha  occ. eigenvalues --   -0.45052  -0.44332  -0.43611  -0.42211  -0.41517
 Alpha  occ. eigenvalues --   -0.40713  -0.38616  -0.38044  -0.36701  -0.34740
 Alpha  occ. eigenvalues --   -0.32349  -0.28227  -0.26550  -0.22368
 Alpha virt. eigenvalues --   -0.01892   0.02310   0.09183   0.10978   0.12013
 Alpha virt. eigenvalues --    0.13406   0.13750   0.15810   0.16029   0.16587
 Alpha virt. eigenvalues --    0.17295   0.17429   0.18904   0.20476   0.22893

 Mulliken charges:
               1
     1  C   -0.472748
     2  C    0.352417
     3  O   -0.306264
     4  C   -0.057162
     5  O   -0.272772
     6  C   -0.120024
     7  C   -0.208938
     8  C    0.304644
     9  C   -0.491494
    10  H    0.134920
    11  H    0.141527
    12  H    0.155276
    13  H    0.107461
    14  H    0.110593
    15  H    0.105972
    16  H    0.104614
    17  H    0.135150
    18  H    0.122624
    19  H    0.154203
 Sum of Mulliken charges =   0.00000

 Dipole moment (field-independent basis, Debye):
    X=             -2.1830    Y=             -0.5873    Z=              1.1106  Tot=              2.5187
 Quadrupole moment (field-independent basis, Debye-Ang):
   XX=            -54.4331   YY=            -53.5125   ZZ=            -52.3782
   XY=             -4.1143   XZ=             -0.1377   YZ=             -1.2549

  Exact polarizability:  87.862   8.308  85.268  -4.875  -4.619  60.795
 Approx polarizability: 127.179  23.008 124.988 -13.461  -9.265  94.763

                      1                      2                      3
                      A                      A                      A
 Frequencies --     49.5390                77.3511               152.9501
 Red. masses --      3.8392                 3.1029                 1.0363
 Frc consts  --      0.0056                 0.0109                 0.0143
 IR Inten    --      4.7791                 0.4124                 0.2803

                      4                      5                      6
                      A                      A                      A
 Frequencies --    157.2930               169.3670               242.8431
 Red. masses --      1.0899                 4.3040                 2.1275
 Frc consts  --      0.0159                 0.0727                 0.0739
 IR Inten    --      0.8229                 3.7904                 2.2281

                      7                      8                      9
                      A                      A                      A
 Frequencies --    268.1380               325.2327               430.5727
 Red. masses --      3.9027                 2.6330                 6.6707
 Frc consts  --      0.1653                 0.1641                 0.7286
 IR Inten    --      9.7251                 0.0804                 1.0619

                     10                     11                     12
                      A                      A                      A
 Frequencies --    453.2261               507.5725               611.2646
 Red. masses --      3.1447                 2.7517                 2.8184
 Frc consts  --      0.3806                 0.4177                 0.6205
 IR Inten    --      0.7910                12.8158                14.3348

                     13                     14                     15
                      A                      A                      A
 Frequencies --    619.7948               771.6618               778.9361
 Red. masses --      4.8485                 2.9122                 5.0639
 Frc consts  --      1.0974                 1.0217                 1.8102
 IR Inten    --      2.3706                 1.9521                 6.4151

                     16                     17                     18
                      A                      A                      A
 Frequencies --    820.1034               915.1986               943.2679
 Red. masses --      1.2909                 2.7427                 2.7819
 Frc consts  --      0.5115                 1.3535                 1.4583
 IR Inten    --     19.1368                13.7395                 5.2307

                     19                     20                     21
                      A                      A                      A
 Frequencies --    971.7322               996.9333              1025.0175
 Red. masses --      2.3364                 1.8998                 1.6297
 Frc consts  --      1.2998                 1.1124                 1.0088
 IR Inten    --      6.3061                 1.4217                 3.6781

                     22                     23                     24
                      A                      A                      A
 Frequencies --   1038.1913              1049.3839              1079.0812
 Red. masses --      1.6118                 1.6837                 1.7110
 Frc consts  --      1.0235                 1.0924                 1.1738
 IR Inten    --     10.7134                 6.1144                 2.1795

                     25                     26                     27
                      A                      A                      A
 Frequencies --   1112.9648              1191.6577              1202.1410
 Red. masses --      6.5163                 1.1773                 2.1216
 Frc consts  --      4.7557                 0.9850                 1.8064
 IR Inten    --     89.4713                 5.6131                15.8112

                     28                     29                     30
                      A                      A                      A
 Frequencies --   1230.9961              1258.3085              1299.7814
 Red. masses --      2.8570                 1.6333                 1.6131
 Frc consts  --      2.5508                 1.5237                 1.6056
 IR Inten    --     60.8041                 3.5924                 1.2210

                     31                     32                     33
                      A                      A                      A
 Frequencies --   1326.6637              1377.3940              1383.0580
 Red. masses --      1.5126                 1.3605                 1.4212
 Frc consts  --      1.5686                 1.5207                 1.6017
 IR Inten    --      6.6904                34.0580                 8.6375

                     34                     35                     36
                      A                      A                      A
 Frequencies --   1420.6173              1454.3080              1466.6028
 Red. masses --      1.2757                 1.0540                 1.0513
 Frc consts  --      1.5169                 1.3134                 1.3322
 IR Inten    --      4.3348                14.2165                 8.9236

                     37                     38                     39
                      A                      A                      A
 Frequencies --   1474.4027              1487.3973              1524.3570
 Red. masses --      1.0436                 1.0573                 1.0855
 Frc consts  --      1.3366                 1.3781                 1.4861
 IR Inten    --      6.0613                 5.5440                 0.7784

                     40                     41                     42
                      A                      A                      A
 Frequencies --   1729.2011              1805.6207              2976.8905
 Red. masses --      7.3453                11.0713                 1.0596
 Frc consts  --     12.9405                21.2668                 5.5324
 IR Inten    --      4.3646               154.0275               109.4896

                     43                     44                     45
                      A                      A                      A
 Frequencies --   2983.1214              2995.3961              3031.4869
 Red. masses --      1.0796                 1.1053                 1.0400
 Frc consts  --      5.6603                 5.8431                 5.6314
 IR Inten    --      9.8374                49.9554                19.9600

                     46                     47                     48
                      A                      A                      A
 Frequencies --   3045.4716              3088.7072              3109.8630
 Red. masses --      1.0362                 1.0935                 1.0958
 Frc consts  --      5.6622                 6.1466                 6.2441
 IR Inten    --      1.4213                10.0534                 4.9513

                     49                     50                     51
                      A                      A                      A
 Frequencies --   3123.6958              3157.0670              3211.7489
 Red. masses --      1.1024                 1.1045                 1.0950
 Frc consts  --      6.3374                 6.4858                 6.6551
 IR Inten    --     13.4412                10.9898                 5.7689

 - Thermochemistry -
 -------------------
 Temperature   298.150 Kelvin.  Pressure   1.00000 Atm.
 Atom     1 has atomic number  6 and mass  12.00000

 Molecular mass:   126.06808 amu.
 Principal axes and moments of inertia in atomic units:
                           1         2         3
     Eigenvalues --   812.510301114.799531670.76940
           X            0.99651  -0.08318   0.00730
           Y            0.08331   0.99634  -0.01904
           Z           -0.00569   0.01958   0.99979
 This molecule is an asymmetric top.
 Rotational symmetry number  1.
 Warning -- assumption of classical behavior for rotation
           may cause significant error
 Rotational temperatures (Kelvin)      0.10660     0.07769     0.05184
 Rotational constants (GHZ):           2.22119     1.61889     1.08019
 Zero-point vibrational energy     412254.5 (Joules/Mol)
                                   98.53119 (Kcal/Mol)
 Warning -- explicit consideration of  13 degrees of freedom as
           vibrations may cause significant error
 Vibrational temperatures:     71.28   111.29   220.06   226.31   243.68
          (Kelvin)            349.40   385.79   467.94   619.50   652.09
                              730.28   879.47   891.75  1110.25  1120.71
                             1179.94  1316.77  1357.15  1398.10  1434.36
                             1474.77  1493.72  1509.83  1552.56  1601.31
                             1714.53  1729.61  1771.13  1810.42  1870.09
                             1908.77  1981.76  1989.91  2043.95  2092.42
                             2110.11  2121.33  2140.03  2193.21  2487.93
                             2597.88  4283.08  4292.04  4309.70  4361.63
                             4381.75  4443.96  4474.39  4494.30  4542.31
                             4620.98

 Zero-point correction=                           0.157019 (Hartree/Particle)
 Thermal correction to Energy=                    0.166460
 Thermal correction to Enthalpy=                  0.167404
 Thermal correction to Gibbs Free Energy=         0.122139
 Sum of electronic and zero-point Energies=           -423.057514
 Sum of electronic and thermal Energies=              -423.048074
 Sum of electronic and thermal Enthalpies=            -423.047129
 Sum of electronic and thermal Free Energies=         -423.092394

                     E (Thermal)             CV                S
                      KCal/Mol        Cal/Mol-Kelvin    Cal/Mol-Kelvin
 Total                  104.455             33.833             95.267
 Electronic               0.000              0.000              0.000
 Translational            0.889              2.981             40.409
 Rotational               0.889              2.981             28.805
 Vibrational            102.677             27.871             26.053
 Vibration     1          0.595              1.978              4.836
 Vibration     2          0.599              1.964              3.957
 Vibration     3          0.619              1.899              2.635
 Vibration     4          0.621              1.894              2.582
 Vibration     5          0.625              1.880              2.443
 Vibration     6          0.659              1.775              1.782
 Vibration     7          0.673              1.732              1.608
 Vibration     8          0.709              1.625              1.284
 Vibration     9          0.792              1.404              0.857
 Vibration    10          0.812              1.354              0.786
 Vibration    11          0.863              1.233              0.639
 Vibration    12          0.970              1.008              0.431
 Vibration    13          0.980              0.990              0.417

 Normal termination of Gaussian 09 at Mon Jan 27 15:04:18 2020.
