 Gaussian 09, Revision D.01,
 Gaussian 09:  ES64L-G09RevD.01 24-Apr-2013

 -----------------------------
 # b3lyp 6-31G(2df,p) opt Freq
 -----------------------------

 -----
 titel
 -----
 Symbolic Z-matrix:
 Charge =  0 Multiplicity = 1

 SCF Done:  E(RB3LYP) =  -423.223951678     A.U. after   14 cycles
 Optimization completed.
    -- Stationary point found.
 Normal termination of Gaussian 09 at Mon Jan 27 22:03:21 2020.

 ----------------------------------------------------------------------
 #N Geom=AllCheck Guess=TCheck SCRF=Check GenChk RB3LYP/6-31G(2df,p) Fr
 eq
 ----------------------------------------------------------------------

 Structure from the checkpoint file:  "/scratch/puck/g09_a913b785-74ad-4edf-bb68-99fa6c3a3d89/Gau-78534.chk"
 -----
 titel
 -----
 Charge =  0 Multiplicity = 1

                         Standard orientation:
 ---------------------------------------------------------------------
 Center     Atomic      Atomic             Coordinates (Angstroms)
 Number     Number       Type             X           Y           Z
 ---------------------------------------------------------------------
      1          6           0       -2.999357   -0.313872   -0.089458
      2          6           0       -1.518257   -0.118553   -0.031403
      3          6           0       -0.575971   -1.046313   -0.232353
      4          6           0        0.825861   -0.527786   -0.052619
      5          6           0        1.511822   -1.048138    1.222694
      6          8           0        1.633848   -0.801607   -1.189191
      7          6           0        0.573409    0.994653    0.049331
      8          8           0        1.435852    1.818940   -0.116735
      9          6           0       -0.916119    1.235607    0.281114
     10          1           0       -3.469843   -0.069225    0.871403
     11          1           0       -3.454285    0.349673   -0.835698
     12          1           0       -3.257859   -1.344963   -0.344263
     13          1           0       -0.771057   -2.085540   -0.474076
     14          1           0        0.904846   -0.865392    2.115326
     15          1           0        1.681342   -2.124588    1.129957
     16          1           0        2.479472   -0.551961    1.351613
     17          1           0        2.300583   -0.101745   -1.215998
     18          1           0       -1.093172    1.551776    1.319271
     19          1           0       -1.285953    2.049712   -0.353969
 ---------------------------------------------------------------------

 SCF Done:  E(RB3LYP) =  -423.223951678     A.U. after    1 cycles

 The electronic state is 1-A.
 Alpha  occ. eigenvalues --  -19.14398 -19.13332 -10.27245 -10.24203 -10.20387
 Alpha  occ. eigenvalues --  -10.20077 -10.19245 -10.18309 -10.18064  -1.05710
 Alpha  occ. eigenvalues --   -1.01413  -0.85270  -0.76002  -0.72701  -0.69217
 Alpha  occ. eigenvalues --   -0.62592  -0.56525  -0.52961  -0.48485  -0.47817
 Alpha  occ. eigenvalues --   -0.45911  -0.44017  -0.42874  -0.41695  -0.41166
 Alpha  occ. eigenvalues --   -0.40371  -0.39552  -0.37024  -0.36176  -0.35893
 Alpha  occ. eigenvalues --   -0.33957  -0.27707  -0.25393  -0.24235
 Alpha virt. eigenvalues --   -0.02499   0.01003   0.08559   0.10137   0.12455
 Alpha virt. eigenvalues --    0.12978   0.15202   0.15677   0.16309   0.16517
 Alpha virt. eigenvalues --    0.17133   0.18539   0.18936   0.21691   0.22370

 Mulliken charges:
               1
     1  C   -0.486190
     2  C    0.297740
     3  C   -0.194532
     4  C    0.261890
     5  C   -0.427040
     6  O   -0.474745
     7  C    0.355773
     8  O   -0.328281
     9  C   -0.421561
    10  H    0.129016
    11  H    0.131756
    12  H    0.129495
    13  H    0.101107
    14  H    0.114269
    15  H    0.128186
    16  H    0.124609
    17  H    0.287098
    18  H    0.136015
    19  H    0.135396
 Sum of Mulliken charges =   0.00000

 Dipole moment (field-independent basis, Debye):
    X=             -2.2168    Y=             -0.5015    Z=              1.3384  Tot=              2.6376
 Quadrupole moment (field-independent basis, Debye-Ang):
   XX=            -50.6466   YY=            -56.4020   ZZ=            -53.9723
   XY=             -2.3875   XZ=              0.8731   YZ=             -1.1876

  Exact polarizability:  95.726  -4.155  79.261  -1.244   1.181  59.879
 Approx polarizability: 131.184  -6.976 124.047  -6.995   4.630  91.791

                      1                      2                      3
                      A                      A                      A
 Frequencies --     47.4587               127.4813               186.7563
 Red. masses --      3.3917                 2.9953                 1.2609
 Frc consts  --      0.0045                 0.0287                 0.0259
 IR Inten    --      2.6669                 0.3311                 1.9785

                      4                      5                      6
                      A                      A                      A
 Frequencies --    206.1478               230.6440               269.3560
 Red. masses --      1.7927                 1.2138                 2.2166
 Frc consts  --      0.0449                 0.0380                 0.0948
 IR Inten    --      3.1211                 0.7320                16.2204

                      7                      8                      9
                      A                      A                      A
 Frequencies --    289.7031               350.1951               359.7187
 Red. masses --      3.4282                 2.9130                 1.4233
 Frc consts  --      0.1695                 0.2105                 0.1085
 IR Inten    --     14.5742                23.8662                52.4548

                     10                     11                     12
                      A                      A                      A
 Frequencies --    395.8955               469.5526               527.3138
 Red. masses --      2.6452                 2.0583                 3.6518
 Frc consts  --      0.2443                 0.2674                 0.5983
 IR Inten    --      0.5555                 3.5128                 5.7982

                     13                     14                     15
                      A                      A                      A
 Frequencies --    551.9243               607.8499               642.4192
 Red. masses --      4.2013                 3.3486                 3.3960
 Frc consts  --      0.7540                 0.7290                 0.8258
 IR Inten    --      6.2191                 1.9605                 1.4956

                     16                     17                     18
                      A                      A                      A
 Frequencies --    724.2141               850.6822               878.7813
 Red. masses --      3.5778                 1.4790                 3.1698
 Frc consts  --      1.1056                 0.6306                 1.4423
 IR Inten    --     10.1282                 8.3818                 0.9612

                     19                     20                     21
                      A                      A                      A
 Frequencies --    901.0936               954.4526               968.8660
 Red. masses --      2.0730                 2.2452                 1.7162
 Frc consts  --      0.9917                 1.2051                 0.9492
 IR Inten    --      1.9099                 3.6969                 9.9552

                     22                     23                     24
                      A                      A                      A
 Frequencies --   1011.5443              1046.1052              1076.2213
 Red. masses --      1.5107                 1.5911                 2.9899
 Frc consts  --      0.9108                 1.0259                 2.0403
 IR Inten    --      0.7800                16.2065                32.1780

                     25                     26                     27
                      A                      A                      A
 Frequencies --   1108.8005              1143.9738              1144.4835
 Red. masses --      2.9434                 1.8901                 1.8730
 Frc consts  --      2.1321                 1.4574                 1.4454
 IR Inten    --     30.2715               114.9086                19.9002

                     28                     29                     30
                      A                      A                      A
 Frequencies --   1168.7344              1221.5667              1298.1788
 Red. masses --      1.4564                 1.8944                 2.6586
 Frc consts  --      1.1721                 1.6656                 2.6398
 IR Inten    --     14.6580                 1.6018                 3.9009

                     31                     32                     33
                      A                      A                      A
 Frequencies --   1340.6434              1389.4428              1396.3730
 Red. masses --      2.1777                 1.3542                 1.4981
 Frc consts  --      2.3061                 1.5403                 1.7211
 IR Inten    --     10.0641                21.5418                11.4587

                     34                     35                     36
                      A                      A                      A
 Frequencies --   1415.2961              1445.4625              1477.6967
 Red. masses --      1.3161                 1.0884                 1.0445
 Frc consts  --      1.5532                 1.3398                 1.3437
 IR Inten    --      2.5620                 7.1245                 7.2122

                     37                     38                     39
                      A                      A                      A
 Frequencies --   1484.3966              1487.2030              1488.6305
 Red. masses --      1.0556                 1.0620                 1.0930
 Frc consts  --      1.3704                 1.3840                 1.4270
 IR Inten    --      8.4290                 0.8996                 5.3138

                     40                     41                     42
                      A                      A                      A
 Frequencies --   1711.6583              1847.7969              3013.1937
 Red. masses --      7.1729                12.6430                 1.0633
 Frc consts  --     12.3817                25.4337                 5.6881
 IR Inten    --     15.1149               177.9577                10.9480

                     43                     44                     45
                      A                      A                      A
 Frequencies --   3019.5242              3031.5866              3057.7573
 Red. masses --      1.0399                 1.0336                 1.0941
 Frc consts  --      5.5863                 5.5969                 6.0271
 IR Inten    --     28.9231                15.7346                 9.4672

                     46                     47                     48
                      A                      A                      A
 Frequencies --   3066.3553              3106.1613              3114.7190
 Red. masses --      1.0984                 1.1020                 1.0994
 Frc consts  --      6.0847                 6.2642                 6.2843
 IR Inten    --     17.1638                23.0663                16.0314

                     49                     50                     51
                      A                      A                      A
 Frequencies --   3117.2371              3191.6345              3755.8415
 Red. masses --      1.1023                 1.0937                 1.0654
 Frc consts  --      6.3110                 6.5638                 8.8551
 IR Inten    --     14.1704                 8.5659                28.8679

 - Thermochemistry -
 -------------------
 Temperature   298.150 Kelvin.  Pressure   1.00000 Atm.
 Atom     1 has atomic number  6 and mass  12.00000

 Molecular mass:   126.06808 amu.
 Principal axes and moments of inertia in atomic units:
                           1         2         3
     Eigenvalues --   707.030451333.752881647.14881
           X            0.99945  -0.02814   0.01773
           Y            0.02866   0.99916  -0.02945
           Z           -0.01689   0.02995   0.99941
 This molecule is an asymmetric top.
 Rotational symmetry number  1.
 Warning -- assumption of classical behavior for rotation
           may cause significant error
 Rotational temperatures (Kelvin)      0.12250     0.06494     0.05258
 Rotational constants (GHZ):           2.55257     1.35313     1.09568
 Zero-point vibrational energy     411029.2 (Joules/Mol)
                                   98.23835 (Kcal/Mol)
 Warning -- explicit consideration of  14 degrees of freedom as
           vibrations may cause significant error
 Vibrational temperatures:     68.28   183.42   268.70   296.60   331.84
          (Kelvin)            387.54   416.82   503.85   517.55   569.60
                              675.58   758.69   794.09   874.56   924.30
                             1041.98  1223.94  1264.37  1296.47  1373.24
                             1393.98  1455.38  1505.11  1548.44  1595.31
                             1645.92  1646.65  1681.55  1757.56  1867.79
                             1928.88  1999.10  2009.07  2036.29  2079.70
                             2126.07  2135.71  2139.75  2141.80  2462.69
                             2658.56  4335.31  4344.42  4361.77  4399.43
                             4411.80  4469.07  4481.38  4485.00  4592.04
                             5403.81

 Zero-point correction=                           0.156553 (Hartree/Particle)
 Thermal correction to Energy=                    0.166042
 Thermal correction to Enthalpy=                  0.166986
 Thermal correction to Gibbs Free Energy=         0.122320
 Sum of electronic and zero-point Energies=           -423.067399
 Sum of electronic and thermal Energies=              -423.057910
 Sum of electronic and thermal Enthalpies=            -423.056966
 Sum of electronic and thermal Free Energies=         -423.101632

                     E (Thermal)             CV                S
                      KCal/Mol        Cal/Mol-Kelvin    Cal/Mol-Kelvin
 Total                  104.193             35.440             94.008
 Electronic               0.000              0.000              0.000
 Translational            0.889              2.981             40.409
 Rotational               0.889              2.981             28.831
 Vibrational            102.415             29.479             24.768
 Vibration     1          0.595              1.979              4.921
 Vibration     2          0.611              1.926              2.984
 Vibration     3          0.632              1.858              2.260
 Vibration     4          0.641              1.831              2.078
 Vibration     5          0.652              1.794              1.874
 Vibration     6          0.674              1.730              1.600
 Vibration     7          0.686              1.693              1.476
 Vibration     8          0.727              1.575              1.165
 Vibration     9          0.734              1.555              1.123
 Vibration    10          0.763              1.479              0.978
 Vibration    11          0.827              1.318              0.739
 Vibration    12          0.882              1.190              0.593
 Vibration    13          0.907              1.135              0.540
 Vibration    14          0.967              1.015              0.436

 Optimization completed.
    -- Stationary point found.
 Normal termination of Gaussian 09 at Mon Jan 27 22:48:46 2020.
