 Gaussian 09, Revision D.01,
 Gaussian 09:  ES64L-G09RevD.01 24-Apr-2013

 -----------------------------
 # b3lyp 6-31G(2df,p) opt Freq
 -----------------------------

 -----
 titel
 -----
 Symbolic Z-matrix:
 Charge =  0 Multiplicity = 1

 SCF Done:  E(RB3LYP) =  -423.143552367     A.U. after   14 cycles
 Optimization completed.
    -- Stationary point found.
 Normal termination of Gaussian 09 at Mon Jan 27 11:52:35 2020.

 ----------------------------------------------------------------------
 #N Geom=AllCheck Guess=TCheck SCRF=Check GenChk RB3LYP/6-31G(2df,p) Fr
 eq
 ----------------------------------------------------------------------

 Structure from the checkpoint file:  "/scratch/puck/g09_eb885a83-a8d5-4958-a1df-09bed07299e2/Gau-20702.chk"
 -----
 titel
 -----
 Charge =  0 Multiplicity = 1

                         Standard orientation:
 ---------------------------------------------------------------------
 Center     Atomic      Atomic             Coordinates (Angstroms)
 Number     Number       Type             X           Y           Z
 ---------------------------------------------------------------------
      1          6           0       -1.728404   -1.179419    0.000021
      2          6           0       -2.370594    0.197078    0.000001
      3          6           0       -0.884920    0.048097   -0.000009
      4          6           0        0.107834    0.620193    1.008811
      5          6           0        1.277080   -0.339845    1.203219
      6          8           0        1.536834   -1.057971    0.000033
      7          6           0        1.277092   -0.339910   -1.203193
      8          6           0        0.107846    0.620140   -1.008848
      9          8           0        0.536861    1.587104   -0.000041
     10          1           0       -1.779472   -1.768372    0.910088
     11          1           0       -1.779481   -1.768371   -0.910048
     12          1           0       -2.852864    0.536520   -0.911260
     13          1           0       -2.852813    0.536552    0.911278
     14          1           0       -0.239679    1.090154    1.933530
     15          1           0        2.157922    0.240540    1.517972
     16          1           0        1.061464   -1.094248    1.968562
     17          1           0        2.157935    0.240460   -1.517967
     18          1           0        1.061486   -1.094355   -1.968499
     19          1           0       -0.239661    1.090055   -1.933594
 ---------------------------------------------------------------------

 SCF Done:  E(RB3LYP) =  -423.143552367     A.U. after    1 cycles

 The electronic state is 1-A.
 Alpha  occ. eigenvalues --  -19.13705 -19.13304 -10.23711 -10.23711 -10.22673
 Alpha  occ. eigenvalues --  -10.22672 -10.20168 -10.19053 -10.18993  -1.05735
 Alpha  occ. eigenvalues --   -1.01034  -0.85915  -0.76571  -0.71059  -0.64032
 Alpha  occ. eigenvalues --   -0.63216  -0.60690  -0.51817  -0.51363  -0.49489
 Alpha  occ. eigenvalues --   -0.47556  -0.46087  -0.45499  -0.43724  -0.39703
 Alpha  occ. eigenvalues --   -0.37194  -0.37030  -0.36359  -0.34297  -0.31330
 Alpha  occ. eigenvalues --   -0.29968  -0.27770  -0.26186  -0.23289
 Alpha virt. eigenvalues --    0.07942   0.09823   0.09993   0.11272   0.12285
 Alpha virt. eigenvalues --    0.12963   0.13046   0.15458   0.16186   0.16531
 Alpha virt. eigenvalues --    0.16678   0.18110   0.19628   0.22313   0.22805

 Mulliken charges:
               1
     1  C   -0.336578
     2  C   -0.360769
     3  C    0.437894
     4  C   -0.035815
     5  C   -0.066302
     6  O   -0.270908
     7  C   -0.066302
     8  C   -0.035819
     9  O   -0.305101
    10  H    0.116585
    11  H    0.116584
    12  H    0.116264
    13  H    0.116263
    14  H    0.081560
    15  H    0.100698
    16  H    0.104744
    17  H    0.100698
    18  H    0.104744
    19  H    0.081560
 Sum of Mulliken charges =   0.00000

 Dipole moment (field-independent basis, Debye):
    X=             -1.3157    Y=             -0.4511    Z=              0.0000  Tot=              1.3909
 Quadrupole moment (field-independent basis, Debye-Ang):
   XX=            -54.5574   YY=            -58.5681   ZZ=            -46.6199
   XY=              0.6727   XZ=              0.0000   YZ=              0.0003

  Exact polarizability:  79.694   0.741  67.331   0.000   0.000  77.135
 Approx polarizability: 104.928   1.742 106.335   0.000   0.000 112.306

                      1                      2                      3
                      A                      A                      A
 Frequencies --    146.7168               211.3706               220.6365
 Red. masses --      4.6515                 2.2027                 2.7168
 Frc consts  --      0.0590                 0.0580                 0.0779
 IR Inten    --      0.5708                 0.0227                10.4721

                      4                      5                      6
                      A                      A                      A
 Frequencies --    243.2759               363.3139               410.1505
 Red. masses --      2.1644                 2.0689                 3.5528
 Frc consts  --      0.0755                 0.1609                 0.3521
 IR Inten    --      0.0566                 2.2550                 2.3489

                      7                      8                      9
                      A                      A                      A
 Frequencies --    449.0332               569.4072               606.5073
 Red. masses --      6.3895                 3.4799                 4.3519
 Frc consts  --      0.7591                 0.6647                 0.9432
 IR Inten    --      0.5204                 0.6766                 0.0899

                     10                     11                     12
                      A                      A                      A
 Frequencies --    719.1447               766.0200               852.4918
 Red. masses --      4.0855                 1.0547                 4.2001
 Frc consts  --      1.2449                 0.3646                 1.7984
 IR Inten    --     21.1976                 0.0782                21.6981

                     13                     14                     15
                      A                      A                      A
 Frequencies --    857.4201               864.7836               883.2557
 Red. masses --      2.1929                 2.6277                 3.3578
 Frc consts  --      0.9499                 1.1578                 1.5434
 IR Inten    --      0.0010                26.5604                39.4367

                     16                     17                     18
                      A                      A                      A
 Frequencies --    931.4124               934.6985               966.5805
 Red. masses --      1.4185                 2.9915                 1.8512
 Frc consts  --      0.7250                 1.5399                 1.0190
 IR Inten    --     16.9897                 2.0582                 1.4335

                     19                     20                     21
                      A                      A                      A
 Frequencies --    971.6951              1019.8495              1027.2761
 Red. masses --      3.0292                 1.8446                 2.2557
 Frc consts  --      1.6851                 1.1304                 1.4025
 IR Inten    --      8.3417                18.0992                 2.8553

                     22                     23                     24
                      A                      A                      A
 Frequencies --   1054.1655              1062.1383              1078.1983
 Red. masses --      1.4730                 2.2415                 1.4111
 Frc consts  --      0.9644                 1.4899                 0.9665
 IR Inten    --      4.8843                 6.2496                 0.5141

                     25                     26                     27
                      A                      A                      A
 Frequencies --   1101.9446              1144.3359              1182.0395
 Red. masses --      3.8824                 6.3266                 1.2768
 Frc consts  --      2.7776                 4.8812                 1.0511
 IR Inten    --      2.9408               105.0310                 0.2358

                     28                     29                     30
                      A                      A                      A
 Frequencies --   1198.4727              1227.8812              1236.9936
 Red. masses --      1.2936                 1.3721                 1.7943
 Frc consts  --      1.0948                 1.2189                 1.6176
 IR Inten    --      5.1841                 0.6894                 7.2549

                     31                     32                     33
                      A                      A                      A
 Frequencies --   1269.7440              1290.9194              1299.7247
 Red. masses --      1.3536                 1.5742                 1.4151
 Frc consts  --      1.2858                 1.5456                 1.4084
 IR Inten    --      2.5200                 0.2570                 8.9244

                     34                     35                     36
                      A                      A                      A
 Frequencies --   1326.2647              1365.8323              1400.9814
 Red. masses --      1.5150                 1.2945                 1.5594
 Frc consts  --      1.5700                 1.4228                 1.8033
 IR Inten    --      0.5900                 0.5612                 0.9511

                     37                     38                     39
                      A                      A                      A
 Frequencies --   1437.6775              1463.8578              1485.9364
 Red. masses --      1.6364                 1.0916                 1.0842
 Frc consts  --      1.9928                 1.3782                 1.4105
 IR Inten    --      3.4339                 1.6711                 0.1674

                     40                     41                     42
                      A                      A                      A
 Frequencies --   1497.7769              1516.0207              2987.7374
 Red. masses --      1.0981                 1.9914                 1.0646
 Frc consts  --      1.4514                 2.6967                 5.5991
 IR Inten    --      2.5349                 0.5809                58.9361

                     43                     44                     45
                      A                      A                      A
 Frequencies --   2994.2861              3061.5200              3063.1329
 Red. masses --      1.0663                 1.0960                 1.0981
 Frc consts  --      5.6328                 6.0524                 6.0705
 IR Inten    --     56.6996                 4.4493                42.7943

                     46                     47                     48
                      A                      A                      A
 Frequencies --   3072.8161              3075.6043              3123.2118
 Red. masses --      1.0868                 1.0919                 1.0517
 Frc consts  --      6.0462                 6.0852                 6.0442
 IR Inten    --    102.1245                 5.5730                18.2304

                     49                     50                     51
                      A                      A                      A
 Frequencies --   3128.3265              3200.9203              3215.2542
 Red. masses --      1.0573                 1.1177                 1.1152
 Frc consts  --      6.0961                 6.7475                 6.7925
 IR Inten    --      9.9623                 0.2316                14.5721

 - Thermochemistry -
 -------------------
 Temperature   298.150 Kelvin.  Pressure   1.00000 Atm.
 Atom     1 has atomic number  6 and mass  12.00000

 Molecular mass:   126.06808 amu.
 Principal axes and moments of inertia in atomic units:
                           1         2         3
     Eigenvalues --   648.679081112.347361171.76468
           X            0.99994   0.01125   0.00000
           Y           -0.01125   0.99994   0.00002
           Z            0.00000  -0.00002   1.00000
 This molecule is an asymmetric top.
 Rotational symmetry number  1.
 Warning -- assumption of classical behavior for rotation
           may cause significant error
 Rotational temperatures (Kelvin)      0.13352     0.07787     0.07392
 Rotational constants (GHZ):           2.78218     1.62246     1.54019
 Zero-point vibrational energy     422154.7 (Joules/Mol)
                                  100.89739 (Kcal/Mol)
 Warning -- explicit consideration of   9 degrees of freedom as
           vibrations may cause significant error
 Vibrational temperatures:    211.09   304.11   317.45   350.02   522.73
          (Kelvin)            590.11   646.06   819.25   872.63  1034.69
                             1102.13  1226.54  1233.63  1244.23  1270.81
                             1340.09  1344.82  1390.69  1398.05  1467.33
                             1478.02  1516.71  1528.18  1551.28  1585.45
                             1646.44  1700.69  1724.33  1766.64  1779.76
                             1826.88  1857.34  1870.01  1908.20  1965.13
                             2015.70  2068.49  2106.16  2137.93  2154.96
                             2181.21  4298.68  4308.10  4404.84  4407.16
                             4421.09  4425.10  4493.60  4500.96  4605.40
                             4626.03

 Zero-point correction=                           0.160790 (Hartree/Particle)
 Thermal correction to Energy=                    0.168056
 Thermal correction to Enthalpy=                  0.169000
 Thermal correction to Gibbs Free Energy=         0.129381
 Sum of electronic and zero-point Energies=           -422.982762
 Sum of electronic and thermal Energies=              -422.975496
 Sum of electronic and thermal Enthalpies=            -422.974552
 Sum of electronic and thermal Free Energies=         -423.014171

                     E (Thermal)             CV                S
                      KCal/Mol        Cal/Mol-Kelvin    Cal/Mol-Kelvin
 Total                  105.457             29.372             83.385
 Electronic               0.000              0.000              0.000
 Translational            0.889              2.981             40.409
 Rotational               0.889              2.981             28.227
 Vibrational            103.679             23.411             14.750
 Vibration     1          0.617              1.906              2.714
 Vibration     2          0.643              1.824              2.032
 Vibration     3          0.647              1.810              1.954
 Vibration     4          0.659              1.774              1.779
 Vibration     5          0.737              1.548              1.108
 Vibration     6          0.774              1.448              0.926
 Vibration     7          0.808              1.363              0.799
 Vibration     8          0.925              1.097              0.505
 Vibration     9          0.965              1.018              0.439

 Normal termination of Gaussian 09 at Mon Jan 27 12:36:11 2020.
