 Gaussian 09, Revision D.01,
 Gaussian 09:  ES64L-G09RevD.01 24-Apr-2013

 -----------------------------
 # b3lyp 6-31G(2df,p) opt Freq
 -----------------------------

 -----
 titel
 -----
 Symbolic Z-matrix:
 Charge =  0 Multiplicity = 1

 SCF Done:  E(RB3LYP) =  -423.191484695     A.U. after   12 cycles
 Optimization completed.
    -- Stationary point found.
 Normal termination of Gaussian 09 at Mon Jan 27 23:48:31 2020.

 ----------------------------------------------------------------------
 #N Geom=AllCheck Guess=TCheck SCRF=Check GenChk RB3LYP/6-31G(2df,p) Fr
 eq
 ----------------------------------------------------------------------

 Structure from the checkpoint file:  "/scratch/puck/g09_2ac4e1b6-46e5-445d-b385-71a934b91199/Gau-78119.chk"
 -----
 titel
 -----
 Charge =  0 Multiplicity = 1

                         Standard orientation:
 ---------------------------------------------------------------------
 Center     Atomic      Atomic             Coordinates (Angstroms)
 Number     Number       Type             X           Y           Z
 ---------------------------------------------------------------------
      1          6           0       -2.487464    0.211453   -0.102564
      2          6           0       -1.040878    0.244500   -0.596316
      3          6           0       -0.123223    1.150422    0.257043
      4          8           0        1.114247    1.418133   -0.442085
      5          6           0        1.644159    0.154363    0.021811
      6          6           0        1.152450   -0.989912   -0.882634
      7          6           0       -0.305122   -1.106727   -0.377465
      8          8           0       -0.117740   -1.122277    1.053041
      9          6           0        0.581984    0.093511    1.166315
     10          1           0       -3.093019   -0.471691   -0.707407
     11          1           0       -2.536432   -0.127159    0.936219
     12          1           0       -2.945097    1.204470   -0.161200
     13          1           0       -0.993195    0.566766   -1.640426
     14          1           0       -0.586948    2.054499    0.656562
     15          1           0        2.716535    0.193919    0.216992
     16          1           0        1.246104   -0.734054   -1.939984
     17          1           0        1.692179   -1.920048   -0.680938
     18          1           0       -0.851762   -2.000349   -0.679426
     19          1           0        0.848152    0.321135    2.194814
 ---------------------------------------------------------------------

 SCF Done:  E(RB3LYP) =  -423.191484695     A.U. after    1 cycles

 The electronic state is 1-A.
 Alpha  occ. eigenvalues --  -19.14607 -19.13263 -10.23431 -10.23313 -10.23295
 Alpha  occ. eigenvalues --  -10.23062 -10.18869 -10.18401 -10.17632  -1.07065
 Alpha  occ. eigenvalues --   -1.02269  -0.79433  -0.76353  -0.72268  -0.67989
 Alpha  occ. eigenvalues --   -0.60338  -0.57837  -0.55112  -0.53398  -0.49009
 Alpha  occ. eigenvalues --   -0.44799  -0.43212  -0.42661  -0.41019  -0.39985
 Alpha  occ. eigenvalues --   -0.39276  -0.37980  -0.37147  -0.34568  -0.33558
 Alpha  occ. eigenvalues --   -0.30656  -0.30446  -0.25923  -0.24117
 Alpha virt. eigenvalues --    0.07668   0.09421   0.11954   0.13112   0.13290
 Alpha virt. eigenvalues --    0.15092   0.15642   0.15723   0.16356   0.16920
 Alpha virt. eigenvalues --    0.17088   0.17678   0.18778   0.19972   0.21565

 Mulliken charges:
               1
     1  C   -0.420424
     2  C    0.016293
     3  C    0.053585
     4  O   -0.305561
     5  C    0.063235
     6  C   -0.235606
     7  C    0.042539
     8  O   -0.258439
     9  C    0.056192
    10  H    0.114624
    11  H    0.133574
    12  H    0.114380
    13  H    0.083349
    14  H    0.076259
    15  H    0.080754
    16  H    0.110967
    17  H    0.106040
    18  H    0.076822
    19  H    0.091418
 Sum of Mulliken charges =   0.00000

 Dipole moment (field-independent basis, Debye):
    X=             -0.3321    Y=             -0.4750    Z=             -0.2143  Tot=              0.6179
 Quadrupole moment (field-independent basis, Debye-Ang):
   XX=            -51.5027   YY=            -55.7406   ZZ=            -52.7436
   XY=             -2.8942   XZ=              2.1119   YZ=              4.3730

  Exact polarizability:  81.307  -2.676  69.829   1.014   4.014  66.557
 Approx polarizability: 108.796  -0.454 107.751   0.271   1.078 103.853

                      1                      2                      3
                      A                      A                      A
 Frequencies --    191.5503               206.9969               278.1455
 Red. masses --      2.4853                 1.1329                 2.4577
 Frc consts  --      0.0537                 0.0286                 0.1120
 IR Inten    --      0.1323                 0.2853                 0.0903

                      4                      5                      6
                      A                      A                      A
 Frequencies --    347.6143               414.6128               487.1477
 Red. masses --      2.9381                 2.7239                 3.5278
 Frc consts  --      0.2092                 0.2759                 0.4933
 IR Inten    --      3.7994                 4.0420                 6.8907

                      7                      8                      9
                      A                      A                      A
 Frequencies --    570.2761               650.1546               674.3453
 Red. masses --      5.8781                 5.9785                 3.8789
 Frc consts  --      1.1263                 1.4889                 1.0393
 IR Inten    --     12.3564                 0.3505                 1.0064

                     10                     11                     12
                      A                      A                      A
 Frequencies --    761.4869               821.7557               840.5623
 Red. masses --      3.4390                 2.5334                 2.2940
 Frc consts  --      1.1749                 1.0080                 0.9550
 IR Inten    --      1.4505                14.8919                 6.9958

                     13                     14                     15
                      A                      A                      A
 Frequencies --    856.1941               886.3344               900.1706
 Red. masses --      2.1593                 2.2985                 3.4184
 Frc consts  --      0.9326                 1.0639                 1.6320
 IR Inten    --      4.8291                 6.3779                 4.6477

                     16                     17                     18
                      A                      A                      A
 Frequencies --    936.7424               940.4013               981.6743
 Red. masses --      2.3021                 2.4784                 2.4250
 Frc consts  --      1.1902                 1.2914                 1.3769
 IR Inten    --      3.4199                14.5274                22.8752

                     19                     20                     21
                      A                      A                      A
 Frequencies --    995.5907              1018.1149              1024.1806
 Red. masses --      3.6332                 2.2128                 1.7464
 Frc consts  --      2.1218                 1.3514                 1.0793
 IR Inten    --     51.6916                21.1958                15.1407

                     22                     23                     24
                      A                      A                      A
 Frequencies --   1042.8244              1079.3472              1091.6495
 Red. masses --      2.6118                 2.2934                 1.7693
 Frc consts  --      1.6735                 1.5742                 1.2422
 IR Inten    --      8.6079                32.7295                21.4312

                     25                     26                     27
                      A                      A                      A
 Frequencies --   1116.5698              1129.9891              1163.1618
 Red. masses --      2.1923                 2.5911                 1.2147
 Frc consts  --      1.6103                 1.9493                 0.9683
 IR Inten    --      1.9839                 0.3607                 4.0362

                     28                     29                     30
                      A                      A                      A
 Frequencies --   1202.9785              1241.8858              1260.5588
 Red. masses --      1.4354                 1.6732                 1.4047
 Frc consts  --      1.2239                 1.5204                 1.3151
 IR Inten    --      0.5833                 7.7870                 1.3337

                     31                     32                     33
                      A                      A                      A
 Frequencies --   1273.1013              1283.7773              1302.1022
 Red. masses --      1.5226                 1.3580                 1.5013
 Frc consts  --      1.4540                 1.3186                 1.4997
 IR Inten    --      4.5957                 6.0945                 3.1431

                     34                     35                     36
                      A                      A                      A
 Frequencies --   1314.8138              1332.5891              1365.6541
 Red. masses --      1.5064                 1.4126                 1.5755
 Frc consts  --      1.5343                 1.4779                 1.7312
 IR Inten    --      4.5524                 6.9535                 4.9906

                     37                     38                     39
                      A                      A                      A
 Frequencies --   1373.2976              1405.9004              1465.5409
 Red. masses --      1.6364                 1.2396                 1.1043
 Frc consts  --      1.8184                 1.4436                 1.3974
 IR Inten    --      0.8588                 2.8062                 3.6742

                     40                     41                     42
                      A                      A                      A
 Frequencies --   1493.9717              1505.4796              3034.6400
 Red. masses --      1.0450                 1.0499                 1.0357
 Frc consts  --      1.3742                 1.4019                 5.6193
 IR Inten    --      4.6523                 3.3630                26.8034

                     43                     44                     45
                      A                      A                      A
 Frequencies --   3061.1313              3072.1453              3093.0511
 Red. masses --      1.0616                 1.0848                 1.0905
 Frc consts  --      5.8610                 6.0321                 6.1466
 IR Inten    --     16.9444                11.8073                29.3856

                     46                     47                     48
                      A                      A                      A
 Frequencies --   3098.9516              3106.6398              3117.0072
 Red. masses --      1.1002                 1.0899                 1.0982
 Frc consts  --      6.2251                 6.1974                 6.2866
 IR Inten    --     35.6565                47.7826                14.6622

                     49                     50                     51
                      A                      A                      A
 Frequencies --   3118.4491              3124.6512              3163.5520
 Red. masses --      1.0925                 1.1043                 1.0928
 Frc consts  --      6.2596                 6.3523                 6.4441
 IR Inten    --     31.5433                18.3295                22.4117

 - Thermochemistry -
 -------------------
 Temperature   298.150 Kelvin.  Pressure   1.00000 Atm.
 Atom     1 has atomic number  6 and mass  12.00000

 Molecular mass:   126.06808 amu.
 Principal axes and moments of inertia in atomic units:
                           1         2         3
     Eigenvalues --   636.71396 956.136581114.51076
           X            0.99830  -0.05825   0.00326
           Y            0.05746   0.99137   0.11779
           Z           -0.01009  -0.11740   0.99303
 This molecule is an asymmetric top.
 Rotational symmetry number  1.
 Warning -- assumption of classical behavior for rotation
           may cause significant error
 Rotational temperatures (Kelvin)      0.13603     0.09059     0.07771
 Rotational constants (GHZ):           2.83446     1.88753     1.61931
 Zero-point vibrational energy     425987.0 (Joules/Mol)
                                  101.81333 (Kcal/Mol)
 Warning -- explicit consideration of   7 degrees of freedom as
           vibrations may cause significant error
 Vibrational temperatures:    275.60   297.82   400.19   500.14   596.53
          (Kelvin)            700.90   820.50   935.43   970.23  1095.61
                             1182.32  1209.38  1231.87  1275.24  1295.14
                             1347.76  1353.03  1412.41  1432.43  1464.84
                             1473.57  1500.39  1552.94  1570.64  1606.49
                             1625.80  1673.53  1730.82  1786.79  1813.66
                             1831.71  1847.07  1873.43  1891.72  1917.30
                             1964.87  1975.87  2022.77  2108.58  2149.49
                             2166.05  4366.16  4404.28  4420.13  4450.21
                             4458.69  4469.76  4484.67  4486.75  4495.67
                             4551.64

 Zero-point correction=                           0.162250 (Hartree/Particle)
 Thermal correction to Energy=                    0.168914
 Thermal correction to Enthalpy=                  0.169858
 Thermal correction to Gibbs Free Energy=         0.131554
 Sum of electronic and zero-point Energies=           -423.029235
 Sum of electronic and thermal Energies=              -423.022571
 Sum of electronic and thermal Enthalpies=            -423.021627
 Sum of electronic and thermal Free Energies=         -423.059930

                     E (Thermal)             CV                S
                      KCal/Mol        Cal/Mol-Kelvin    Cal/Mol-Kelvin
 Total                  105.995             27.977             80.616
 Electronic               0.000              0.000              0.000
 Translational            0.889              2.981             40.409
 Rotational               0.889              2.981             28.008
 Vibrational            104.217             22.015             12.200
 Vibration     1          0.634              1.852              2.213
 Vibration     2          0.641              1.830              2.070
 Vibration     3          0.679              1.714              1.545
 Vibration     4          0.725              1.580              1.177
 Vibration     5          0.778              1.439              0.910
 Vibration     6          0.843              1.279              0.691
 Vibration     7          0.926              1.096              0.504

 Optimization completed.
    -- Stationary point found.
 Normal termination of Gaussian 09 at Tue Jan 28 00:37:01 2020.
