 Gaussian 09, Revision D.01,
 Gaussian 09:  ES64L-G09RevD.01 24-Apr-2013

 -----------------------------
 # b3lyp 6-31G(2df,p) opt Freq
 -----------------------------

 -----
 titel
 -----
 Symbolic Z-matrix:
 Charge =  0 Multiplicity = 1

 SCF Done:  E(RB3LYP) =  -423.204121752     A.U. after   14 cycles
 Optimization completed.
    -- Stationary point found.
 Normal termination of Gaussian 09 at Mon Jan 27 23:03:27 2020.

 ----------------------------------------------------------------------
 #N Geom=AllCheck Guess=TCheck SCRF=Check GenChk RB3LYP/6-31G(2df,p) Fr
 eq
 ----------------------------------------------------------------------

 Structure from the checkpoint file:  "/scratch/puck/g09_a1870939-2617-41e1-ba33-df95f3c1c868/Gau-102369.chk"
 -----
 titel
 -----
 Charge =  0 Multiplicity = 1

                         Standard orientation:
 ---------------------------------------------------------------------
 Center     Atomic      Atomic             Coordinates (Angstroms)
 Number     Number       Type             X           Y           Z
 ---------------------------------------------------------------------
      1          6           0       -2.500122    0.178567   -0.845157
      2          6           0       -1.228416    0.219709   -0.033491
      3          6           0       -1.232291   -0.245715    1.402953
      4          6           0       -0.483242   -1.048163    0.364661
      5          6           0        1.002566   -0.818869    0.293213
      6          8           0        1.513614   -1.458526   -0.873788
      7          6           0        1.149449    0.711251    0.094743
      8          8           0        2.188925    1.308612    0.206999
      9          6           0       -0.195488    1.289667   -0.351362
     10          1           0       -3.105341    1.078641   -0.685914
     11          1           0       -2.282717    0.108163   -1.917152
     12          1           0       -3.114045   -0.685509   -0.571558
     13          1           0       -0.665081    0.313034    2.143759
     14          1           0       -2.150193   -0.674901    1.789655
     15          1           0       -0.854727   -2.026286    0.081193
     16          1           0        1.544887   -1.143781    1.192642
     17          1           0        2.444934   -1.217601   -0.943421
     18          1           0       -0.373263    2.259106    0.125220
     19          1           0       -0.139500    1.469761   -1.433478
 ---------------------------------------------------------------------

 SCF Done:  E(RB3LYP) =  -423.204121752     A.U. after    1 cycles

 The electronic state is 1-A.
 Alpha  occ. eigenvalues --  -19.14708 -19.13843 -10.26985 -10.23858 -10.20642
 Alpha  occ. eigenvalues --  -10.19428 -10.19372 -10.19307 -10.18432  -1.05202
 Alpha  occ. eigenvalues --   -1.02295  -0.89136  -0.74583  -0.74005  -0.68952
 Alpha  occ. eigenvalues --   -0.59896  -0.56033  -0.54197  -0.50961  -0.49130
 Alpha  occ. eigenvalues --   -0.46745  -0.44531  -0.42854  -0.42298  -0.40953
 Alpha  occ. eigenvalues --   -0.39438  -0.38917  -0.36825  -0.35824  -0.34630
 Alpha  occ. eigenvalues --   -0.29823  -0.29386  -0.27398  -0.23661
 Alpha virt. eigenvalues --   -0.02763   0.08242   0.09194   0.10751   0.12069
 Alpha virt. eigenvalues --    0.13323   0.13488   0.15305   0.16145   0.17509
 Alpha virt. eigenvalues --    0.18015   0.18754   0.19546   0.20925   0.22243

 Mulliken charges:
               1
     1  C   -0.482966
     2  C    0.348990
     3  C   -0.349100
     4  C   -0.079547
     5  C    0.035886
     6  O   -0.441168
     7  C    0.347872
     8  O   -0.319570
     9  C   -0.387603
    10  H    0.119715
    11  H    0.121655
    12  H    0.117333
    13  H    0.113621
    14  H    0.116453
    15  H    0.097438
    16  H    0.084519
    17  H    0.293395
    18  H    0.127825
    19  H    0.135250
 Sum of Mulliken charges =   0.00000

 Dipole moment (field-independent basis, Debye):
    X=             -1.7851    Y=             -0.4487    Z=              0.2636  Tot=              1.8594
 Quadrupole moment (field-independent basis, Debye-Ang):
   XX=            -53.6262   YY=            -56.0758   ZZ=            -52.5044
   XY=             -3.8906   XZ=             -1.1388   YZ=             -1.9463

  Exact polarizability:  85.690   0.112  72.367   0.564  -1.354  67.970
 Approx polarizability: 117.818   3.273 109.302   0.496   1.284 103.688

                      1                      2                      3
                      A                      A                      A
 Frequencies --     56.2248               137.1886               224.5371
 Red. masses --      4.2845                 3.4483                 1.1679
 Frc consts  --      0.0080                 0.0382                 0.0347
 IR Inten    --      5.9943                 0.2542                 1.6896

                      4                      5                      6
                      A                      A                      A
 Frequencies --    233.2285               280.4832               333.3696
 Red. masses --      3.0673                 2.7606                 2.4474
 Frc consts  --      0.0983                 0.1280                 0.1603
 IR Inten    --      4.9594                 2.4418                 7.6638

                      7                      8                      9
                      A                      A                      A
 Frequencies --    370.4161               375.7825               439.9683
 Red. masses --      2.1404                 1.1611                 3.5802
 Frc consts  --      0.1730                 0.0966                 0.4083
 IR Inten    --      1.6982               113.5825                 2.2393

                     10                     11                     12
                      A                      A                      A
 Frequencies --    470.3895               520.8235               611.6674
 Red. masses --      4.1177                 3.1895                 2.9423
 Frc consts  --      0.5368                 0.5097                 0.6486
 IR Inten    --      3.1600                 1.0841                 5.3785

                     13                     14                     15
                      A                      A                      A
 Frequencies --    646.1946               743.5895               786.8886
 Red. masses --      4.0473                 4.3207                 3.0316
 Frc consts  --      0.9957                 1.4076                 1.1060
 IR Inten    --     11.9050                 5.2444                 4.8120

                     16                     17                     18
                      A                      A                      A
 Frequencies --    826.8648               870.6633               915.2661
 Red. masses --      1.9090                 1.8122                 1.5261
 Frc consts  --      0.7690                 0.8094                 0.7532
 IR Inten    --      1.7080                 5.8219                 0.3849

                     19                     20                     21
                      A                      A                      A
 Frequencies --    966.0129               984.6726              1040.6887
 Red. masses --      1.8977                 1.8879                 2.0598
 Frc consts  --      1.0434                 1.0785                 1.3143
 IR Inten    --      1.0783                 6.0448                19.9897

                     22                     23                     24
                      A                      A                      A
 Frequencies --   1053.4463              1058.6941              1084.6952
 Red. masses --      2.0360                 1.2674                 2.9175
 Frc consts  --      1.3312                 0.8369                 2.0224
 IR Inten    --     31.2307                 3.9853                60.3710

                     25                     26                     27
                      A                      A                      A
 Frequencies --   1089.0583              1104.1898              1163.5958
 Red. masses --      1.7746                 1.5102                 2.5729
 Frc consts  --      1.2401                 1.0848                 2.0525
 IR Inten    --      0.5786                 1.6657                23.3979

                     28                     29                     30
                      A                      A                      A
 Frequencies --   1185.9526              1218.1381              1240.2224
 Red. masses --      1.5145                 1.3624                 1.3729
 Frc consts  --      1.2550                 1.1911                 1.2442
 IR Inten    --     18.8679                20.2628                14.3094

                     31                     32                     33
                      A                      A                      A
 Frequencies --   1293.8080              1313.1164              1330.9074
 Red. masses --      1.6924                 1.8865                 2.0727
 Frc consts  --      1.6691                 1.9165                 2.1632
 IR Inten    --      6.8247                10.9754                 6.9679

                     34                     35                     36
                      A                      A                      A
 Frequencies --   1393.2035              1418.6980              1429.4966
 Red. masses --      1.7372                 1.4260                 1.6818
 Frc consts  --      1.9866                 1.6910                 2.0249
 IR Inten    --     10.8528                 4.7546                 9.8911

                     37                     38                     39
                      A                      A                      A
 Frequencies --   1449.2085              1489.7778              1494.6204
 Red. masses --      1.1140                 1.0577                 1.1860
 Frc consts  --      1.3785                 1.3831                 1.5610
 IR Inten    --      3.9131                 3.9823                 3.5857

                     40                     41                     42
                      A                      A                      A
 Frequencies --   1504.1132              1843.9389              3002.8165
 Red. masses --      1.1485                12.6174                 1.0839
 Frc consts  --      1.5308                25.2763                 5.7582
 IR Inten    --      2.7178               188.2904                48.8570

                     43                     44                     45
                      A                      A                      A
 Frequencies --   3023.0242              3028.2891              3080.9562
 Red. masses --      1.0380                 1.0619                 1.0969
 Frc consts  --      5.5892                 5.7374                 6.1345
 IR Inten    --     31.1413                15.1235                 6.1073

                     46                     47                     48
                      A                      A                      A
 Frequencies --   3083.8524              3098.7928              3113.4400
 Red. masses --      1.1007                 1.1005                 1.0573
 Frc consts  --      6.1677                 6.2263                 6.0383
 IR Inten    --     27.4158                21.5345                12.5641

                     49                     50                     51
                      A                      A                      A
 Frequencies --   3179.1343              3203.5052              3796.7969
 Red. masses --      1.0917                 1.1125                 1.0660
 Frc consts  --      6.5008                 6.7269                 9.0542
 IR Inten    --      5.4994                10.6340                27.4194

 - Thermochemistry -
 -------------------
 Temperature   298.150 Kelvin.  Pressure   1.00000 Atm.
 Atom     1 has atomic number  6 and mass  12.00000

 Molecular mass:   126.06808 amu.
 Principal axes and moments of inertia in atomic units:
                           1         2         3
     Eigenvalues --   688.583471287.075301504.99887
           X            0.99963  -0.02422   0.01246
           Y            0.02487   0.99822  -0.05429
           Z           -0.01112   0.05458   0.99845
 This molecule is an asymmetric top.
 Rotational symmetry number  1.
 Warning -- assumption of classical behavior for rotation
           may cause significant error
 Rotational temperatures (Kelvin)      0.12579     0.06730     0.05755
 Rotational constants (GHZ):           2.62095     1.40220     1.19916
 Zero-point vibrational energy     416326.8 (Joules/Mol)
                                   99.50450 (Kcal/Mol)
 Warning -- explicit consideration of  12 degrees of freedom as
           vibrations may cause significant error
 Vibrational temperatures:     80.89   197.38   323.06   335.56   403.55
          (Kelvin)            479.64   532.95   540.67   633.02   676.78
                              749.35   880.05   929.73  1069.86  1132.16
                             1189.67  1252.69  1316.86  1389.88  1416.72
                             1497.32  1515.67  1523.22  1560.63  1566.91
                             1588.68  1674.15  1706.32  1752.63  1784.40
                             1861.50  1889.28  1914.88  2004.51  2041.19
                             2056.72  2085.09  2143.46  2150.42  2164.08
                             2653.01  4320.38  4349.45  4357.03  4432.80
                             4436.97  4458.47  4479.54  4574.06  4609.12
                             5462.74

 Zero-point correction=                           0.158571 (Hartree/Particle)
 Thermal correction to Energy=                    0.167193
 Thermal correction to Enthalpy=                  0.168137
 Thermal correction to Gibbs Free Energy=         0.125325
 Sum of electronic and zero-point Energies=           -423.045551
 Sum of electronic and thermal Energies=              -423.036929
 Sum of electronic and thermal Enthalpies=            -423.035984
 Sum of electronic and thermal Free Energies=         -423.078797

                     E (Thermal)             CV                S
                      KCal/Mol        Cal/Mol-Kelvin    Cal/Mol-Kelvin
 Total                  104.915             33.245             90.106
 Electronic               0.000              0.000              0.000
 Translational            0.889              2.981             40.409
 Rotational               0.889              2.981             28.680
 Vibrational            103.138             27.284             21.018
 Vibration     1          0.596              1.975              4.585
 Vibration     2          0.614              1.916              2.843
 Vibration     3          0.649              1.804              1.922
 Vibration     4          0.654              1.790              1.854
 Vibration     5          0.680              1.710              1.531
 Vibration     6          0.715              1.609              1.244
 Vibration     7          0.742              1.533              1.078
 Vibration     8          0.747              1.522              1.056
 Vibration     9          0.800              1.383              0.827
 Vibration    10          0.827              1.316              0.736
 Vibration    11          0.876              1.204              0.608
 Vibration    12          0.971              1.007              0.430

 Optimization completed.
    -- Stationary point found.
 Normal termination of Gaussian 09 at Mon Jan 27 23:48:35 2020.
