 Gaussian 09, Revision D.01,
 Gaussian 09:  ES64L-G09RevD.01 24-Apr-2013

 -----------------------------
 # b3lyp 6-31G(2df,p) opt Freq
 -----------------------------

 -----
 titel
 -----
 Symbolic Z-matrix:
 Charge =  0 Multiplicity = 1

 SCF Done:  E(RB3LYP) =  -423.210745321     A.U. after   13 cycles
 Optimization completed.
    -- Stationary point found.
 Normal termination of Gaussian 09 at Tue Jan 28 03:51:32 2020.

 ----------------------------------------------------------------------
 #N Geom=AllCheck Guess=TCheck SCRF=Check GenChk RB3LYP/6-31G(2df,p) Fr
 eq
 ----------------------------------------------------------------------

 Structure from the checkpoint file:  "/scratch/puck/g09_ee5007f9-e075-440e-a9d5-59edfb0b43e1/Gau-80710.chk"
 -----
 titel
 -----
 Charge =  0 Multiplicity = 1

                         Standard orientation:
 ---------------------------------------------------------------------
 Center     Atomic      Atomic             Coordinates (Angstroms)
 Number     Number       Type             X           Y           Z
 ---------------------------------------------------------------------
      1          6           0       -2.659870   -0.059109   -0.786460
      2          6           0       -1.596122   -0.091639    0.287149
      3          8           0       -0.659820   -1.113790    0.022422
      4          6           0        0.534284   -0.746347    0.701890
      5          6           0        1.768565   -1.123887   -0.137205
      6          6           0        2.187142    0.185816   -0.761129
      7          6           0        1.494808    1.225318   -0.299470
      8          6           0        0.465017    0.810273    0.718056
      9          8           0       -0.867299    1.122808    0.302088
     10          1           0       -3.213336   -1.001617   -0.794637
     11          1           0       -3.358522    0.758345   -0.592032
     12          1           0       -2.190017    0.093379   -1.760900
     13          1           0       -2.044953   -0.255842    1.286499
     14          1           0        0.548091   -1.183484    1.708531
     15          1           0        2.564637   -1.545547    0.488841
     16          1           0        1.507577   -1.887611   -0.878042
     17          1           0        2.976645    0.244078   -1.503115
     18          1           0        1.620453    2.258941   -0.599128
     19          1           0        0.643433    1.244662    1.710920
 ---------------------------------------------------------------------

 SCF Done:  E(RB3LYP) =  -423.210745321     A.U. after    1 cycles

 The electronic state is 1-A.
 Alpha  occ. eigenvalues --  -19.14222 -19.13662 -10.27281 -10.23439 -10.23273
 Alpha  occ. eigenvalues --  -10.18850 -10.18820 -10.18008 -10.17332  -1.08216
 Alpha  occ. eigenvalues --   -0.98773  -0.84206  -0.75479  -0.70949  -0.68243
 Alpha  occ. eigenvalues --   -0.59842  -0.58585  -0.54514  -0.52660  -0.48123
 Alpha  occ. eigenvalues --   -0.46597  -0.46307  -0.42888  -0.40876  -0.39080
 Alpha  occ. eigenvalues --   -0.38232  -0.37278  -0.37158  -0.35105  -0.33195
 Alpha  occ. eigenvalues --   -0.31861  -0.26705  -0.25703  -0.24987
 Alpha virt. eigenvalues --    0.01557   0.09635   0.10721   0.12972   0.13557
 Alpha virt. eigenvalues --    0.14359   0.15060   0.15108   0.16808   0.16978
 Alpha virt. eigenvalues --    0.17596   0.18522   0.19175   0.20889   0.21544

 Mulliken charges:
               1
     1  C   -0.402301
     2  C    0.229147
     3  O   -0.268830
     4  C    0.073208
     5  C   -0.284069
     6  C   -0.061677
     7  C   -0.087692
     8  C    0.064487
     9  O   -0.283701
    10  H    0.125423
    11  H    0.127628
    12  H    0.131513
    13  H    0.054719
    14  H    0.070582
    15  H    0.109087
    16  H    0.125204
    17  H    0.097711
    18  H    0.102085
    19  H    0.077475
 Sum of Mulliken charges =   0.00000

 Dipole moment (field-independent basis, Debye):
    X=              0.9065    Y=             -0.2959    Z=              0.5096  Tot=              1.0811
 Quadrupole moment (field-independent basis, Debye-Ang):
   XX=            -49.0029   YY=            -54.9600   ZZ=            -51.5707
   XY=              0.0800   XZ=             -0.4765   YZ=             -0.6048

  Exact polarizability:  88.402  -3.669  74.075  -4.512   0.379  66.181
 Approx polarizability: 114.401 -10.506 117.661  -7.652   5.236  98.948

                      1                      2                      3
                      A                      A                      A
 Frequencies --     69.1656               115.8213               208.9790
 Red. masses --      3.5139                 3.2426                 1.0529
 Frc consts  --      0.0099                 0.0256                 0.0271
 IR Inten    --      0.6392                 1.4840                 0.1936

                      4                      5                      6
                      A                      A                      A
 Frequencies --    272.1988               293.2349               403.7599
 Red. masses --      3.3387                 3.0346                 2.4828
 Frc consts  --      0.1457                 0.1537                 0.2385
 IR Inten    --      2.2736                 4.9640                 0.8855

                      7                      8                      9
                      A                      A                      A
 Frequencies --    465.9716               496.7923               611.7183
 Red. masses --      2.7294                 2.5633                 5.3819
 Frc consts  --      0.3492                 0.3727                 1.1866
 IR Inten    --      3.5653                 5.1492                 2.2176

                     10                     11                     12
                      A                      A                      A
 Frequencies --    683.2335               741.3372               781.6892
 Red. masses --      3.6050                 1.7132                 5.4068
 Frc consts  --      0.9915                 0.5547                 1.9465
 IR Inten    --      2.1376                16.9224                 0.7951

                     13                     14                     15
                      A                      A                      A
 Frequencies --    827.2019               865.0569               878.6153
 Red. masses --      3.1765                 3.0606                 2.3917
 Frc consts  --      1.2806                 1.3494                 1.0878
 IR Inten    --      5.0839                 9.2203                 9.2319

                     16                     17                     18
                      A                      A                      A
 Frequencies --    888.2218               917.2105               963.8644
 Red. masses --      2.2269                 2.5906                 2.0881
 Frc consts  --      1.0351                 1.2841                 1.1430
 IR Inten    --     26.5797                 6.5745                10.4379

                     19                     20                     21
                      A                      A                      A
 Frequencies --    981.0642              1006.3236              1056.2538
 Red. masses --      1.3780                 2.3350                 3.8200
 Frc consts  --      0.7815                 1.3932                 2.5110
 IR Inten    --      2.0409                26.5685                62.2639

                     22                     23                     24
                      A                      A                      A
 Frequencies --   1059.1462              1080.4634              1126.8810
 Red. masses --      1.8920                 2.8285                 1.3648
 Frc consts  --      1.2505                 1.9455                 1.0211
 IR Inten    --     18.0570                11.8479                17.3035

                     25                     26                     27
                      A                      A                      A
 Frequencies --   1129.9570              1147.2181              1161.9912
 Red. masses --      1.7874                 2.1587                 2.3478
 Frc consts  --      1.3446                 1.6739                 1.8678
 IR Inten    --     56.2352                64.7624                98.5876

                     28                     29                     30
                      A                      A                      A
 Frequencies --   1208.7456              1260.2009              1310.7688
 Red. masses --      1.3124                 1.9914                 1.3277
 Frc consts  --      1.1298                 1.8633                 1.3440
 IR Inten    --     24.9267                10.2687                 1.3081

                     31                     32                     33
                      A                      A                      A
 Frequencies --   1321.3413              1341.0427              1343.2970
 Red. masses --      1.2850                 1.4852                 1.1942
 Frc consts  --      1.3218                 1.5737                 1.2696
 IR Inten    --      0.7294                 2.5014                33.9145

                     34                     35                     36
                      A                      A                      A
 Frequencies --   1380.6475              1393.6003              1400.2125
 Red. masses --      1.4281                 1.2677                 1.5044
 Frc consts  --      1.6039                 1.4506                 1.7378
 IR Inten    --     10.6320                 0.2912                 6.9451

                     37                     38                     39
                      A                      A                      A
 Frequencies --   1439.1108              1471.0601              1484.4928
 Red. masses --      1.5812                 1.0938                 1.0676
 Frc consts  --      1.9295                 1.3946                 1.3862
 IR Inten    --     64.6238                 3.6349                 6.6307

                     40                     41                     42
                      A                      A                      A
 Frequencies --   1486.3264              1686.7209              2907.4531
 Red. masses --      1.0549                 6.3185                 1.0817
 Frc consts  --      1.3730                10.5914                 5.3873
 IR Inten    --      1.4024                 1.9229               106.3539

                     43                     44                     45
                      A                      A                      A
 Frequencies --   3004.6090              3020.0213              3036.3428
 Red. masses --      1.0837                 1.0809                 1.0684
 Frc consts  --      5.7644                 5.8082                 5.8032
 IR Inten    --     19.3986                63.8861                58.9744

                     46                     47                     48
                      A                      A                      A
 Frequencies --   3054.2680              3073.3432              3133.6096
 Red. masses --      1.0341                 1.0988                 1.1020
 Frc consts  --      5.6839                 6.1150                 6.3757
 IR Inten    --      9.7077                14.7601                13.0504

                     49                     50                     51
                      A                      A                      A
 Frequencies --   3140.2813              3183.5982              3214.1178
 Red. masses --      1.1030                 1.0862                 1.1026
 Frc consts  --      6.4087                 6.4863                 6.7111
 IR Inten    --     17.8567                 9.1433                15.4289

 - Thermochemistry -
 -------------------
 Temperature   298.150 Kelvin.  Pressure   1.00000 Atm.
 Atom     1 has atomic number  6 and mass  12.00000

 Molecular mass:   126.06808 amu.
 Principal axes and moments of inertia in atomic units:
                           1         2         3
     Eigenvalues --   534.439021284.937241494.22853
           X            0.99995  -0.00585   0.00854
           Y            0.00597   0.99988  -0.01451
           Z           -0.00845   0.01456   0.99986
 This molecule is an asymmetric top.
 Rotational symmetry number  1.
 Warning -- assumption of classical behavior for rotation
           may cause significant error
 Rotational temperatures (Kelvin)      0.16206     0.06741     0.05797
 Rotational constants (GHZ):           3.37689     1.40454     1.20781
 Zero-point vibrational energy     421854.6 (Joules/Mol)
                                  100.82567 (Kcal/Mol)
 Warning -- explicit consideration of   9 degrees of freedom as
           vibrations may cause significant error
 Vibrational temperatures:     99.51   166.64   300.67   391.63   421.90
          (Kelvin)            580.92   670.43   714.77   880.13   983.02
                             1066.62  1124.68  1190.16  1244.62  1264.13
                             1277.95  1319.66  1386.78  1411.53  1447.87
                             1519.71  1523.87  1554.54  1621.33  1625.75
                             1650.59  1671.84  1739.11  1813.15  1885.90
                             1901.11  1929.46  1932.70  1986.44  2005.08
                             2014.59  2070.56  2116.52  2135.85  2138.49
                             2426.81  4183.17  4322.96  4345.13  4368.61
                             4394.40  4421.85  4508.56  4518.16  4580.48
                             4624.39

 Zero-point correction=                           0.160676 (Hartree/Particle)
 Thermal correction to Energy=                    0.168381
 Thermal correction to Enthalpy=                  0.169325
 Thermal correction to Gibbs Free Energy=         0.128153
 Sum of electronic and zero-point Energies=           -423.050069
 Sum of electronic and thermal Energies=              -423.042365
 Sum of electronic and thermal Enthalpies=            -423.041421
 Sum of electronic and thermal Free Energies=         -423.082593

                     E (Thermal)             CV                S
                      KCal/Mol        Cal/Mol-Kelvin    Cal/Mol-Kelvin
 Total                  105.660             29.844             86.654
 Electronic               0.000              0.000              0.000
 Translational            0.889              2.981             40.409
 Rotational               0.889              2.981             28.419
 Vibrational            103.883             23.883             17.826
 Vibration     1          0.598              1.969              4.177
 Vibration     2          0.608              1.936              3.169
 Vibration     3          0.642              1.827              2.053
 Vibration     4          0.675              1.725              1.582
 Vibration     5          0.688              1.686              1.455
 Vibration     6          0.769              1.462              0.949
 Vibration     7          0.823              1.326              0.749
 Vibration     8          0.852              1.257              0.666
 Vibration     9          0.971              1.007              0.430

 Normal termination of Gaussian 09 at Tue Jan 28 04:32:16 2020.
