 Gaussian 09, Revision D.01,
 Gaussian 09:  ES64L-G09RevD.01 24-Apr-2013

 -----------------------------
 # b3lyp 6-31G(2df,p) opt Freq
 -----------------------------

 -----
 titel
 -----
 Symbolic Z-matrix:
 Charge =  0 Multiplicity = 1

 SCF Done:  E(RB3LYP) =  -423.140154238     A.U. after   14 cycles
 Optimization completed.
    -- Stationary point found.
 Normal termination of Gaussian 09 at Tue Jan 28 09:18:33 2020.

 ----------------------------------------------------------------------
 #N Geom=AllCheck Guess=TCheck SCRF=Check GenChk RB3LYP/6-31G(2df,p) Fr
 eq
 ----------------------------------------------------------------------

 Structure from the checkpoint file:  "/scratch/puck/g09_17683c95-fddd-43ee-957a-7b42042e64a1/Gau-84008.chk"
 -----
 titel
 -----
 Charge =  0 Multiplicity = 1

                         Standard orientation:
 ---------------------------------------------------------------------
 Center     Atomic      Atomic             Coordinates (Angstroms)
 Number     Number       Type             X           Y           Z
 ---------------------------------------------------------------------
      1          6           0        2.888861   -0.870209    0.018208
      2          6           0        1.490119   -0.369919   -0.060036
      3          6           0        0.363796   -0.880779   -0.565319
      4          6           0       -0.659199    0.234103   -0.268824
      5          6           0       -2.134890   -0.004624   -0.437097
      6          8           0       -2.558654   -1.100130    0.354865
      7          6           0        0.125855    1.504832   -0.721319
      8          6           0        0.970180    0.985663    0.478107
      9          8           0       -0.287813    0.593380    1.121275
     10          1           0        3.586504   -0.190862   -0.488390
     11          1           0        3.227027   -0.944071    1.059645
     12          1           0        2.986222   -1.857459   -0.441473
     13          1           0        0.167909   -1.823809   -1.054147
     14          1           0       -2.684188    0.915706   -0.186196
     15          1           0       -2.358914   -0.256880   -1.479547
     16          1           0       -2.207470   -0.947615    1.240327
     17          1           0        0.574074    1.514697   -1.716695
     18          1           0       -0.403519    2.434249   -0.495062
     19          1           0        1.615756    1.615640    1.090104
 ---------------------------------------------------------------------

 SCF Done:  E(RB3LYP) =  -423.140154238     A.U. after    1 cycles

 The electronic state is 1-A.
 Alpha  occ. eigenvalues --  -19.13231 -19.12921 -10.24278 -10.24267 -10.22751
 Alpha  occ. eigenvalues --  -10.19248 -10.19108 -10.19019 -10.17669  -1.04727
 Alpha  occ. eigenvalues --   -1.01191  -0.81352  -0.75044  -0.71867  -0.69396
 Alpha  occ. eigenvalues --   -0.63545  -0.54953  -0.52988  -0.51740  -0.47996
 Alpha  occ. eigenvalues --   -0.45817  -0.44177  -0.42709  -0.42128  -0.40168
 Alpha  occ. eigenvalues --   -0.38841  -0.37815  -0.37178  -0.34183  -0.33017
 Alpha  occ. eigenvalues --   -0.30877  -0.26674  -0.25162  -0.22882
 Alpha virt. eigenvalues --    0.00704   0.07707   0.10268   0.11356   0.12271
 Alpha virt. eigenvalues --    0.13558   0.14434   0.14842   0.15683   0.16424
 Alpha virt. eigenvalues --    0.16873   0.17714   0.18694   0.20544   0.21301

 Mulliken charges:
               1
     1  C   -0.516968
     2  C    0.365797
     3  C   -0.256719
     4  C    0.359388
     5  C   -0.177971
     6  O   -0.419283
     7  C   -0.273137
     8  C   -0.038015
     9  O   -0.333752
    10  H    0.129075
    11  H    0.134035
    12  H    0.131382
    13  H    0.112781
    14  H    0.094961
    15  H    0.110653
    16  H    0.296689
    17  H    0.097820
    18  H    0.104571
    19  H    0.078694
 Sum of Mulliken charges =   0.00000

 Dipole moment (field-independent basis, Debye):
    X=              1.9951    Y=              0.9428    Z=             -0.9920  Tot=              2.4193
 Quadrupole moment (field-independent basis, Debye-Ang):
   XX=            -53.4184   YY=            -53.1278   ZZ=            -52.5246
   XY=             -2.7544   XZ=              1.0338   YZ=             -0.4993

  Exact polarizability:  92.478  -0.456  73.408   5.441   2.017  63.902
 Approx polarizability: 127.672   7.727 108.397   9.909   6.321 104.045

                      1                      2                      3
                      A                      A                      A
 Frequencies --     86.4188               123.2755               166.4417
 Red. masses --      3.7019                 3.4645                 1.1055
 Frc consts  --      0.0163                 0.0310                 0.0180
 IR Inten    --      5.0924                 0.0453                 0.7559

                      4                      5                      6
                      A                      A                      A
 Frequencies --    200.8447               249.5639               341.6031
 Red. masses --      2.9654                 2.2114                 2.2255
 Frc consts  --      0.0705                 0.0811                 0.1530
 IR Inten    --      2.2006                 5.7806                 9.7281

                      7                      8                      9
                      A                      A                      A
 Frequencies --    383.5100               419.4143               501.9049
 Red. masses --      1.6488                 2.0707                 2.4000
 Frc consts  --      0.1429                 0.2146                 0.3562
 IR Inten    --     53.8264                70.5461                 1.7828

                     10                     11                     12
                      A                      A                      A
 Frequencies --    557.3760               580.0552               622.5040
 Red. masses --      2.8606                 3.7587                 4.8430
 Frc consts  --      0.5236                 0.7451                 1.1057
 IR Inten    --      2.2879                 0.3065                19.2995

                     13                     14                     15
                      A                      A                      A
 Frequencies --    696.7369               774.3673               791.8429
 Red. masses --      3.5740                 1.7679                 2.8316
 Frc consts  --      1.0222                 0.6246                 1.0461
 IR Inten    --     11.5207                 5.0860                17.9022

                     16                     17                     18
                      A                      A                      A
 Frequencies --    845.4070               854.9263               904.8166
 Red. masses --      3.2198                 2.4255                 3.5897
 Frc consts  --      1.3558                 1.0445                 1.7315
 IR Inten    --      2.2903                28.4881                26.3767

                     19                     20                     21
                      A                      A                      A
 Frequencies --    958.0575               994.9272              1015.8101
 Red. masses --      2.3556                 2.1922                 1.8936
 Frc consts  --      1.2739                 1.2786                 1.1512
 IR Inten    --     31.2220                 2.4668                 2.9932

                     22                     23                     24
                      A                      A                      A
 Frequencies --   1027.6662              1051.1520              1063.2848
 Red. masses --      1.8719                 2.1416                 1.8438
 Frc consts  --      1.1648                 1.3942                 1.2282
 IR Inten    --      1.9790                54.9263                23.2952

                     25                     26                     27
                      A                      A                      A
 Frequencies --   1085.5672              1118.9629              1142.1132
 Red. masses --      1.9084                 2.1478                 1.5478
 Frc consts  --      1.3251                 1.5844                 1.1895
 IR Inten    --     12.7979                 5.7761                 3.8984

                     28                     29                     30
                      A                      A                      A
 Frequencies --   1200.0301              1222.8510              1234.7220
 Red. masses --      1.5866                 1.3370                 1.4290
 Frc consts  --      1.3462                 1.1780                 1.2836
 IR Inten    --     13.0132                 5.9930                 1.5545

                     31                     32                     33
                      A                      A                      A
 Frequencies --   1253.6948              1295.1986              1338.6118
 Red. masses --      1.5831                 1.9941                 2.5084
 Frc consts  --      1.4661                 1.9709                 2.6483
 IR Inten    --     10.3591                 1.1429                35.4933

                     34                     35                     36
                      A                      A                      A
 Frequencies --   1377.3977              1412.5141              1441.0722
 Red. masses --      1.3136                 1.2609                 1.4324
 Frc consts  --      1.4684                 1.4823                 1.7526
 IR Inten    --      9.7969                 1.3577                51.0108

                     37                     38                     39
                      A                      A                      A
 Frequencies --   1478.2007              1484.1844              1488.2248
 Red. masses --      1.0440                 1.0669                 1.1689
 Frc consts  --      1.3441                 1.3847                 1.5253
 IR Inten    --      6.0078                 7.2579                 0.7820

                     40                     41                     42
                      A                      A                      A
 Frequencies --   1496.9292              1691.4051              2989.9808
 Red. masses --      1.0902                 7.3121                 1.0682
 Frc consts  --      1.4393                12.3250                 5.6266
 IR Inten    --      0.7837                 9.4882                51.7323

                     43                     44                     45
                      A                      A                      A
 Frequencies --   3015.9830              3060.0602              3061.3162
 Red. masses --      1.0381                 1.0556                 1.0983
 Frc consts  --      5.5636                 5.8240                 6.0646
 IR Inten    --     29.7040                37.1605                17.5996

                     46                     47                     48
                      A                      A                      A
 Frequencies --   3070.2359              3110.1312              3124.2930
 Red. masses --      1.0942                 1.0987                 1.0918
 Frc consts  --      6.0772                 6.2614                 6.2793
 IR Inten    --     23.0827                14.4262                42.6199

                     49                     50                     51
                      A                      A                      A
 Frequencies --   3133.3966              3242.2728              3793.0624
 Red. masses --      1.1108                 1.0986                 1.0659
 Frc consts  --      6.4256                 6.8045                 9.0356
 IR Inten    --     32.0008                 2.9047                25.0750

 - Thermochemistry -
 -------------------
 Temperature   298.150 Kelvin.  Pressure   1.00000 Atm.
 Atom     1 has atomic number  6 and mass  12.00000

 Molecular mass:   126.06808 amu.
 Principal axes and moments of inertia in atomic units:
                           1         2         3
     Eigenvalues --   549.290981457.669631657.30808
           X            0.99962  -0.02639   0.00786
           Y            0.02656   0.99941  -0.02186
           Z           -0.00727   0.02206   0.99973
 This molecule is an asymmetric top.
 Rotational symmetry number  1.
 Warning -- assumption of classical behavior for rotation
           may cause significant error
 Rotational temperatures (Kelvin)      0.15768     0.05942     0.05226
 Rotational constants (GHZ):           3.28558     1.23810     1.08896
 Zero-point vibrational energy     416146.8 (Joules/Mol)
                                   99.46148 (Kcal/Mol)
 Warning -- explicit consideration of  11 degrees of freedom as
           vibrations may cause significant error
 Vibrational temperatures:    124.34   177.37   239.47   288.97   359.07
          (Kelvin)            491.49   551.78   603.44   722.13   801.94
                              834.57   895.64  1002.45  1114.14  1139.28
                             1216.35  1230.05  1301.83  1378.43  1431.48
                             1461.52  1478.58  1512.37  1529.83  1561.89
                             1609.94  1643.24  1726.57  1759.41  1776.49
                             1803.78  1863.50  1925.96  1981.77  2032.29
                             2073.38  2126.80  2135.41  2141.22  2153.74
                             2433.55  4301.91  4339.32  4402.74  4404.55
                             4417.38  4474.78  4495.16  4508.25  4664.90
                             5457.36

 Zero-point correction=                           0.158502 (Hartree/Particle)
 Thermal correction to Energy=                    0.167031
 Thermal correction to Enthalpy=                  0.167975
 Thermal correction to Gibbs Free Energy=         0.125380
 Sum of electronic and zero-point Energies=           -422.981652
 Sum of electronic and thermal Energies=              -422.973124
 Sum of electronic and thermal Enthalpies=            -422.972179
 Sum of electronic and thermal Free Energies=         -423.014774

                     E (Thermal)             CV                S
                      KCal/Mol        Cal/Mol-Kelvin    Cal/Mol-Kelvin
 Total                  104.813             32.769             89.649
 Electronic               0.000              0.000              0.000
 Translational            0.889              2.981             40.409
 Rotational               0.889              2.981             28.675
 Vibrational            103.036             26.807             20.565
 Vibration     1          0.601              1.959              3.740
 Vibration     2          0.610              1.930              3.048
 Vibration     3          0.624              1.884              2.475
 Vibration     4          0.638              1.839              2.125
 Vibration     5          0.662              1.763              1.734
 Vibration     6          0.721              1.592              1.205
 Vibration     7          0.753              1.505              1.025
 Vibration     8          0.782              1.428              0.894
 Vibration     9          0.857              1.246              0.653
 Vibration    10          0.913              1.124              0.529
 Vibration    11          0.937              1.074              0.485

 Normal termination of Gaussian 09 at Tue Jan 28 10:07:51 2020.
