 Gaussian 09, Revision D.01,
 Gaussian 09:  ES64L-G09RevD.01 24-Apr-2013

 -----------------------------
 # b3lyp 6-31G(2df,p) opt Freq
 -----------------------------

 -----
 titel
 -----
 Symbolic Z-matrix:
 Charge =  0 Multiplicity = 1

 SCF Done:  E(RB3LYP) =  -423.193216757     A.U. after   12 cycles
 Optimization completed.
    -- Stationary point found.
 Normal termination of Gaussian 09 at Mon Jan 27 18:12:46 2020.

 ----------------------------------------------------------------------
 #N Geom=AllCheck Guess=TCheck SCRF=Check GenChk RB3LYP/6-31G(2df,p) Fr
 eq
 ----------------------------------------------------------------------

 Structure from the checkpoint file:  "/scratch/puck/g09_7da4f298-3946-4966-a712-472b44e27527/Gau-47450.chk"
 -----
 titel
 -----
 Charge =  0 Multiplicity = 1

                         Standard orientation:
 ---------------------------------------------------------------------
 Center     Atomic      Atomic             Coordinates (Angstroms)
 Number     Number       Type             X           Y           Z
 ---------------------------------------------------------------------
      1          6           0       -1.610398   -1.693877   -0.029886
      2          6           0       -0.447878   -0.757216    0.003895
      3          8           0        0.659066   -1.125186   -0.811594
      4          6           0        1.488210   -0.000199   -0.554617
      5          6           0        1.621316    0.000283    0.983811
      6          6           0        0.118204    0.000045    1.209709
      7          6           0       -0.447742    0.757255    0.003793
      8          6           0       -1.610059    1.694171   -0.029990
      9          8           0        0.659029    1.124626   -0.812199
     10          1           0       -1.972468   -1.824896   -1.054540
     11          1           0       -1.333176   -2.677290    0.363602
     12          1           0       -2.432822   -1.306625    0.577999
     13          1           0        2.368946   -0.000358   -1.191100
     14          1           0        2.123705   -0.896605    1.352865
     15          1           0        2.123436    0.897526    1.352393
     16          1           0       -0.354997    0.000086    2.182133
     17          1           0       -1.972154    1.825142   -1.054640
     18          1           0       -2.432533    1.307145    0.577971
     19          1           0       -1.332616    2.677574    0.363365
 ---------------------------------------------------------------------

 SCF Done:  E(RB3LYP) =  -423.193216757     A.U. after    1 cycles

 The electronic state is 1-A.
 Alpha  occ. eigenvalues --  -19.14430 -19.14429 -10.27475 -10.23508 -10.23483
 Alpha  occ. eigenvalues --  -10.18696 -10.18589 -10.18588 -10.18517  -1.10338
 Alpha  occ. eigenvalues --   -0.99363  -0.84181  -0.76934  -0.73190  -0.69531
 Alpha  occ. eigenvalues --   -0.61765  -0.55787  -0.55114  -0.51523  -0.47338
 Alpha  occ. eigenvalues --   -0.47138  -0.43070  -0.41147  -0.41028  -0.40524
 Alpha  occ. eigenvalues --   -0.40291  -0.38690  -0.37936  -0.36597  -0.36054
 Alpha  occ. eigenvalues --   -0.30304  -0.29933  -0.25213  -0.23049
 Alpha virt. eigenvalues --    0.08914   0.10573   0.12412   0.12974   0.13795
 Alpha virt. eigenvalues --    0.14158   0.14268   0.15141   0.16568   0.17497
 Alpha virt. eigenvalues --    0.17851   0.19047   0.19631   0.21143   0.21945

 Mulliken charges:
               1
     1  C   -0.503715
     2  C    0.377100
     3  O   -0.286427
     4  C    0.140112
     5  C   -0.241599
     6  C   -0.256842
     7  C    0.376981
     8  C   -0.503710
     9  O   -0.286419
    10  H    0.134299
    11  H    0.131366
    12  H    0.122960
    13  H    0.095527
    14  H    0.109994
    15  H    0.110018
    16  H    0.091734
    17  H    0.134295
    18  H    0.122961
    19  H    0.131364
 Sum of Mulliken charges =   0.00000

 Dipole moment (field-independent basis, Debye):
    X=             -0.7412    Y=              0.0007    Z=              1.5835  Tot=              1.7484
 Quadrupole moment (field-independent basis, Debye-Ang):
   XX=            -48.0234   YY=            -55.1565   ZZ=            -53.8207
   XY=              0.0006   XZ=              0.0194   YZ=              0.0008

  Exact polarizability:  81.204   0.000  73.320   1.172   0.001  66.659
 Approx polarizability: 109.587   0.000 108.378  -0.895   0.000 104.448

                      1                      2                      3
                      A                      A                      A
 Frequencies --    184.7041               191.4162               202.5633
 Red. masses --      1.3613                 1.0562                 1.5677
 Frc consts  --      0.0274                 0.0228                 0.0379
 IR Inten    --      0.0716                 0.2703                 0.3916

                      4                      5                      6
                      A                      A                      A
 Frequencies --    220.2662               303.2603               333.1915
 Red. masses --      2.6737                 2.5879                 2.4865
 Frc consts  --      0.0764                 0.1402                 0.1626
 IR Inten    --      1.6225                 2.1616                 0.9572

                      7                      8                      9
                      A                      A                      A
 Frequencies --    442.2224               578.1477               579.0632
 Red. masses --      2.1915                 3.5579                 6.8548
 Frc consts  --      0.2525                 0.7007                 1.3542
 IR Inten    --      1.4382                 0.4951                 8.0522

                     10                     11                     12
                      A                      A                      A
 Frequencies --    615.3998               655.4096               719.7797
 Red. masses --      3.9412                 4.7976                 4.2104
 Frc consts  --      0.8794                 1.2142                 1.2852
 IR Inten    --      0.0282                 5.7597                 3.7662

                     13                     14                     15
                      A                      A                      A
 Frequencies --    731.4369               844.6524               889.1523
 Red. masses --      4.3412                 4.4269                 5.2198
 Frc consts  --      1.3684                 1.8608                 2.4314
 IR Inten    --     10.0839                 3.2511                60.9060

                     16                     17                     18
                      A                      A                      A
 Frequencies --    891.7392               905.6113               915.5616
 Red. masses --      3.5415                 2.0890                 1.2599
 Frc consts  --      1.6592                 1.0094                 0.6222
 IR Inten    --      5.8778                 1.8653                15.5824

                     19                     20                     21
                      A                      A                      A
 Frequencies --    935.8731               944.0759               982.6743
 Red. masses --      2.1963                 2.1742                 1.4450
 Frc consts  --      1.1334                 1.1417                 0.8221
 IR Inten    --     16.3403                18.3289                 1.6684

                     22                     23                     24
                      A                      A                      A
 Frequencies --   1043.8079              1077.6473              1111.0722
 Red. masses --      1.8648                 6.5220                 1.6037
 Frc consts  --      1.1971                 4.4626                 1.1664
 IR Inten    --      4.5748                75.7061                 8.8655

                     25                     26                     27
                      A                      A                      A
 Frequencies --   1123.4750              1135.4312              1155.2590
 Red. masses --      1.9353                 1.4604                 2.9331
 Frc consts  --      1.4392                 1.1093                 2.3064
 IR Inten    --     20.7555                 1.9367                62.7320

                     28                     29                     30
                      A                      A                      A
 Frequencies --   1174.0316              1197.4508              1287.2814
 Red. masses --      1.4902                 1.9193                 1.7267
 Frc consts  --      1.2102                 1.6215                 1.6858
 IR Inten    --      7.9499                17.2956                 7.3779

                     31                     32                     33
                      A                      A                      A
 Frequencies --   1311.1042              1317.5252              1339.4164
 Red. masses --      1.6277                 2.3970                 1.7802
 Frc consts  --      1.6485                 2.4515                 1.8817
 IR Inten    --     12.5976                11.4733                 5.0967

                     34                     35                     36
                      A                      A                      A
 Frequencies --   1414.4410              1419.0338              1462.1012
 Red. masses --      1.2579                 1.4913                 2.8044
 Frc consts  --      1.4828                 1.7692                 3.5322
 IR Inten    --      6.5177                 0.0355                 1.4929

                     37                     38                     39
                      A                      A                      A
 Frequencies --   1473.9728              1478.3173              1483.2994
 Red. masses --      1.0439                 1.1543                 1.0988
 Frc consts  --      1.3363                 1.4864                 1.4244
 IR Inten    --      2.2921                 2.1604                 7.1589

                     40                     41                     42
                      A                      A                      A
 Frequencies --   1496.4388              1511.8063              3036.6594
 Red. masses --      1.0516                 1.2228                 1.0353
 Frc consts  --      1.3875                 1.6467                 5.6249
 IR Inten    --      0.1187                 6.4939                29.8036

                     43                     44                     45
                      A                      A                      A
 Frequencies --   3038.8784              3072.7422              3101.7303
 Red. masses --      1.0356                 1.0573                 1.1016
 Frc consts  --      5.6345                 5.8818                 6.2443
 IR Inten    --     23.7160                23.8812                13.1971

                     46                     47                     48
                      A                      A                      A
 Frequencies --   3102.6291              3114.5811              3118.1040
 Red. masses --      1.1015                 1.1006                 1.1001
 Frc consts  --      6.2475                 6.2902                 6.3017
 IR Inten    --     21.4430                12.2088                18.2351

                     49                     50                     51
                      A                      A                      A
 Frequencies --   3129.6016              3173.3250              3211.9882
 Red. masses --      1.1087                 1.0934                 1.0932
 Frc consts  --      6.3978                 6.4874                 6.6452
 IR Inten    --     15.8730                27.6906                 4.5668

 - Thermochemistry -
 -------------------
 Temperature   298.150 Kelvin.  Pressure   1.00000 Atm.
 Atom     1 has atomic number  6 and mass  12.00000

 Molecular mass:   126.06808 amu.
 Principal axes and moments of inertia in atomic units:
                           1         2         3
     Eigenvalues --   772.32242 872.108561166.41334
           X            0.99977   0.00004   0.02140
           Y           -0.00004   1.00000   0.00001
           Z           -0.02140  -0.00001   0.99977
 This molecule is an asymmetric top.
 Rotational symmetry number  1.
 Warning -- assumption of classical behavior for rotation
           may cause significant error
 Rotational temperatures (Kelvin)      0.11215     0.09932     0.07426
 Rotational constants (GHZ):           2.33677     2.06940     1.54726
 Zero-point vibrational energy     419765.7 (Joules/Mol)
                                  100.32642 (Kcal/Mol)
 Warning -- explicit consideration of  10 degrees of freedom as
           vibrations may cause significant error
 Vibrational temperatures:    265.75   275.40   291.44   316.91   436.32
          (Kelvin)            479.39   636.26   831.82   833.14   885.42
                              942.99  1035.60  1052.37  1215.26  1279.29
                             1283.01  1302.97  1317.29  1346.51  1358.31
                             1413.85  1501.80  1550.49  1598.58  1616.43
                             1633.63  1662.16  1689.17  1722.86  1852.11
                             1886.38  1895.62  1927.12  2035.06  2041.67
                             2103.63  2120.72  2126.97  2134.13  2153.04
                             2175.15  4369.07  4372.26  4420.99  4462.69
                             4463.99  4481.18  4486.25  4502.79  4565.70
                             4621.33

 Zero-point correction=                           0.159880 (Hartree/Particle)
 Thermal correction to Energy=                    0.167543
 Thermal correction to Enthalpy=                  0.168488
 Thermal correction to Gibbs Free Energy=         0.128272
 Sum of electronic and zero-point Energies=           -423.033336
 Sum of electronic and thermal Energies=              -423.025673
 Sum of electronic and thermal Enthalpies=            -423.024729
 Sum of electronic and thermal Free Energies=         -423.064945

                     E (Thermal)             CV                S
                      KCal/Mol        Cal/Mol-Kelvin    Cal/Mol-Kelvin
 Total                  105.135             30.801             84.642
 Electronic               0.000              0.000              0.000
 Translational            0.889              2.981             40.409
 Rotational               0.889              2.981             28.154
 Vibrational            103.358             24.839             16.079
 Vibration     1          0.631              1.861              2.280
 Vibration     2          0.634              1.852              2.214
 Vibration     3          0.639              1.836              2.110
 Vibration     4          0.647              1.810              1.957
 Vibration     5          0.695              1.668              1.399
 Vibration     6          0.715              1.609              1.245
 Vibration     7          0.802              1.378              0.820
 Vibration     8          0.935              1.079              0.489
 Vibration     9          0.936              1.077              0.487
 Vibration    10          0.975              0.999              0.424

 Optimization completed.
    -- Stationary point found.
 Normal termination of Gaussian 09 at Mon Jan 27 18:58:13 2020.
