 Gaussian 09, Revision D.01,
 Gaussian 09:  ES64L-G09RevD.01 24-Apr-2013

 -----------------------------
 # b3lyp 6-31G(2df,p) opt Freq
 -----------------------------

 -----
 titel
 -----
 Symbolic Z-matrix:
 Charge =  0 Multiplicity = 1

 SCF Done:  E(RB3LYP) =  -423.157774585     A.U. after   14 cycles
 Optimization completed.
    -- Stationary point found.
 Normal termination of Gaussian 09 at Tue Jan 28 09:48:05 2020.

 ----------------------------------------------------------------------
 #N Geom=AllCheck Guess=TCheck SCRF=Check GenChk RB3LYP/6-31G(2df,p) Fr
 eq
 ----------------------------------------------------------------------

 Structure from the checkpoint file:  "/scratch/puck/g09_df955091-7404-4263-bee5-764bcb181330/Gau-96354.chk"
 -----
 titel
 -----
 Charge =  0 Multiplicity = 1

                         Standard orientation:
 ---------------------------------------------------------------------
 Center     Atomic      Atomic             Coordinates (Angstroms)
 Number     Number       Type             X           Y           Z
 ---------------------------------------------------------------------
      1          8           0       -2.764171   -0.649992   -0.003418
      2          6           0       -1.872645    0.254788   -0.640735
      3          6           0       -0.490469    0.219228   -0.043826
      4          6           0       -0.133494    1.065435    1.161827
      5          6           0        0.513295    1.354713   -0.169115
      6          6           0        1.891100    0.767314   -0.497677
      7          6           0        1.716431   -0.745518   -0.459585
      8          8           0        1.313360   -1.268932    0.814173
      9          6           0        0.305475   -1.064602   -0.187291
     10          1           0       -2.732462   -0.463596    0.941267
     11          1           0       -1.849972   -0.056293   -1.691923
     12          1           0       -2.256323    1.287489   -0.616295
     13          1           0       -0.877132    1.779280    1.504371
     14          1           0        0.457954    0.601956    1.941230
     15          1           0        0.230424    2.277384   -0.665487
     16          1           0        2.193438    1.065971   -1.508067
     17          1           0        2.676002    1.102426    0.189052
     18          1           0        2.384446   -1.388927   -1.028279
     19          1           0       -0.198035   -1.962443   -0.533492
 ---------------------------------------------------------------------

 SCF Done:  E(RB3LYP) =  -423.157774585     A.U. after    1 cycles

 The electronic state is 1-A.
 Alpha  occ. eigenvalues --  -19.14846 -19.13477 -10.23427 -10.23379 -10.23119
 Alpha  occ. eigenvalues --  -10.19721 -10.19643 -10.19212 -10.18702  -1.07032
 Alpha  occ. eigenvalues --   -1.01593  -0.87458  -0.75012  -0.70727  -0.66296
 Alpha  occ. eigenvalues --   -0.60982  -0.57358  -0.55376  -0.53284  -0.49242
 Alpha  occ. eigenvalues --   -0.46027  -0.44928  -0.43943  -0.42433  -0.40959
 Alpha  occ. eigenvalues --   -0.39074  -0.37270  -0.35432  -0.34104  -0.31739
 Alpha  occ. eigenvalues --   -0.29206  -0.27381  -0.26160  -0.25730
 Alpha virt. eigenvalues --    0.07588   0.08224   0.09119   0.11573   0.12518
 Alpha virt. eigenvalues --    0.13432   0.14046   0.14682   0.15468   0.16762
 Alpha virt. eigenvalues --    0.17148   0.18472   0.19263   0.21335   0.22541

 Mulliken charges:
               1
     1  O   -0.416063
     2  C   -0.163946
     3  C    0.305479
     4  C   -0.334770
     5  C   -0.107441
     6  C   -0.265747
     7  C    0.040232
     8  O   -0.257484
     9  C   -0.030240
    10  H    0.283697
    11  H    0.108621
    12  H    0.085106
    13  H    0.103454
    14  H    0.137110
    15  H    0.087307
    16  H    0.107145
    17  H    0.117659
    18  H    0.095471
    19  H    0.104409
 Sum of Mulliken charges =   0.00000

 Dipole moment (field-independent basis, Debye):
    X=              0.5550    Y=              1.6791    Z=             -0.8324  Tot=              1.9545
 Quadrupole moment (field-independent basis, Debye-Ang):
   XX=            -56.0204   YY=            -53.8416   ZZ=            -51.5397
   XY=             -1.6632   XZ=             -5.2943   YZ=              1.5552

  Exact polarizability:  82.861   1.110  71.577  -3.808   1.576  67.189
 Approx polarizability: 113.375   4.720 105.756  -3.637  -0.660 107.382

                      1                      2                      3
                      A                      A                      A
 Frequencies --     92.7239               135.9371               255.8055
 Red. masses --      3.4832                 4.3252                 2.4154
 Frc consts  --      0.0176                 0.0471                 0.0931
 IR Inten    --      3.6941                 1.5847                 8.7893

                      4                      5                      6
                      A                      A                      A
 Frequencies --    268.8487               326.2356               358.1656
 Red. masses --      2.6046                 1.6338                 2.6057
 Frc consts  --      0.1109                 0.1024                 0.1969
 IR Inten    --      6.7422                40.2863                13.6027

                      7                      8                      9
                      A                      A                      A
 Frequencies --    395.3561               434.1997               515.2494
 Red. masses --      1.9969                 2.2708                 3.9873
 Frc consts  --      0.1839                 0.2522                 0.6237
 IR Inten    --     56.4653                 1.4109                14.7927

                     10                     11                     12
                      A                      A                      A
 Frequencies --    652.0304               711.3724               737.4454
 Red. masses --      3.9397                 4.4922                 3.6143
 Frc consts  --      0.9868                 1.3394                 1.1581
 IR Inten    --      2.8541                 1.3470                 3.9531

                     13                     14                     15
                      A                      A                      A
 Frequencies --    805.7354               846.2545               862.1440
 Red. masses --      3.4847                 2.0009                 1.9677
 Frc consts  --      1.3329                 0.8443                 0.8617
 IR Inten    --      6.4957                 8.4800                32.1765

                     16                     17                     18
                      A                      A                      A
 Frequencies --    878.5235               915.5192               947.3660
 Red. masses --      1.9793                 3.7933                 2.1353
 Frc consts  --      0.9000                 1.8733                 1.1291
 IR Inten    --      3.1028                 1.3867                 8.5402

                     19                     20                     21
                      A                      A                      A
 Frequencies --    968.9476               976.3813              1003.3290
 Red. masses --      1.5733                 2.0857                 1.5925
 Frc consts  --      0.8703                 1.1715                 0.9445
 IR Inten    --     12.8376                 2.1812                13.3404

                     22                     23                     24
                      A                      A                      A
 Frequencies --   1049.4202              1061.6726              1083.3028
 Red. masses --      2.8334                 1.9613                 1.3614
 Frc consts  --      1.8385                 1.3025                 0.9413
 IR Inten    --     51.2914                37.2735                 1.6119

                     25                     26                     27
                      A                      A                      A
 Frequencies --   1092.5870              1108.3229              1119.9565
 Red. masses --      1.6678                 1.6910                 1.4502
 Frc consts  --      1.1731                 1.2239                 1.0717
 IR Inten    --      4.1103                19.1218                 0.6036

                     28                     29                     30
                      A                      A                      A
 Frequencies --   1194.8435              1216.9162              1243.3424
 Red. masses --      1.2908                 1.2988                 1.5564
 Frc consts  --      1.0857                 1.1332                 1.4176
 IR Inten    --     14.3158                 6.9447                 4.4247

                     31                     32                     33
                      A                      A                      A
 Frequencies --   1268.1652              1284.4938              1306.3931
 Red. masses --      1.6915                 1.4110                 1.9324
 Frc consts  --      1.6028                 1.3717                 1.9431
 IR Inten    --      3.8868                 8.5002                 1.4244

                     34                     35                     36
                      A                      A                      A
 Frequencies --   1337.2017              1379.2339              1402.1849
 Red. masses --      1.6521                 1.3571                 1.8156
 Frc consts  --      1.7405                 1.5210                 2.1032
 IR Inten    --      5.9045                 0.8561                 0.8046

                     37                     38                     39
                      A                      A                      A
 Frequencies --   1420.1194              1428.4890              1473.5643
 Red. masses --      2.0659                 1.4849                 1.2659
 Frc consts  --      2.4548                 1.7852                 1.6195
 IR Inten    --     31.5030                59.0117                 4.2625

                     40                     41                     42
                      A                      A                      A
 Frequencies --   1481.0403              1506.5064              2973.9389
 Red. masses --      1.2709                 1.0894                 1.0699
 Frc consts  --      1.6425                 1.4568                 5.5750
 IR Inten    --      2.5190                 1.5617                55.1900

                     43                     44                     45
                      A                      A                      A
 Frequencies --   3040.7502              3055.1006              3079.6458
 Red. masses --      1.0596                 1.0925                 1.1033
 Frc consts  --      5.7726                 6.0081                 6.1653
 IR Inten    --     29.5381                30.4526                15.5381

                     46                     47                     48
                      A                      A                      A
 Frequencies --   3126.6485              3135.2309              3158.9093
 Red. masses --      1.0569                 1.0893                 1.0900
 Frc consts  --      6.0874                 6.3089                 6.4084
 IR Inten    --     16.5532                33.5495                20.4118

                     49                     50                     51
                      A                      A                      A
 Frequencies --   3163.8042              3229.7452              3804.9146
 Red. masses --      1.0933                 1.1130                 1.0659
 Frc consts  --      6.4475                 6.8401                 9.0921
 IR Inten    --     14.8522                 2.1245                14.4102

 - Thermochemistry -
 -------------------
 Temperature   298.150 Kelvin.  Pressure   1.00000 Atm.
 Atom     1 has atomic number  8 and mass  15.99491

 Molecular mass:   126.06808 amu.
 Principal axes and moments of inertia in atomic units:
                           1         2         3
     Eigenvalues --   599.561171302.756111529.20751
           X            0.99990   0.00102  -0.01438
           Y           -0.00052   0.99940   0.03469
           Z            0.01441  -0.03468   0.99929
 This molecule is an asymmetric top.
 Rotational symmetry number  1.
 Warning -- assumption of classical behavior for rotation
           may cause significant error
 Rotational temperatures (Kelvin)      0.14446     0.06649     0.05664
 Rotational constants (GHZ):           3.01010     1.38533     1.18018
 Zero-point vibrational energy     420571.2 (Joules/Mol)
                                  100.51893 (Kcal/Mol)
 Warning -- explicit consideration of   9 degrees of freedom as
           vibrations may cause significant error
 Vibrational temperatures:    133.41   195.58   368.05   386.81   469.38
          (Kelvin)            515.32   568.83   624.72   741.33   938.13
                             1023.50  1061.02  1159.27  1217.57  1240.43
                             1264.00  1317.23  1363.05  1394.10  1404.79
                             1443.56  1509.88  1527.51  1558.63  1571.99
                             1594.63  1611.37  1719.11  1750.87  1788.89
                             1824.60  1848.10  1879.61  1923.93  1984.41
                             2017.43  2043.23  2055.27  2120.13  2130.88
                             2167.52  4278.83  4374.96  4395.60  4430.92
                             4498.54  4510.89  4544.96  4552.00  4646.88
                             5474.42

 Zero-point correction=                           0.160187 (Hartree/Particle)
 Thermal correction to Energy=                    0.168034
 Thermal correction to Enthalpy=                  0.168978
 Thermal correction to Gibbs Free Energy=         0.127887
 Sum of electronic and zero-point Energies=           -422.997587
 Sum of electronic and thermal Energies=              -422.989740
 Sum of electronic and thermal Enthalpies=            -422.988796
 Sum of electronic and thermal Free Energies=         -423.029888

                     E (Thermal)             CV                S
                      KCal/Mol        Cal/Mol-Kelvin    Cal/Mol-Kelvin
 Total                  105.443             31.076             86.484
 Electronic               0.000              0.000              0.000
 Translational            0.889              2.981             40.409
 Rotational               0.889              2.981             28.570
 Vibrational            103.666             25.114             17.505
 Vibration     1          0.602              1.954              3.602
 Vibration     2          0.614              1.917              2.860
 Vibration     3          0.666              1.753              1.690
 Vibration     4          0.673              1.730              1.604
 Vibration     5          0.710              1.623              1.279
 Vibration     6          0.733              1.558              1.130
 Vibration     7          0.762              1.480              0.980
 Vibration     8          0.795              1.396              0.845
 Vibration     9          0.870              1.216              0.621

 Optimization completed.
    -- Stationary point found.
 Normal termination of Gaussian 09 at Tue Jan 28 10:33:01 2020.
