 Gaussian 09, Revision D.01,
 Gaussian 09:  ES64L-G09RevD.01 24-Apr-2013

 -----------------------------
 # b3lyp 6-31G(2df,p) opt Freq
 -----------------------------

 -----
 titel
 -----
 Symbolic Z-matrix:
 Charge =  0 Multiplicity = 1

 SCF Done:  E(RB3LYP) =  -423.124710013     A.U. after   13 cycles
 Optimization completed.
    -- Stationary point found.
 Normal termination of Gaussian 09 at Mon Jan 27 17:27:12 2020.

 ----------------------------------------------------------------------
 #N Geom=AllCheck Guess=TCheck SCRF=Check GenChk RB3LYP/6-31G(2df,p) Fr
 eq
 ----------------------------------------------------------------------

 Structure from the checkpoint file:  "/scratch/puck/g09_502b92f6-563f-4fe5-ae86-c5d9f65d2641/Gau-39813.chk"
 -----
 titel
 -----
 Charge =  0 Multiplicity = 1

                         Standard orientation:
 ---------------------------------------------------------------------
 Center     Atomic      Atomic             Coordinates (Angstroms)
 Number     Number       Type             X           Y           Z
 ---------------------------------------------------------------------
      1          6           0        1.907317   -1.442720   -0.331026
      2          6           0        0.891777   -0.403078    0.059661
      3          8           0        1.497016    0.812471    0.604575
      4          6           0        0.826152    1.642612   -0.376989
      5          6           0        0.040086    0.436805   -0.920799
      6          6           0       -1.228252   -0.033297   -0.165232
      7          8           0       -2.392852   -0.397564   -0.817081
      8          6           0       -1.187332    0.275747    1.302821
      9          6           0       -0.388038   -0.895145    0.777911
     10          1           0        2.423989   -1.816836    0.560217
     11          1           0        1.421041   -2.291324   -0.822961
     12          1           0        2.656039   -1.023174   -1.008959
     13          1           0        0.252050    2.454882    0.084700
     14          1           0        1.543121    2.069950   -1.089020
     15          1           0        0.025902    0.235645   -1.991078
     16          1           0       -3.005429    0.345615   -0.785895
     17          1           0       -0.677415    1.141747    1.710207
     18          1           0       -2.091766   -0.016767    1.827304
     19          1           0       -0.551105   -1.904543    1.137440
 ---------------------------------------------------------------------

 SCF Done:  E(RB3LYP) =  -423.124710013     A.U. after    1 cycles

 The electronic state is 1-A.
 Alpha  occ. eigenvalues --  -19.15033 -19.12601 -10.24441 -10.23655 -10.22582
 Alpha  occ. eigenvalues --  -10.18664 -10.18622 -10.18607 -10.17690  -1.03964
 Alpha  occ. eigenvalues --   -1.02760  -0.87406  -0.74958  -0.72922  -0.65481
 Alpha  occ. eigenvalues --   -0.60004  -0.58801  -0.52704  -0.50490  -0.49432
 Alpha  occ. eigenvalues --   -0.46481  -0.45396  -0.43149  -0.40809  -0.40418
 Alpha  occ. eigenvalues --   -0.39217  -0.37797  -0.35941  -0.33975  -0.31459
 Alpha  occ. eigenvalues --   -0.28903  -0.26336  -0.24517  -0.24236
 Alpha virt. eigenvalues --    0.07312   0.07995   0.10186   0.10742   0.11754
 Alpha virt. eigenvalues --    0.13379   0.14194   0.15694   0.16007   0.16812
 Alpha virt. eigenvalues --    0.17804   0.18521   0.19985   0.20507   0.23317

 Mulliken charges:
               1
     1  C   -0.478520
     2  C    0.461668
     3  O   -0.337245
     4  C   -0.117073
     5  C   -0.201767
     6  C    0.387985
     7  O   -0.463244
     8  C   -0.368001
     9  C   -0.155729
    10  H    0.129579
    11  H    0.123652
    12  H    0.121788
    13  H    0.096786
    14  H    0.100550
    15  H    0.083601
    16  H    0.286355
    17  H    0.129373
    18  H    0.111968
    19  H    0.088277
 Sum of Mulliken charges =   0.00000

 Dipole moment (field-independent basis, Debye):
    X=             -1.1386    Y=              0.5728    Z=             -0.7133  Tot=              1.4606
 Quadrupole moment (field-independent basis, Debye-Ang):
   XX=            -52.4076   YY=            -51.1596   ZZ=            -53.7881
   XY=             -5.2838   XZ=             -3.5608   YZ=             -2.7685

  Exact polarizability:  80.337  -2.309  75.549  -3.630  -2.251  67.879
 Approx polarizability: 110.743  -2.190 110.732   1.515  -2.649 104.519

                      1                      2                      3
                      A                      A                      A
 Frequencies --    141.5841               210.2993               240.0977
 Red. masses --      3.5671                 1.0453                 1.6381
 Frc consts  --      0.0421                 0.0272                 0.0556
 IR Inten    --      4.4241                 0.3698                63.0403

                      4                      5                      6
                      A                      A                      A
 Frequencies --    249.0099               298.2688               308.5876
 Red. masses --      1.8214                 2.8649                 2.3387
 Frc consts  --      0.0665                 0.1502                 0.1312
 IR Inten    --     27.6826                 1.9352                 2.5670

                      7                      8                      9
                      A                      A                      A
 Frequencies --    339.6816               395.2019               481.7801
 Red. masses --      3.3858                 4.0839                 2.4373
 Frc consts  --      0.2302                 0.3758                 0.3333
 IR Inten    --      3.8127                 8.5167                 4.8811

                     10                     11                     12
                      A                      A                      A
 Frequencies --    516.8791               582.5236               645.9427
 Red. masses --      2.6267                 3.7719                 2.9216
 Frc consts  --      0.4135                 0.7541                 0.7182
 IR Inten    --      5.9009                 2.5609                 0.6000

                     13                     14                     15
                      A                      A                      A
 Frequencies --    737.6894               811.5232               846.1914
 Red. masses --      3.9364                 3.2666                 2.1540
 Frc consts  --      1.2621                 1.2675                 0.9087
 IR Inten    --     10.3518                28.5725                 1.3926

                     16                     17                     18
                      A                      A                      A
 Frequencies --    873.4277               895.5676               932.0925
 Red. masses --      2.6440                 1.8767                 1.8855
 Frc consts  --      1.1884                 0.8868                 0.9652
 IR Inten    --     22.2945                 9.6958                15.6733

                     19                     20                     21
                      A                      A                      A
 Frequencies --    946.0127               982.2007               991.8867
 Red. masses --      1.3431                 4.1636                 2.3257
 Frc consts  --      0.7082                 2.3665                 1.3481
 IR Inten    --      4.8427                59.0934                10.3705

                     22                     23                     24
                      A                      A                      A
 Frequencies --   1005.0107              1016.4663              1068.9110
 Red. masses --      1.3686                 2.0362                 1.5345
 Frc consts  --      0.8144                 1.2395                 1.0330
 IR Inten    --      0.6812                 3.1675                24.1788

                     25                     26                     27
                      A                      A                      A
 Frequencies --   1074.4515              1101.6868              1146.6013
 Red. masses --      2.0689                 1.9006                 2.4200
 Frc consts  --      1.4072                 1.3591                 1.8745
 IR Inten    --      0.2525                 7.6750                35.8808

                     28                     29                     30
                      A                      A                      A
 Frequencies --   1164.8052              1177.0679              1194.4258
 Red. masses --      1.1609                 1.6747                 1.9902
 Frc consts  --      0.9280                 1.3671                 1.6729
 IR Inten    --      2.6438                 3.6836                52.1075

                     31                     32                     33
                      A                      A                      A
 Frequencies --   1238.4711              1274.3251              1299.7676
 Red. masses --      2.2452                 3.1013                 1.5438
 Frc consts  --      2.0290                 2.9672                 1.5367
 IR Inten    --     18.6211                17.6822                58.6955

                     34                     35                     36
                      A                      A                      A
 Frequencies --   1331.3564              1356.1814              1400.8699
 Red. masses --      1.5268                 2.1096                 2.0813
 Frc consts  --      1.5945                 2.2861                 2.4065
 IR Inten    --      4.9770                19.5776                44.5411

                     37                     38                     39
                      A                      A                      A
 Frequencies --   1408.7667              1480.8876              1486.1101
 Red. masses --      1.4110                 1.0632                 1.1208
 Frc consts  --      1.6498                 1.3737                 1.4584
 IR Inten    --      9.0995                 4.6291                 1.3751

                     40                     41                     42
                      A                      A                      A
 Frequencies --   1492.7650              1521.5046              3013.5426
 Red. masses --      1.3166                 1.0968                 1.0552
 Frc consts  --      1.7286                 1.4960                 5.6459
 IR Inten    --     14.2873                 0.4822                78.4235

                     43                     44                     45
                      A                      A                      A
 Frequencies --   3032.0308              3056.7162              3100.1550
 Red. masses --      1.0354                 1.1103                 1.1000
 Frc consts  --      5.6081                 6.1121                 6.2290
 IR Inten    --     16.0694                35.8038                14.2593

                     46                     47                     48
                      A                      A                      A
 Frequencies --   3114.5254              3127.2391              3130.5803
 Red. masses --      1.1020                 1.0893                 1.0531
 Frc consts  --      6.2983                 6.2768                 6.0811
 IR Inten    --     19.0000                21.2733                11.4810

                     49                     50                     51
                      A                      A                      A
 Frequencies --   3179.8551              3218.2190              3791.7066
 Red. masses --      1.0940                 1.1159                 1.0663
 Frc consts  --      6.5176                 6.8095                 9.0319
 IR Inten    --     10.9046                 5.9631                22.4633

 - Thermochemistry -
 -------------------
 Temperature   298.150 Kelvin.  Pressure   1.00000 Atm.
 Atom     1 has atomic number  6 and mass  12.00000

 Molecular mass:   126.06808 amu.
 Principal axes and moments of inertia in atomic units:
                           1         2         3
     Eigenvalues --   653.347321181.895951314.81622
           X            0.99798  -0.05001  -0.03908
           Y            0.04917   0.99854  -0.02215
           Z            0.04013   0.02019   0.99899
 This molecule is an asymmetric top.
 Rotational symmetry number  1.
 Warning -- assumption of classical behavior for rotation
           may cause significant error
 Rotational temperatures (Kelvin)      0.13257     0.07328     0.06588
 Rotational constants (GHZ):           2.76230     1.52699     1.37262
 Zero-point vibrational energy     415292.3 (Joules/Mol)
                                   99.25724 (Kcal/Mol)
 Warning -- explicit consideration of  11 degrees of freedom as
           vibrations may cause significant error
 Vibrational temperatures:    203.71   302.57   345.45   358.27   429.14
          (Kelvin)            443.99   488.73   568.61   693.17   743.67
                              838.12   929.37  1061.37  1167.60  1217.48
                             1256.67  1288.52  1341.07  1361.10  1413.17
                             1427.10  1445.98  1462.47  1537.92  1545.89
                             1585.08  1649.70  1675.89  1693.54  1718.51
                             1781.88  1833.47  1870.07  1915.52  1951.24
                             2015.54  2026.90  2130.66  2138.18  2147.75
                             2189.10  4335.81  4362.41  4397.93  4460.43
                             4481.10  4499.39  4504.20  4575.10  4630.29
                             5455.41

 Zero-point correction=                           0.158176 (Hartree/Particle)
 Thermal correction to Energy=                    0.166318
 Thermal correction to Enthalpy=                  0.167262
 Thermal correction to Gibbs Free Energy=         0.126158
 Sum of electronic and zero-point Energies=           -422.966534
 Sum of electronic and thermal Energies=              -422.958392
 Sum of electronic and thermal Enthalpies=            -422.957448
 Sum of electronic and thermal Free Energies=         -422.998552

                     E (Thermal)             CV                S
                      KCal/Mol        Cal/Mol-Kelvin    Cal/Mol-Kelvin
 Total                  104.366             32.635             86.510
 Electronic               0.000              0.000              0.000
 Translational            0.889              2.981             40.409
 Rotational               0.889              2.981             28.409
 Vibrational            102.589             26.674             17.693
 Vibration     1          0.615              1.912              2.782
 Vibration     2          0.642              1.825              2.041
 Vibration     3          0.657              1.779              1.802
 Vibration     4          0.662              1.764              1.738
 Vibration     5          0.691              1.677              1.427
 Vibration     6          0.698              1.657              1.370
 Vibration     7          0.720              1.596              1.214
 Vibration     8          0.762              1.480              0.980
 Vibration     9          0.838              1.290              0.705
 Vibration    10          0.872              1.213              0.617
 Vibration    11          0.939              1.069              0.481

 Optimization completed.
    -- Stationary point found.
 Normal termination of Gaussian 09 at Mon Jan 27 18:22:32 2020.
