 Gaussian 09, Revision D.01,
 Gaussian 09:  ES64L-G09RevD.01 24-Apr-2013

 -----------------------------
 # b3lyp 6-31G(2df,p) opt Freq
 -----------------------------

 -----
 titel
 -----
 Symbolic Z-matrix:
 Charge =  0 Multiplicity = 1

 SCF Done:  E(RB3LYP) =  -423.188964062     A.U. after   14 cycles
 SCF Done:  E(RB3LYP) =  -423.188964237     A.U. after    6 cycles
 Optimization completed.
    -- Stationary point found.
 Normal termination of Gaussian 09 at Mon Jan 27 17:12:59 2020.

 ----------------------------------------------------------------------
 #N Geom=AllCheck Guess=TCheck SCRF=Check GenChk RB3LYP/6-31G(2df,p) Fr
 eq
 ----------------------------------------------------------------------

 Structure from the checkpoint file:  "/scratch/puck/g09_6e382c0f-6751-42b7-ae7c-6f8eb1e9e907/Gau-168045.chk"
 -----
 titel
 -----
 Charge =  0 Multiplicity = 1

                         Standard orientation:
 ---------------------------------------------------------------------
 Center     Atomic      Atomic             Coordinates (Angstroms)
 Number     Number       Type             X           Y           Z
 ---------------------------------------------------------------------
      1          8           0       -2.492318   -0.963293   -0.002303
      2          6           0       -1.270912   -0.302354   -0.000461
      3          6           0       -0.076372   -0.675715   -0.931161
      4          6           0        0.708697    0.192251    0.085025
      5          6           0       -0.256659   -0.372251    1.187097
      6          6           0        0.106829    1.604538   -0.139349
      7          6           0       -1.401696    1.213290   -0.218454
      8          6           0        2.181694    0.071745    0.275677
      9          8           0        2.890087   -0.723583   -0.291506
     10          1           0       -2.330479   -1.908439    0.082744
     11          1           0        0.205610   -1.729277   -0.868827
     12          1           0       -0.106353   -0.348119   -1.973453
     13          1           0       -0.004179   -1.398194    1.467301
     14          1           0       -0.444806    0.238693    2.074033
     15          1           0        0.328796    2.284966    0.687843
     16          1           0        0.474749    2.061093   -1.062058
     17          1           0       -2.011837    1.680729    0.558544
     18          1           0       -1.850858    1.440966   -1.188340
     19          1           0        2.607722    0.783570    1.022438
 ---------------------------------------------------------------------

 SCF Done:  E(RB3LYP) =  -423.188964237     A.U. after    1 cycles

 The electronic state is 1-A.
 Alpha  occ. eigenvalues --  -19.14914 -19.13782 -10.26830 -10.24917 -10.20955
 Alpha  occ. eigenvalues --  -10.19685 -10.19600 -10.18757 -10.18684  -1.04385
 Alpha  occ. eigenvalues --   -1.03615  -0.89662  -0.73903  -0.71597  -0.67563
 Alpha  occ. eigenvalues --   -0.62394  -0.56710  -0.54517  -0.52221  -0.48350
 Alpha  occ. eigenvalues --   -0.47002  -0.44654  -0.42802  -0.41867  -0.38948
 Alpha  occ. eigenvalues --   -0.38083  -0.37963  -0.37094  -0.35172  -0.34208
 Alpha  occ. eigenvalues --   -0.32047  -0.30208  -0.26688  -0.24841
 Alpha virt. eigenvalues --   -0.02451   0.06897   0.08462   0.11414   0.12126
 Alpha virt. eigenvalues --    0.12900   0.14344   0.14786   0.15639   0.16480
 Alpha virt. eigenvalues --    0.17935   0.19293   0.19868   0.20843   0.21474

 Mulliken charges:
               1
     1  O   -0.482339
     2  C    0.415099
     3  C   -0.330125
     4  C    0.260472
     5  C   -0.334088
     6  C   -0.276916
     7  C   -0.237567
     8  C    0.047300
     9  O   -0.252947
    10  H    0.281660
    11  H    0.105839
    12  H    0.099906
    13  H    0.103808
    14  H    0.100648
    15  H    0.105069
    16  H    0.111171
    17  H    0.107062
    18  H    0.108783
    19  H    0.067166
 Sum of Mulliken charges =   0.00000

 Dipole moment (field-independent basis, Debye):
    X=             -1.2411    Y=              0.6100    Z=              0.9705  Tot=              1.6895
 Quadrupole moment (field-independent basis, Debye-Ang):
   XX=            -66.3488   YY=            -48.6881   ZZ=            -52.0455
   XY=              5.3178   XZ=              2.0605   YZ=             -0.9452

  Exact polarizability:  84.461  -1.031  75.174   0.072   2.711  68.167
 Approx polarizability: 119.050  -5.050 112.677  -4.365   6.865 106.245

                      1                      2                      3
                      A                      A                      A
 Frequencies --     70.4502               165.0053               235.6745
 Red. masses --      4.5195                 5.0228                 2.3506
 Frc consts  --      0.0132                 0.0806                 0.0769
 IR Inten    --      6.4981                 7.1934                 1.0149

                      4                      5                      6
                      A                      A                      A
 Frequencies --    260.2963               316.8886               363.7708
 Red. masses --      1.7700                 1.2037                 3.0742
 Frc consts  --      0.0707                 0.0712                 0.2397
 IR Inten    --      4.7685                80.6828                 7.6527

                      7                      8                      9
                      A                      A                      A
 Frequencies --    394.3266               446.1548               458.6441
 Red. masses --      2.7022                 3.0581                 2.7434
 Frc consts  --      0.2476                 0.3586                 0.3400
 IR Inten    --      9.6546                 0.2191                 4.8831

                     10                     11                     12
                      A                      A                      A
 Frequencies --    520.2618               596.5231               667.9824
 Red. masses --      1.8761                 4.9620                 4.0236
 Frc consts  --      0.2992                 1.0403                 1.0578
 IR Inten    --      2.0328                 7.0586                14.4691

                     13                     14                     15
                      A                      A                      A
 Frequencies --    725.1889               823.4940               835.6230
 Red. masses --      3.2816                 2.6581                 1.3228
 Frc consts  --      1.0168                 1.0620                 0.5442
 IR Inten    --     20.2592                 6.2051                 0.4377

                     16                     17                     18
                      A                      A                      A
 Frequencies --    853.6749               925.4862               951.7081
 Red. masses --      3.4704                 2.3399                 1.3939
 Frc consts  --      1.4901                 1.1809                 0.7438
 IR Inten    --      3.4347                 0.6816                 0.2131

                     19                     20                     21
                      A                      A                      A
 Frequencies --    963.1672               975.1739              1000.2533
 Red. masses --      2.6883                 1.9121                 1.2241
 Frc consts  --      1.4694                 1.0714                 0.7216
 IR Inten    --      2.0881                 3.5009                 1.5643

                     22                     23                     24
                      A                      A                      A
 Frequencies --   1016.7629              1056.8309              1117.7256
 Red. masses --      2.3191                 1.8237                 1.7500
 Frc consts  --      1.4126                 1.2001                 1.2881
 IR Inten    --      6.0785                 0.1410                 5.4355

                     25                     26                     27
                      A                      A                      A
 Frequencies --   1126.5762              1149.9432              1171.3840
 Red. masses --      1.5290                 1.7785                 1.4518
 Frc consts  --      1.1433                 1.3857                 1.1737
 IR Inten    --     31.4472                20.1618                 1.4768

                     28                     29                     30
                      A                      A                      A
 Frequencies --   1193.5298              1211.5311              1230.2447
 Red. masses --      1.9524                 1.7765                 1.6758
 Frc consts  --      1.6386                 1.5363                 1.4944
 IR Inten    --     57.7028                 2.7317                16.7171

                     31                     32                     33
                      A                      A                      A
 Frequencies --   1243.1825              1263.4896              1324.4819
 Red. masses --      1.1950                 1.9721                 1.8212
 Frc consts  --      1.0881                 1.8549                 1.8824
 IR Inten    --      4.4811                 5.9499                71.5273

                     34                     35                     36
                      A                      A                      A
 Frequencies --   1350.5850              1396.6897              1427.1853
 Red. masses --      2.9631                 1.8961                 1.2616
 Frc consts  --      3.1845                 2.1793                 1.5141
 IR Inten    --    113.1643                 5.8007                 8.7008

                     37                     38                     39
                      A                      A                      A
 Frequencies --   1480.7381              1493.5438              1498.5717
 Red. masses --      1.0968                 1.0840                 1.1061
 Frc consts  --      1.4169                 1.4246                 1.4636
 IR Inten    --      2.8832                 0.0145                 3.5824

                     40                     41                     42
                      A                      A                      A
 Frequencies --   1532.9298              1818.0362              2848.6725
 Red. masses --      1.1735                10.7947                 1.0811
 Frc consts  --      1.6247                21.0216                 5.1689
 IR Inten    --     10.6200               180.0749               125.6440

                     43                     44                     45
                      A                      A                      A
 Frequencies --   3053.0823              3054.4827              3062.4354
 Red. masses --      1.0555                 1.0576                 1.0575
 Frc consts  --      5.7968                 5.8137                 5.8436
 IR Inten    --     40.0380                32.1583                24.5821

                     46                     47                     48
                      A                      A                      A
 Frequencies --   3068.9996              3095.6884              3115.2522
 Red. masses --      1.0597                 1.1075                 1.1078
 Frc consts  --      5.8808                 6.2531                 6.3340
 IR Inten    --     19.5025                 2.5647                13.0357

                     49                     50                     51
                      A                      A                      A
 Frequencies --   3121.0655              3126.8768              3816.2994
 Red. masses --      1.1103                 1.1091                 1.0659
 Frc consts  --      6.3725                 6.3891                 9.1463
 IR Inten    --     39.2476                30.8340                22.9267

 - Thermochemistry -
 -------------------
 Temperature   298.150 Kelvin.  Pressure   1.00000 Atm.
 Atom     1 has atomic number  8 and mass  15.99491

 Molecular mass:   126.06808 amu.
 Principal axes and moments of inertia in atomic units:
                           1         2         3
     Eigenvalues --   537.193641451.689231659.92382
           X            0.99995   0.00652   0.00741
           Y           -0.00651   0.99998  -0.00139
           Z           -0.00742   0.00134   0.99997
 This molecule is an asymmetric top.
 Rotational symmetry number  1.
 Warning -- assumption of classical behavior for rotation
           may cause significant error
 Rotational temperatures (Kelvin)      0.16123     0.05966     0.05218
 Rotational constants (GHZ):           3.35957     1.24320     1.08724
 Zero-point vibrational energy     418792.1 (Joules/Mol)
                                  100.09370 (Kcal/Mol)
 Warning -- explicit consideration of  11 degrees of freedom as
           vibrations may cause significant error
 Vibrational temperatures:    101.36   237.41   339.08   374.51   455.93
          (Kelvin)            523.38   567.35   641.92   659.89   748.54
                              858.26   961.08  1043.38  1184.82  1202.27
                             1228.25  1331.57  1369.29  1385.78  1403.06
                             1439.14  1462.89  1520.54  1608.16  1620.89
                             1654.51  1685.36  1717.22  1743.12  1770.05
                             1788.66  1817.88  1905.63  1943.19  2009.52
                             2053.40  2130.45  2148.87  2156.11  2205.54
                             2615.75  4098.60  4392.70  4394.71  4406.16
                             4415.60  4454.00  4482.15  4490.51  4498.87
                             5490.80

 Zero-point correction=                           0.159509 (Hartree/Particle)
 Thermal correction to Energy=                    0.167613
 Thermal correction to Enthalpy=                  0.168557
 Thermal correction to Gibbs Free Energy=         0.126917
 Sum of electronic and zero-point Energies=           -423.029455
 Sum of electronic and thermal Energies=              -423.021351
 Sum of electronic and thermal Enthalpies=            -423.020407
 Sum of electronic and thermal Free Energies=         -423.062047

                     E (Thermal)             CV                S
                      KCal/Mol        Cal/Mol-Kelvin    Cal/Mol-Kelvin
 Total                  105.179             31.912             87.639
 Electronic               0.000              0.000              0.000
 Translational            0.889              2.981             40.409
 Rotational               0.889              2.981             28.650
 Vibrational            103.401             25.951             18.581
 Vibration     1          0.598              1.968              4.141
 Vibration     2          0.623              1.885              2.492
 Vibration     3          0.655              1.786              1.835
 Vibration     4          0.668              1.745              1.660
 Vibration     5          0.704              1.641              1.326
 Vibration     6          0.737              1.547              1.106
 Vibration     7          0.761              1.482              0.984
 Vibration     8          0.805              1.369              0.807
 Vibration     9          0.817              1.342              0.770
 Vibration    10          0.875              1.205              0.609
 Vibration    11          0.954              1.039              0.456

 Normal termination of Gaussian 09 at Mon Jan 27 17:57:14 2020.
