 Gaussian 09, Revision D.01,
 Gaussian 09:  ES64L-G09RevD.01 24-Apr-2013

 -----------------------------
 # b3lyp 6-31G(2df,p) opt Freq
 -----------------------------

 -----
 titel
 -----
 Symbolic Z-matrix:
 Charge =  0 Multiplicity = 1

 SCF Done:  E(RB3LYP) =  -423.227415202     A.U. after   14 cycles
 Optimization completed.
    -- Stationary point found.
 Normal termination of Gaussian 09 at Mon Jan 27 13:01:27 2020.

 ----------------------------------------------------------------------
 #N Geom=AllCheck Guess=TCheck SCRF=Check GenChk RB3LYP/6-31G(2df,p) Fr
 eq
 ----------------------------------------------------------------------

 Structure from the checkpoint file:  "/scratch/puck/g09_e3555178-5f60-433c-bbde-8efdd9458911/Gau-154863.chk"
 -----
 titel
 -----
 Charge =  0 Multiplicity = 1

                         Standard orientation:
 ---------------------------------------------------------------------
 Center     Atomic      Atomic             Coordinates (Angstroms)
 Number     Number       Type             X           Y           Z
 ---------------------------------------------------------------------
      1          8           0        2.542939    0.039058   -0.102915
      2          6           0        1.340327    0.103219   -0.035854
      3          6           0        0.540535    1.404851   -0.113254
      4          6           0       -0.952962    1.055815   -0.034574
      5          6           0       -1.350789    0.139493   -1.201425
      6          6           0       -0.496168   -1.158114   -1.124456
      7          6           0        0.410840   -1.091150    0.128627
      8          6           0       -0.484893   -0.826824    1.353291
      9          8           0       -1.214357    0.395653    1.206638
     10          1           0        0.832731    2.048213    0.723881
     11          1           0        0.795040    1.938007   -1.036212
     12          1           0       -1.568653    1.958267   -0.014421
     13          1           0       -2.417192   -0.087465   -1.122100
     14          1           0       -1.200699    0.661244   -2.152230
     15          1           0       -1.136405   -2.042333   -1.046079
     16          1           0        0.115016   -1.289099   -2.022069
     17          1           0        0.995515   -2.003470    0.262094
     18          1           0       -1.197750   -1.655640    1.470546
     19          1           0        0.112401   -0.769151    2.272674
 ---------------------------------------------------------------------

 SCF Done:  E(RB3LYP) =  -423.227415202     A.U. after    1 cycles

 The electronic state is 1-A.
 Alpha  occ. eigenvalues --  -19.14135 -19.12844 -10.26693 -10.24067 -10.23747
 Alpha  occ. eigenvalues --  -10.19915 -10.19870 -10.19127 -10.19061  -1.04276
 Alpha  occ. eigenvalues --   -1.03321  -0.82905  -0.78242  -0.74101  -0.65271
 Alpha  occ. eigenvalues --   -0.63418  -0.58750  -0.51492  -0.50217  -0.49186
 Alpha  occ. eigenvalues --   -0.48049  -0.43615  -0.41862  -0.41572  -0.41088
 Alpha  occ. eigenvalues --   -0.39913  -0.39357  -0.38571  -0.37619  -0.33912
 Alpha  occ. eigenvalues --   -0.33135  -0.29688  -0.25343  -0.23721
 Alpha virt. eigenvalues --   -0.01549   0.06932   0.10224   0.12280   0.12472
 Alpha virt. eigenvalues --    0.13865   0.14589   0.15252   0.16389   0.16605
 Alpha virt. eigenvalues --    0.16869   0.17888   0.19243   0.19708   0.21466

 Mulliken charges:
               1
     1  O   -0.328127
     2  C    0.416348
     3  C   -0.329740
     4  C    0.095172
     5  C   -0.214262
     6  C   -0.229942
     7  C   -0.135606
     8  C   -0.080445
     9  O   -0.277920
    10  H    0.137316
    11  H    0.127422
    12  H    0.082095
    13  H    0.111005
    14  H    0.103382
    15  H    0.110595
    16  H    0.114592
    17  H    0.086543
    18  H    0.101690
    19  H    0.109882
 Sum of Mulliken charges =   0.00000

 Dipole moment (field-independent basis, Debye):
    X=             -2.0729    Y=             -0.3319    Z=             -0.9864  Tot=              2.3195
 Quadrupole moment (field-independent basis, Debye-Ang):
   XX=            -63.5334   YY=            -49.2230   ZZ=            -52.4283
   XY=              0.7854   XZ=              2.8412   YZ=             -1.7298

  Exact polarizability:  77.082   0.166  74.947   1.698  -2.589  68.523
 Approx polarizability: 117.522  -1.039 106.598  -0.932  -3.180 100.681

                      1                      2                      3
                      A                      A                      A
 Frequencies --     60.9938               150.4715               263.3929
 Red. masses --      3.2712                 2.6422                 2.0665
 Frc consts  --      0.0072                 0.0352                 0.0845
 IR Inten    --      6.0556                 1.1798                 1.8358

                      4                      5                      6
                      A                      A                      A
 Frequencies --    333.6328               364.7615               447.6970
 Red. masses --      1.9668                 3.5749                 5.0128
 Frc consts  --      0.1290                 0.2802                 0.5920
 IR Inten    --      0.4310                 0.7168                13.5411

                      7                      8                      9
                      A                      A                      A
 Frequencies --    484.2355               520.9845               603.7153
 Red. masses --      5.4665                 3.9306                 2.6128
 Frc consts  --      0.7552                 0.6286                 0.5611
 IR Inten    --      1.8074                 4.6066                 0.0405

                     10                     11                     12
                      A                      A                      A
 Frequencies --    634.1900               743.5992               814.1251
 Red. masses --      4.7132                 4.0231                 1.5889
 Frc consts  --      1.1169                 1.3106                 0.6205
 IR Inten    --      3.0830                 1.4203                 1.7501

                     13                     14                     15
                      A                      A                      A
 Frequencies --    824.7324               864.3717               865.6663
 Red. masses --      2.6216                 2.6341                 2.6505
 Frc consts  --      1.0506                 1.1596                 1.1703
 IR Inten    --      3.9141                 6.8288                 4.2591

                     16                     17                     18
                      A                      A                      A
 Frequencies --    896.9863               949.8849               970.2193
 Red. masses --      2.0311                 2.2781                 1.8604
 Frc consts  --      0.9628                 1.2111                 1.0318
 IR Inten    --      3.4850                14.3612                 5.0431

                     19                     20                     21
                      A                      A                      A
 Frequencies --   1002.8375              1048.0251              1055.9408
 Red. masses --      3.9972                 2.1422                 2.8997
 Frc consts  --      2.3685                 1.3863                 1.9049
 IR Inten    --      6.7463                 1.2572                20.5737

                     22                     23                     24
                      A                      A                      A
 Frequencies --   1071.8652              1091.7615              1126.8763
 Red. masses --      1.6685                 2.4684                 1.2828
 Frc consts  --      1.1294                 1.7335                 0.9598
 IR Inten    --     17.7359                26.7948                27.1757

                     25                     26                     27
                      A                      A                      A
 Frequencies --   1198.8636              1215.2169              1228.5648
 Red. masses --      1.5916                 1.3106                 1.4406
 Frc consts  --      1.3478                 1.1403                 1.2811
 IR Inten    --     30.9254                15.9940                24.3518

                     28                     29                     30
                      A                      A                      A
 Frequencies --   1249.9286              1261.3965              1292.0435
 Red. masses --      1.6138                 1.1939                 1.8577
 Frc consts  --      1.4855                 1.1192                 1.8272
 IR Inten    --     11.6725                 4.6560                 3.4833

                     31                     32                     33
                      A                      A                      A
 Frequencies --   1330.7324              1333.5303              1348.5488
 Red. masses --      1.5683                 1.4725                 1.4594
 Frc consts  --      1.6363                 1.5428                 1.5638
 IR Inten    --      6.3501                 9.3505                 2.9164

                     34                     35                     36
                      A                      A                      A
 Frequencies --   1367.7792              1374.6319              1410.0515
 Red. masses --      1.3956                 1.3795                 1.3465
 Frc consts  --      1.5383                 1.5359                 1.5774
 IR Inten    --     10.6153                 2.7673                 8.5028

                     37                     38                     39
                      A                      A                      A
 Frequencies --   1431.9217              1483.1985              1503.8546
 Red. masses --      1.0959                 1.0772                 1.0930
 Frc consts  --      1.3239                 1.3962                 1.4564
 IR Inten    --      8.6454                 0.9360                 4.0803

                     40                     41                     42
                      A                      A                      A
 Frequencies --   1528.0392              1835.2146              2994.7898
 Red. masses --      1.0859                12.0723                 1.0601
 Frc consts  --      1.4939                23.9559                 5.6019
 IR Inten    --      0.1546               207.7356                69.5798

                     43                     44                     45
                      A                      A                      A
 Frequencies --   3032.8888              3043.9275              3045.6647
 Red. masses --      1.1050                 1.0600                 1.0606
 Frc consts  --      5.9887                 5.7867                 5.7963
 IR Inten    --     37.5724                14.9328                12.7759

                     46                     47                     48
                      A                      A                      A
 Frequencies --   3054.2574              3081.0294              3083.9600
 Red. masses --      1.0633                 1.1008                 1.0902
 Frc consts  --      5.8443                 6.1567                 6.1093
 IR Inten    --     29.6507                10.8126                37.3301

                     49                     50                     51
                      A                      A                      A
 Frequencies --   3090.3008              3098.5098              3104.1740
 Red. masses --      1.1024                 1.0872                 1.1042
 Frc consts  --      6.2026                 6.1497                 6.2687
 IR Inten    --      5.7660                14.8753                35.8513

 - Thermochemistry -
 -------------------
 Temperature   298.150 Kelvin.  Pressure   1.00000 Atm.
 Atom     1 has atomic number  8 and mass  15.99491

 Molecular mass:   126.06808 amu.
 Principal axes and moments of inertia in atomic units:
                           1         2         3
     Eigenvalues --   722.664471090.878811115.08876
           X            0.99885   0.02831   0.03864
           Y           -0.01715   0.96451  -0.26350
           Z           -0.04473   0.26253   0.96389
 This molecule is an asymmetric top.
 Rotational symmetry number  1.
 Warning -- assumption of classical behavior for rotation
           may cause significant error
 Rotational temperatures (Kelvin)      0.11985     0.07940     0.07767
 Rotational constants (GHZ):           2.49734     1.65439     1.61847
 Zero-point vibrational energy     425954.2 (Joules/Mol)
                                  101.80550 (Kcal/Mol)
 Warning -- explicit consideration of   9 degrees of freedom as
           vibrations may cause significant error
 Vibrational temperatures:     87.76   216.49   378.96   480.02   524.81
          (Kelvin)            644.14   696.71   749.58   868.61   912.46
                             1069.87  1171.34  1186.60  1243.64  1245.50
                             1290.56  1366.67  1395.93  1442.86  1507.87
                             1519.26  1542.17  1570.80  1621.32  1724.90
                             1748.42  1767.63  1798.37  1814.87  1858.96
                             1914.62  1918.65  1940.26  1967.93  1977.79
                             2028.75  2060.21  2133.99  2163.71  2198.50
                             2640.46  4308.83  4363.65  4379.53  4382.03
                             4394.39  4432.91  4437.12  4446.25  4458.06
                             4466.21

 Zero-point correction=                           0.162237 (Hartree/Particle)
 Thermal correction to Energy=                    0.169568
 Thermal correction to Enthalpy=                  0.170512
 Thermal correction to Gibbs Free Energy=         0.130199
 Sum of electronic and zero-point Energies=           -423.065178
 Sum of electronic and thermal Energies=              -423.057847
 Sum of electronic and thermal Enthalpies=            -423.056903
 Sum of electronic and thermal Free Energies=         -423.097216

                     E (Thermal)             CV                S
                      KCal/Mol        Cal/Mol-Kelvin    Cal/Mol-Kelvin
 Total                  106.405             29.026             84.847
 Electronic               0.000              0.000              0.000
 Translational            0.889              2.981             40.409
 Rotational               0.889              2.981             28.266
 Vibrational            104.628             23.064             16.173
 Vibration     1          0.597              1.973              4.425
 Vibration     2          0.618              1.902              2.666
 Vibration     3          0.670              1.740              1.639
 Vibration     4          0.715              1.608              1.242
 Vibration     5          0.738              1.545              1.102
 Vibration     6          0.807              1.366              0.803
 Vibration     7          0.840              1.285              0.699
 Vibration     8          0.876              1.204              0.608
 Vibration     9          0.962              1.024              0.443

 Optimization completed.
    -- Stationary point found.
 Normal termination of Gaussian 09 at Mon Jan 27 13:48:43 2020.
