 Gaussian 09, Revision D.01,
 Gaussian 09:  ES64L-G09RevD.01 24-Apr-2013

 -----------------------------
 # b3lyp 6-31G(2df,p) opt Freq
 -----------------------------

 -----
 titel
 -----
 Symbolic Z-matrix:
 Charge =  0 Multiplicity = 1

 SCF Done:  E(RB3LYP) =  -423.116594054     A.U. after   13 cycles
 Optimization completed.
    -- Stationary point found.
 Normal termination of Gaussian 09 at Tue Jan 28 08:19:12 2020.

 ----------------------------------------------------------------------
 #N Geom=AllCheck Guess=TCheck SCRF=Check GenChk RB3LYP/6-31G(2df,p) Fr
 eq
 ----------------------------------------------------------------------

 Structure from the checkpoint file:  "/scratch/puck/g09_a1d79fd9-e4a6-4cab-84ec-1c96b584bf32/Gau-74505.chk"
 -----
 titel
 -----
 Charge =  0 Multiplicity = 1

                         Standard orientation:
 ---------------------------------------------------------------------
 Center     Atomic      Atomic             Coordinates (Angstroms)
 Number     Number       Type             X           Y           Z
 ---------------------------------------------------------------------
      1          6           0       -1.700859   -1.608986   -0.402266
      2          8           0       -0.713281   -0.692237   -0.859088
      3          6           0       -0.649265    0.492991   -0.131494
      4          6           0       -1.769570    1.480589   -0.367959
      5          6           0        0.043830    0.425241    1.208648
      6          8           0        0.481215   -0.786548    1.723175
      7          6           0        0.775385    1.049036    0.010293
      8          6           0        1.884939    0.320673   -0.519400
      9          6           0        2.828005   -0.327477   -0.895008
     10          1           0       -2.719050   -1.229341   -0.563483
     11          1           0       -1.573194   -2.517135   -0.995844
     12          1           0       -1.563553   -1.844445    0.658313
     13          1           0       -1.825755    1.747707   -1.428178
     14          1           0       -2.736317    1.064805   -0.065682
     15          1           0       -1.610547    2.395871    0.209681
     16          1           0       -0.280149    1.100419    1.995922
     17          1           0        1.166974   -1.130384    1.133802
     18          1           0        0.870841    2.130658   -0.001998
     19          1           0        3.652486   -0.880266   -1.272105
 ---------------------------------------------------------------------

 SCF Done:  E(RB3LYP) =  -423.116594054     A.U. after    1 cycles

 The electronic state is 1-A.
 Alpha  occ. eigenvalues --  -19.14679 -19.14557 -10.24643 -10.24380 -10.22105
 Alpha  occ. eigenvalues --  -10.21200 -10.18817 -10.18637 -10.17694  -1.05094
 Alpha  occ. eigenvalues --   -1.02418  -0.85674  -0.75534  -0.71731  -0.68984
 Alpha  occ. eigenvalues --   -0.63924  -0.58049  -0.53826  -0.51466  -0.49924
 Alpha  occ. eigenvalues --   -0.46485  -0.45637  -0.44051  -0.42562  -0.40774
 Alpha  occ. eigenvalues --   -0.39858  -0.39003  -0.35941  -0.33921  -0.31757
 Alpha  occ. eigenvalues --   -0.28207  -0.27865  -0.24596  -0.23060
 Alpha virt. eigenvalues --    0.03890   0.04312   0.09033   0.10148   0.10855
 Alpha virt. eigenvalues --    0.12684   0.14408   0.14631   0.14934   0.16229
 Alpha virt. eigenvalues --    0.17017   0.17924   0.19055   0.20226   0.20633

 Mulliken charges:
               1
     1  C   -0.255853
     2  O   -0.277114
     3  C    0.376190
     4  C   -0.463167
     5  C    0.063569
     6  O   -0.426581
     7  C   -0.380259
     8  C    0.326100
     9  C   -0.426043
    10  H    0.107072
    11  H    0.127594
    12  H    0.134942
    13  H    0.132326
    14  H    0.125314
    15  H    0.120538
    16  H    0.107560
    17  H    0.293303
    18  H    0.115464
    19  H    0.199043
 Sum of Mulliken charges =   0.00000

 Dipole moment (field-independent basis, Debye):
    X=             -0.7967    Y=              0.6043    Z=             -0.1763  Tot=              1.0154
 Quadrupole moment (field-independent basis, Debye-Ang):
   XX=            -48.1433   YY=            -48.8295   ZZ=            -57.8459
   XY=             -2.2450   XZ=             -1.5951   YZ=              2.4365

  Exact polarizability:  96.035  -8.198  75.369  -7.822   3.392  65.793
 Approx polarizability: 135.684 -18.698 111.124 -17.200   6.429 101.772

                      1                      2                      3
                      A                      A                      A
 Frequencies --    102.5241               113.4908               133.3647
 Red. masses --      2.4817                 4.2235                 2.3614
 Frc consts  --      0.0154                 0.0321                 0.0247
 IR Inten    --      8.6236                 2.5216                 3.0306

                      4                      5                      6
                      A                      A                      A
 Frequencies --    175.9021               208.2933               209.1483
 Red. masses --      1.7018                 1.1989                 2.5361
 Frc consts  --      0.0310                 0.0306                 0.0654
 IR Inten    --      0.7271                 0.1062                 7.8477

                      7                      8                      9
                      A                      A                      A
 Frequencies --    258.1467               281.0733               304.9349
 Red. masses --      1.3028                 1.8230                 3.8911
 Frc consts  --      0.0512                 0.0849                 0.2132
 IR Inten    --     40.3260                36.7344                 3.6842

                     10                     11                     12
                      A                      A                      A
 Frequencies --    342.0422               388.5650               403.3340
 Red. masses --      3.3540                 4.8521                 5.0236
 Frc consts  --      0.2312                 0.4316                 0.4815
 IR Inten    --      0.3172                 1.3300                10.0528

                     13                     14                     15
                      A                      A                      A
 Frequencies --    552.4367               588.8030               638.5748
 Red. masses --      4.6390                 1.3287                 3.3032
 Frc consts  --      0.8341                 0.2714                 0.7936
 IR Inten    --      4.1556                47.2570                 3.8931

                     16                     17                     18
                      A                      A                      A
 Frequencies --    656.0836               665.5841               723.4562
 Red. masses --      3.9873                 1.2441                 4.0867
 Frc consts  --      1.0112                 0.3247                 1.2602
 IR Inten    --      7.5381                35.8227                16.0067

                     19                     20                     21
                      A                      A                      A
 Frequencies --    807.1200               822.6534               947.6301
 Red. masses --      2.6912                 2.9328                 1.9297
 Frc consts  --      1.0329                 1.1694                 1.0210
 IR Inten    --      9.6477                 7.4049                14.4801

                     22                     23                     24
                      A                      A                      A
 Frequencies --    984.2546              1070.4979              1086.5814
 Red. masses --      1.6375                 2.1796                 3.8354
 Frc consts  --      0.9346                 1.4716                 2.6680
 IR Inten    --      5.7094                12.8695                78.7840

                     25                     26                     27
                      A                      A                      A
 Frequencies --   1097.5851              1122.5163              1153.9102
 Red. masses --      1.5834                 1.8173                 3.1860
 Frc consts  --      1.1238                 1.3492                 2.4994
 IR Inten    --      2.5141                26.7960                86.5981

                     28                     29                     30
                      A                      A                      A
 Frequencies --   1178.9964              1197.9212              1232.6754
 Red. masses --      1.2732                 1.7375                 1.5239
 Frc consts  --      1.0427                 1.4690                 1.3643
 IR Inten    --      1.4199                11.0542                 7.6642

                     31                     32                     33
                      A                      A                      A
 Frequencies --   1300.3435              1335.5984              1377.4468
 Red. masses --      2.3757                 1.6741                 1.7696
 Frc consts  --      2.3668                 1.7595                 1.9783
 IR Inten    --     90.0951                 1.6783                22.7473

                     34                     35                     36
                      A                      A                      A
 Frequencies --   1410.8794              1449.4138              1474.3829
 Red. masses --      1.2943                 1.6542                 1.1480
 Frc consts  --      1.5180                 2.0475                 1.4704
 IR Inten    --      8.4347                55.3319                 2.1265

                     37                     38                     39
                      A                      A                      A
 Frequencies --   1481.9666              1496.6549              1502.3668
 Red. masses --      1.0534                 1.0659                 1.0920
 Frc consts  --      1.3630                 1.4067                 1.4522
 IR Inten    --      5.3321                 2.7422                 2.1005

                     40                     41                     42
                      A                      A                      A
 Frequencies --   1508.7356              2227.1639              3006.3305
 Red. masses --      1.0510                 6.0506                 1.0392
 Frc consts  --      1.4095                17.6828                 5.5337
 IR Inten    --      6.1421                15.7691                55.0797

                     43                     44                     45
                      A                      A                      A
 Frequencies --   3036.1929              3080.0066              3103.4474
 Red. masses --      1.0349                 1.0949                 1.1012
 Frc consts  --      5.6208                 6.1197                 6.2489
 IR Inten    --     25.9922                29.5751                20.2536

                     46                     47                     48
                      A                      A                      A
 Frequencies --   3112.0117              3125.3920              3144.6603
 Red. masses --      1.1011                 1.1030                 1.0883
 Frc consts  --      6.2830                 6.3482                 6.3409
 IR Inten    --     16.6582                19.7819                 7.3806

                     49                     50                     51
                      A                      A                      A
 Frequencies --   3153.7610              3503.2039              3738.9182
 Red. masses --      1.0889                 1.1589                 1.0657
 Frc consts  --      6.3808                 8.3798                 8.7774
 IR Inten    --     18.7253                83.1551                67.8892

 - Thermochemistry -
 -------------------
 Temperature   298.150 Kelvin.  Pressure   1.00000 Atm.
 Atom     1 has atomic number  6 and mass  12.00000

 Molecular mass:   126.06808 amu.
 Principal axes and moments of inertia in atomic units:
                           1         2         3
     Eigenvalues --   818.303271358.483001433.46490
           X            0.99982  -0.01873   0.00230
           Y            0.01844   0.99561   0.09180
           Z           -0.00401  -0.09174   0.99577
 This molecule is an asymmetric top.
 Rotational symmetry number  1.
 Warning -- assumption of classical behavior for rotation
           may cause significant error
 Rotational temperatures (Kelvin)      0.10585     0.06376     0.06042
 Rotational constants (GHZ):           2.20547     1.32850     1.25901
 Zero-point vibrational energy     406831.9 (Joules/Mol)
                                   97.23515 (Kcal/Mol)
 Warning -- explicit consideration of  14 degrees of freedom as
           vibrations may cause significant error
 Vibrational temperatures:    147.51   163.29   191.88   253.08   299.69
          (Kelvin)            300.92   371.42   404.40   438.73   492.12
                              559.06   580.31   794.83   847.16   918.77
                              943.96   957.63  1040.89  1161.26  1183.61
                             1363.43  1416.12  1540.21  1563.35  1579.18
                             1615.05  1660.22  1696.31  1723.54  1773.54
                             1870.90  1921.63  1981.84  2029.94  2085.38
                             2121.31  2132.22  2153.35  2161.57  2170.73
                             3204.39  4325.43  4368.40  4431.44  4465.16
                             4477.49  4496.74  4524.46  4537.55  5040.32
                             5379.46

 Zero-point correction=                           0.154954 (Hartree/Particle)
 Thermal correction to Energy=                    0.165252
 Thermal correction to Enthalpy=                  0.166196
 Thermal correction to Gibbs Free Energy=         0.120301
 Sum of electronic and zero-point Energies=           -422.961640
 Sum of electronic and thermal Energies=              -422.951342
 Sum of electronic and thermal Enthalpies=            -422.950398
 Sum of electronic and thermal Free Energies=         -422.996293

                     E (Thermal)             CV                S
                      KCal/Mol        Cal/Mol-Kelvin    Cal/Mol-Kelvin
 Total                  103.697             37.753             96.594
 Electronic               0.000              0.000              0.000
 Translational            0.889              2.981             40.409
 Rotational               0.889              2.981             28.857
 Vibrational            101.920             31.791             27.329
 Vibration     1          0.605              1.947              3.406
 Vibration     2          0.607              1.938              3.208
 Vibration     3          0.613              1.920              2.897
 Vibration     4          0.628              1.872              2.371
 Vibration     5          0.642              1.828              2.059
 Vibration     6          0.642              1.827              2.051
 Vibration     7          0.667              1.749              1.674
 Vibration     8          0.681              1.709              1.527
 Vibration     9          0.696              1.664              1.390
 Vibration    10          0.721              1.591              1.203
 Vibration    11          0.757              1.495              1.006
 Vibration    12          0.769              1.463              0.950
 Vibration    13          0.908              1.134              0.539
 Vibration    14          0.946              1.056              0.469

 Optimization completed.
    -- Stationary point found.
 Normal termination of Gaussian 09 at Tue Jan 28 09:05:07 2020.
