 Gaussian 09, Revision D.01,
 Gaussian 09:  ES64L-G09RevD.01 24-Apr-2013

 -----------------------------
 # b3lyp 6-31G(2df,p) opt Freq
 -----------------------------

 -----
 titel
 -----
 Symbolic Z-matrix:
 Charge =  0 Multiplicity = 1

 SCF Done:  E(RB3LYP) =  -423.136445039     A.U. after   14 cycles
 SCF Done:  E(RB3LYP) =  -423.136444864     A.U. after    7 cycles
 SCF Done:  E(RB3LYP) =  -423.136445072     A.U. after    7 cycles
 Optimization completed.
    -- Stationary point found.
 Normal termination of Gaussian 09 at Tue Jan 28 14:24:07 2020.

 ----------------------------------------------------------------------
 #N Geom=AllCheck Guess=TCheck SCRF=Check GenChk RB3LYP/6-31G(2df,p) Fr
 eq
 ----------------------------------------------------------------------

 Structure from the checkpoint file:  "/scratch/puck/g09_33d5f022-d082-4f2f-bd92-bba566e296c6/Gau-98491.chk"
 -----
 titel
 -----
 Charge =  0 Multiplicity = 1

                         Standard orientation:
 ---------------------------------------------------------------------
 Center     Atomic      Atomic             Coordinates (Angstroms)
 Number     Number       Type             X           Y           Z
 ---------------------------------------------------------------------
      1          6           0       -3.370658    0.293445   -0.133096
      2          8           0       -2.140366   -0.354959   -0.355515
      3          6           0       -1.157483   -0.010578    0.597300
      4          6           0        0.102526   -0.779527    0.259128
      5          6           0        0.985343   -0.342592   -0.965257
      6          6           0        2.139373   -1.147205   -0.272474
      7          6           0        1.468526   -0.386375    0.923336
      8          6           0        1.449898    0.805494   -0.053807
      9          8           0        1.687091    1.972590   -0.085978
     10          1           0       -3.270659    1.388894   -0.185916
     11          1           0       -4.059897   -0.036610   -0.913958
     12          1           0       -3.796121    0.035515    0.849816
     13          1           0       -0.972590    1.076869    0.589112
     14          1           0       -1.497432   -0.272875    1.614786
     15          1           0       -0.082731   -1.857457    0.271854
     16          1           0        0.707375   -0.336456   -2.015908
     17          1           0        1.988625   -2.228869   -0.258534
     18          1           0        3.166405   -0.880902   -0.526787
     19          1           0        1.738072   -0.425130    1.976704
 ---------------------------------------------------------------------

 SCF Done:  E(RB3LYP) =  -423.136445072     A.U. after    1 cycles

 The electronic state is 1-A.
 Alpha  occ. eigenvalues --  -19.14439 -19.13559 -10.27428 -10.23323 -10.22689
 Alpha  occ. eigenvalues --  -10.21373 -10.21335 -10.21172 -10.21049  -1.04899
 Alpha  occ. eigenvalues --   -1.03742  -0.92528  -0.75230  -0.67327  -0.65052
 Alpha  occ. eigenvalues --   -0.64048  -0.61064  -0.51630  -0.49861  -0.49019
 Alpha  occ. eigenvalues --   -0.48371  -0.45905  -0.44064  -0.42222  -0.42106
 Alpha  occ. eigenvalues --   -0.39355  -0.36424  -0.35115  -0.34215  -0.33562
 Alpha  occ. eigenvalues --   -0.33225  -0.31541  -0.26007  -0.24253
 Alpha virt. eigenvalues --    0.01205   0.08293   0.10703   0.11204   0.12903
 Alpha virt. eigenvalues --    0.13208   0.13437   0.13782   0.15005   0.16058
 Alpha virt. eigenvalues --    0.16683   0.16918   0.17898   0.18471   0.19931

 Mulliken charges:
               1
     1  C   -0.225784
     2  O   -0.234862
     3  C   -0.112646
     4  C    0.015407
     5  C   -0.163636
     6  C   -0.243727
     7  C   -0.191071
     8  C    0.442914
     9  O   -0.331205
    10  H    0.109475
    11  H    0.128595
    12  H    0.104105
    13  H    0.106247
    14  H    0.087693
    15  H    0.088193
    16  H    0.100364
    17  H    0.111336
    18  H    0.115902
    19  H    0.092700
 Sum of Mulliken charges =   0.00000

 Dipole moment (field-independent basis, Debye):
    X=             -0.9441    Y=             -2.1732    Z=              0.8004  Tot=              2.5009
 Quadrupole moment (field-independent basis, Debye-Ang):
   XX=            -49.9893   YY=            -58.8457   ZZ=            -51.9112
   XY=             -7.0744   XZ=             -1.0130   YZ=             -0.1442

  Exact polarizability:  88.631  -1.315  74.852   0.243  -0.315  68.142
 Approx polarizability: 110.066   3.232 121.696   1.130   0.008 105.766

                      1                      2                      3
                      A                      A                      A
 Frequencies --     63.1228                91.0553               125.3025
 Red. masses --      3.7011                 2.2036                 3.9025
 Frc consts  --      0.0087                 0.0108                 0.0361
 IR Inten    --      0.7831                 4.9982                 3.2528

                      4                      5                      6
                      A                      A                      A
 Frequencies --    167.6315               228.4402               321.6300
 Red. masses --      3.6507                 1.3243                 2.5758
 Frc consts  --      0.0604                 0.0407                 0.1570
 IR Inten    --      0.4530                 3.0366                 0.5075

                      7                      8                      9
                      A                      A                      A
 Frequencies --    358.1492               385.0969               449.8319
 Red. masses --      2.8563                 4.0488                 3.8239
 Frc consts  --      0.2159                 0.3538                 0.4559
 IR Inten    --      0.8188                 2.2877                 1.4557

                     10                     11                     12
                      A                      A                      A
 Frequencies --    582.0170               690.0421               762.6906
 Red. masses --      2.9149                 3.6583                 3.9992
 Frc consts  --      0.5818                 1.0263                 1.3706
 IR Inten    --      1.1864                 1.8278                 1.4919

                     13                     14                     15
                      A                      A                      A
 Frequencies --    764.2520               820.5806               870.9685
 Red. masses --      3.1526                 3.7988                 3.0239
 Frc consts  --      1.0849                 1.5071                 1.3515
 IR Inten    --      3.9323                 5.6065                 3.9991

                     16                     17                     18
                      A                      A                      A
 Frequencies --    885.7871               945.1972               993.8149
 Red. masses --      2.3831                 1.5714                 2.9732
 Frc consts  --      1.1017                 0.8272                 1.7302
 IR Inten    --      0.6354                24.6770                19.1286

                     19                     20                     21
                      A                      A                      A
 Frequencies --   1025.3641              1027.4354              1040.8039
 Red. masses --      1.3096                 1.4278                 1.2724
 Frc consts  --      0.8113                 0.8880                 0.8121
 IR Inten    --      6.9377                 1.9551                 0.6723

                     22                     23                     24
                      A                      A                      A
 Frequencies --   1061.1734              1105.3035              1108.9667
 Red. masses --      1.6790                 2.5489                 2.0953
 Frc consts  --      1.1140                 1.8347                 1.5182
 IR Inten    --      0.5743                 1.8183                 1.5872

                     25                     26                     27
                      A                      A                      A
 Frequencies --   1147.3134              1170.7586              1183.4630
 Red. masses --      3.1802                 2.4781                 1.3811
 Frc consts  --      2.4664                 2.0013                 1.1397
 IR Inten    --     76.2517                77.8743                 7.7775

                     28                     29                     30
                      A                      A                      A
 Frequencies --   1188.0110              1206.2877              1221.7478
 Red. masses --      1.4837                 1.6994                 1.6566
 Frc consts  --      1.2337                 1.4569                 1.4569
 IR Inten    --      8.3696                 3.2006                16.1438

                     31                     32                     33
                      A                      A                      A
 Frequencies --   1232.8705              1245.5776              1270.3259
 Red. masses --      1.7852                 1.7235                 1.2102
 Frc consts  --      1.5987                 1.5754                 1.1507
 IR Inten    --     20.4514                 7.2353                 5.6619

                     34                     35                     36
                      A                      A                      A
 Frequencies --   1371.2135              1438.2358              1482.3171
 Red. masses --      1.2788                 1.4031                 1.1677
 Frc consts  --      1.4167                 1.7100                 1.5117
 IR Inten    --     20.3561                15.7166                 0.7964

                     37                     38                     39
                      A                      A                      A
 Frequencies --   1485.2207              1503.6443              1514.8606
 Red. masses --      1.0542                 1.0698                 1.1107
 Frc consts  --      1.3702                 1.4250                 1.5018
 IR Inten    --      4.9448                 9.8304                 0.0547

                     40                     41                     42
                      A                      A                      A
 Frequencies --   1525.6508              1916.0517              2947.0457
 Red. masses --      1.0873                11.9963                 1.0569
 Frc consts  --      1.4911                25.9486                 5.4085
 IR Inten    --      2.0300               348.4300                34.9824

                     43                     44                     45
                      A                      A                      A
 Frequencies --   2972.1443              2981.5043              3016.4567
 Red. masses --      1.0405                 1.0980                 1.1031
 Frc consts  --      5.4155                 5.7509                 5.9135
 IR Inten    --     75.7251                39.2956                52.0054

                     46                     47                     48
                      A                      A                      A
 Frequencies --   3068.0009              3075.2056              3115.9925
 Red. masses --      1.0539                 1.0849                 1.0961
 Frc consts  --      5.8446                 6.0450                 6.2703
 IR Inten    --     30.0945                23.5506                28.8110

                     49                     50                     51
                      A                      A                      A
 Frequencies --   3140.6813              3144.6940              3160.2772
 Red. masses --      1.1123                 1.0930                 1.0942
 Frc consts  --      6.4640                 6.3684                 6.4388
 IR Inten    --     22.4275                28.9712                13.8810

 - Thermochemistry -
 -------------------
 Temperature   298.150 Kelvin.  Pressure   1.00000 Atm.
 Atom     1 has atomic number  6 and mass  12.00000

 Molecular mass:   126.06808 amu.
 Principal axes and moments of inertia in atomic units:
                           1         2         3
     Eigenvalues --   551.051961766.937962012.41480
           X            0.99927  -0.03794  -0.00542
           Y            0.03797   0.99926   0.00579
           Z            0.00520  -0.00599   0.99997
 This molecule is an asymmetric top.
 Rotational symmetry number  1.
 Warning -- assumption of classical behavior for rotation
           may cause significant error
 Rotational temperatures (Kelvin)      0.15718     0.04902     0.04304
 Rotational constants (GHZ):           3.27508     1.02139     0.89680
 Zero-point vibrational energy     416301.7 (Joules/Mol)
                                   99.49849 (Kcal/Mol)
 Warning -- explicit consideration of  10 degrees of freedom as
           vibrations may cause significant error
 Vibrational temperatures:     90.82   131.01   180.28   241.18   328.67
          (Kelvin)            462.75   515.30   554.07   647.21   837.39
                              992.82  1097.34  1099.59  1180.63  1253.13
                             1274.45  1359.93  1429.88  1475.27  1478.25
                             1497.48  1526.79  1590.28  1595.55  1650.73
                             1684.46  1702.74  1709.28  1735.58  1757.82
                             1773.82  1792.11  1827.71  1972.87  2069.30
                             2132.72  2136.90  2163.41  2179.54  2195.07
                             2756.77  4240.14  4276.25  4289.71  4340.00
                             4414.16  4424.53  4483.21  4518.73  4524.51
                             4546.93

 Zero-point correction=                           0.158561 (Hartree/Particle)
 Thermal correction to Energy=                    0.167208
 Thermal correction to Enthalpy=                  0.168152
 Thermal correction to Gibbs Free Energy=         0.124454
 Sum of electronic and zero-point Energies=           -422.977884
 Sum of electronic and thermal Energies=              -422.969237
 Sum of electronic and thermal Enthalpies=            -422.968293
 Sum of electronic and thermal Free Energies=         -423.011991

                     E (Thermal)             CV                S
                      KCal/Mol        Cal/Mol-Kelvin    Cal/Mol-Kelvin
 Total                  104.925             31.705             91.971
 Electronic               0.000              0.000              0.000
 Translational            0.889              2.981             40.409
 Rotational               0.889              2.981             29.062
 Vibrational            103.147             25.744             22.501
 Vibration     1          0.597              1.972              4.357
 Vibration     2          0.602              1.956              3.637
 Vibration     3          0.610              1.928              3.017
 Vibration     4          0.624              1.882              2.462
 Vibration     5          0.651              1.798              1.891
 Vibration     6          0.707              1.632              1.302
 Vibration     7          0.733              1.559              1.130
 Vibration     8          0.754              1.502              1.019
 Vibration     9          0.809              1.361              0.796
 Vibration    10          0.939              1.070              0.482

 Optimization completed.
    -- Stationary point found.
 Normal termination of Gaussian 09 at Tue Jan 28 15:05:42 2020.
