 Gaussian 09, Revision D.01,
 Gaussian 09:  ES64L-G09RevD.01 24-Apr-2013

 -----------------------------
 # b3lyp 6-31G(2df,p) opt Freq
 -----------------------------

 -----
 titel
 -----
 Symbolic Z-matrix:
 Charge =  0 Multiplicity = 1

 SCF Done:  E(RB3LYP) =  -423.209514303     A.U. after   14 cycles
 Optimization completed.
    -- Stationary point found.
 Normal termination of Gaussian 09 at Tue Jan 28 03:52:38 2020.

 ----------------------------------------------------------------------
 #N Geom=AllCheck Guess=TCheck SCRF=Check GenChk RB3LYP/6-31G(2df,p) Fr
 eq
 ----------------------------------------------------------------------

 Structure from the checkpoint file:  "/scratch/puck/g09_2bfa5f50-97b6-4f17-a76d-bd2a17b07819/Gau-90639.chk"
 -----
 titel
 -----
 Charge =  0 Multiplicity = 1

                         Standard orientation:
 ---------------------------------------------------------------------
 Center     Atomic      Atomic             Coordinates (Angstroms)
 Number     Number       Type             X           Y           Z
 ---------------------------------------------------------------------
      1          6           0        2.704759    0.637076   -0.005154
      2          6           0        1.297048    0.275051   -0.438052
      3          8           0        1.080946   -1.157086   -0.490527
      4          6           0        0.140462   -1.109406    0.609403
      5          6           0       -1.274961   -1.532842    0.197496
      6          6           0       -1.845832   -0.327066   -0.567902
      7          6           0       -1.149117    0.893395    0.048397
      8          8           0       -1.573597    2.019827    0.071336
      9          6           0        0.182319    0.433855    0.635870
     10          1           0        2.937555    0.206275    0.973393
     11          1           0        3.428840    0.254260   -0.731029
     12          1           0        2.817748    1.724857    0.054651
     13          1           0        1.069551    0.737661   -1.407572
     14          1           0        0.518581   -1.654441    1.480319
     15          1           0       -1.253417   -2.455279   -0.388256
     16          1           0       -1.864590   -1.724374    1.102130
     17          1           0       -1.563949   -0.367717   -1.627783
     18          1           0       -2.930889   -0.220321   -0.523074
     19          1           0        0.453707    0.976771    1.540401
 ---------------------------------------------------------------------

 SCF Done:  E(RB3LYP) =  -423.209514303     A.U. after    1 cycles

 The electronic state is 1-A.
 Alpha  occ. eigenvalues --  -19.13799 -19.13267 -10.26981 -10.24834 -10.24243
 Alpha  occ. eigenvalues --  -10.19708 -10.19384 -10.19299 -10.18409  -1.04894
 Alpha  occ. eigenvalues --   -1.03981  -0.82426  -0.77142  -0.72034  -0.68948
 Alpha  occ. eigenvalues --   -0.61251  -0.56370  -0.53617  -0.50404  -0.49433
 Alpha  occ. eigenvalues --   -0.46390  -0.44500  -0.42653  -0.41438  -0.40884
 Alpha  occ. eigenvalues --   -0.39695  -0.38772  -0.37796  -0.36208  -0.34556
 Alpha  occ. eigenvalues --   -0.31929  -0.31175  -0.25874  -0.24013
 Alpha virt. eigenvalues --   -0.02254   0.08189   0.09297   0.10302   0.10878
 Alpha virt. eigenvalues --    0.13908   0.14541   0.15075   0.15333   0.15821
 Alpha virt. eigenvalues --    0.17129   0.18390   0.19607   0.20376   0.22033

 Mulliken charges:
               1
     1  C   -0.405468
     2  C    0.146743
     3  O   -0.313427
     4  C    0.122511
     5  C   -0.238651
     6  C   -0.325591
     7  C    0.399989
     8  O   -0.320593
     9  C   -0.200586
    10  H    0.121736
    11  H    0.130543
    12  H    0.124666
    13  H    0.087523
    14  H    0.079085
    15  H    0.119113
    16  H    0.107522
    17  H    0.140767
    18  H    0.127793
    19  H    0.096323
 Sum of Mulliken charges =   0.00000

 Dipole moment (field-independent basis, Debye):
    X=              0.6180    Y=             -1.4050    Z=              0.6975  Tot=              1.6860
 Quadrupole moment (field-independent basis, Debye-Ang):
   XX=            -53.1197   YY=            -59.9437   ZZ=            -50.9276
   XY=              7.7724   XZ=              0.8794   YZ=             -1.9418

  Exact polarizability:  84.887   2.677  76.588   0.820  -1.347  63.765
 Approx polarizability: 109.164  -3.600 117.750  -1.526   0.406  99.404

                      1                      2                      3
                      A                      A                      A
 Frequencies --     81.9307               124.6282               180.5773
 Red. masses --      3.8944                 3.3756                 2.5158
 Frc consts  --      0.0154                 0.0309                 0.0483
 IR Inten    --      4.7292                 4.0725                 1.4916

                      4                      5                      6
                      A                      A                      A
 Frequencies --    239.4814               255.3373               341.6045
 Red. masses --      1.5036                 1.5130                 2.6735
 Frc consts  --      0.0508                 0.0581                 0.1838
 IR Inten    --      0.4957                 0.0834                 1.1357

                      7                      8                      9
                      A                      A                      A
 Frequencies --    437.4241               445.2632               526.6288
 Red. masses --      3.5633                 4.3788                 2.4253
 Frc consts  --      0.4017                 0.5115                 0.3963
 IR Inten    --      2.0969                12.4689                 1.3805

                     10                     11                     12
                      A                      A                      A
 Frequencies --    607.5639               677.1375               760.6886
 Red. masses --      3.3657                 4.3870                 2.2865
 Frc consts  --      0.7320                 1.1851                 0.7795
 IR Inten    --      0.4225                 1.8751                 1.6267

                     13                     14                     15
                      A                      A                      A
 Frequencies --    802.7548               825.9911               859.1080
 Red. masses --      3.1371                 3.0621                 1.9221
 Frc consts  --      1.1911                 1.2309                 0.8359
 IR Inten    --      1.5972                 6.3724                 8.4514

                     16                     17                     18
                      A                      A                      A
 Frequencies --    891.0966               916.1140               943.2072
 Red. masses --      2.1907                 2.3795                 2.7355
 Frc consts  --      1.0249                 1.1766                 1.4338
 IR Inten    --     16.4540                 7.1801                 2.1768

                     19                     20                     21
                      A                      A                      A
 Frequencies --    976.5183              1017.4082              1038.2241
 Red. masses --      2.5635                 1.5962                 2.0210
 Frc consts  --      1.4403                 0.9735                 1.2835
 IR Inten    --     36.8138                11.0009                50.5158

                     22                     23                     24
                      A                      A                      A
 Frequencies --   1073.3301              1096.3142              1114.0404
 Red. masses --      2.3242                 1.7126                 2.0589
 Frc consts  --      1.5776                 1.2127                 1.5055
 IR Inten    --     20.2242                 8.1324                11.9104

                     25                     26                     27
                      A                      A                      A
 Frequencies --   1156.2915              1166.2996              1195.8210
 Red. masses --      1.5570                 3.3293                 1.8170
 Frc consts  --      1.2265                 2.6682                 1.5309
 IR Inten    --     16.2500                62.8909                12.5683

                     28                     29                     30
                      A                      A                      A
 Frequencies --   1211.1912              1241.4467              1277.9561
 Red. masses --      1.5433                 1.5865                 1.3170
 Frc consts  --      1.3339                 1.4406                 1.2673
 IR Inten    --     15.0220                 1.8260                 2.8709

                     31                     32                     33
                      A                      A                      A
 Frequencies --   1291.2147              1323.4460              1341.8015
 Red. masses --      1.3672                 1.6227                 1.6095
 Frc consts  --      1.3430                 1.6746                 1.7074
 IR Inten    --      5.9231                 3.8436                 6.5624

                     34                     35                     36
                      A                      A                      A
 Frequencies --   1357.4837              1394.8331              1406.7435
 Red. masses --      1.3406                 1.3040                 1.3344
 Frc consts  --      1.4555                 1.4948                 1.5559
 IR Inten    --     28.0049                 4.2963                13.8953

                     37                     38                     39
                      A                      A                      A
 Frequencies --   1453.0717              1477.9728              1484.6465
 Red. masses --      1.0797                 1.0990                 1.0526
 Frc consts  --      1.3431                 1.4144                 1.3669
 IR Inten    --      8.7195                 5.8064                 3.7416

                     40                     41                     42
                      A                      A                      A
 Frequencies --   1491.4239              1842.7509              3014.3121
 Red. masses --      1.0491                12.3984                 1.0851
 Frc consts  --      1.3749                24.8055                 5.8091
 IR Inten    --      2.7576               212.5938                37.8703

                     43                     44                     45
                      A                      A                      A
 Frequencies --   3034.9893              3036.8027              3041.9446
 Red. masses --      1.0361                 1.0686                 1.0664
 Frc consts  --      5.6230                 5.8065                 5.8139
 IR Inten    --     10.3331                11.6923                 7.7449

                     46                     47                     48
                      A                      A                      A
 Frequencies --   3055.8787              3103.3517              3109.8014
 Red. masses --      1.0835                 1.0982                 1.1012
 Frc consts  --      5.9616                 6.2318                 6.2746
 IR Inten    --     61.9421                12.9228                15.6977

                     49                     50                     51
                      A                      A                      A
 Frequencies --   3115.1706              3122.5315              3125.2692
 Red. masses --      1.1025                 1.0954                 1.0892
 Frc consts  --      6.3036                 6.2929                 6.2679
 IR Inten    --     21.9321                10.5062                13.0637

 - Thermochemistry -
 -------------------
 Temperature   298.150 Kelvin.  Pressure   1.00000 Atm.
 Atom     1 has atomic number  6 and mass  12.00000

 Molecular mass:   126.06808 amu.
 Principal axes and moments of inertia in atomic units:
                           1         2         3
     Eigenvalues --   699.343481154.495981623.44164
           X            0.99376   0.11102   0.01073
           Y           -0.11086   0.99373  -0.01464
           Z           -0.01229   0.01336   0.99984
 This molecule is an asymmetric top.
 Rotational symmetry number  1.
 Warning -- assumption of classical behavior for rotation
           may cause significant error
 Rotational temperatures (Kelvin)      0.12385     0.07502     0.05335
 Rotational constants (GHZ):           2.58062     1.56323     1.11168
 Zero-point vibrational energy     419331.9 (Joules/Mol)
                                  100.22273 (Kcal/Mol)
 Warning -- explicit consideration of  10 degrees of freedom as
           vibrations may cause significant error
 Vibrational temperatures:    117.88   179.31   259.81   344.56   367.37
          (Kelvin)            491.49   629.35   640.63   757.70   874.15
                              974.25  1094.46  1154.98  1188.42  1236.06
                             1282.09  1318.08  1357.06  1404.99  1463.82
                             1493.77  1544.28  1577.35  1602.85  1663.64
                             1678.04  1720.52  1742.63  1786.16  1838.69
                             1857.77  1904.14  1930.55  1953.11  2006.85
                             2023.99  2090.64  2126.47  2136.07  2145.82
                             2651.30  4336.92  4366.67  4369.28  4376.67
                             4396.72  4465.03  4474.30  4482.03  4492.62
                             4496.56

 Zero-point correction=                           0.159715 (Hartree/Particle)
 Thermal correction to Energy=                    0.167789
 Thermal correction to Enthalpy=                  0.168733
 Thermal correction to Gibbs Free Energy=         0.126890
 Sum of electronic and zero-point Energies=           -423.049799
 Sum of electronic and thermal Energies=              -423.041725
 Sum of electronic and thermal Enthalpies=            -423.040781
 Sum of electronic and thermal Free Energies=         -423.082624

                     E (Thermal)             CV                S
                      KCal/Mol        Cal/Mol-Kelvin    Cal/Mol-Kelvin
 Total                  105.289             30.911             88.065
 Electronic               0.000              0.000              0.000
 Translational            0.889              2.981             40.409
 Rotational               0.889              2.981             28.662
 Vibrational            103.512             24.949             18.994
 Vibration     1          0.600              1.962              3.844
 Vibration     2          0.610              1.928              3.027
 Vibration     3          0.630              1.866              2.322
 Vibration     4          0.657              1.780              1.807
 Vibration     5          0.666              1.754              1.693
 Vibration     6          0.721              1.592              1.205
 Vibration     7          0.798              1.389              0.835
 Vibration     8          0.805              1.371              0.810
 Vibration     9          0.882              1.191              0.595
 Vibration    10          0.966              1.016              0.437

 Optimization completed.
    -- Stationary point found.
 Normal termination of Gaussian 09 at Tue Jan 28 04:34:12 2020.
