 Gaussian 09, Revision D.01,
 Gaussian 09:  ES64L-G09RevD.01 24-Apr-2013

 -----------------------------
 # b3lyp 6-31G(2df,p) opt Freq
 -----------------------------

 -----
 titel
 -----
 Symbolic Z-matrix:
 Charge =  0 Multiplicity = 1

 SCF Done:  E(RB3LYP) =  -423.159180023     A.U. after   14 cycles
 Optimization completed.
    -- Stationary point found.
 Normal termination of Gaussian 09 at Tue Jan 28 13:44:08 2020.

 ----------------------------------------------------------------------
 #N Geom=AllCheck Guess=TCheck SCRF=Check GenChk RB3LYP/6-31G(2df,p) Fr
 eq
 ----------------------------------------------------------------------

 Structure from the checkpoint file:  "/scratch/puck/g09_359b7974-bc78-4613-8095-39ece86d5047/Gau-145949.chk"
 -----
 titel
 -----
 Charge =  0 Multiplicity = 1

                         Standard orientation:
 ---------------------------------------------------------------------
 Center     Atomic      Atomic             Coordinates (Angstroms)
 Number     Number       Type             X           Y           Z
 ---------------------------------------------------------------------
      1          6           0       -2.980583    0.628338   -0.005529
      2          6           0       -1.594784    0.628801    0.648398
      3          6           0       -0.507789    0.202224   -0.316738
      4          8           0       -0.681502   -1.158809   -0.847346
      5          6           0        0.647743   -1.497152   -0.506090
      6          6           0        0.897498   -1.448613    0.949594
      7          6           0        0.901207   -0.132112    0.175671
      8          6           0        2.061093    0.752700    0.075814
      9          8           0        2.003233    1.908616   -0.278018
     10          1           0       -3.018378    1.321117   -0.853071
     11          1           0       -3.229707   -0.369798   -0.376635
     12          1           0       -3.751701    0.930367    0.708776
     13          1           0       -1.339252    1.634265    1.005931
     14          1           0       -1.593999   -0.030577    1.523503
     15          1           0       -0.447906    0.895927   -1.163021
     16          1           0        1.246726   -2.034028   -1.233215
     17          1           0        0.095386   -1.660810    1.649201
     18          1           0        1.886189   -1.769152    1.266575
     19          1           0        3.032479    0.279118    0.348153
 ---------------------------------------------------------------------

 SCF Done:  E(RB3LYP) =  -423.159180023     A.U. after    1 cycles

 The electronic state is 1-A.
 Alpha  occ. eigenvalues --  -19.15253 -19.13419 -10.27191 -10.26589 -10.24685
 Alpha  occ. eigenvalues --  -10.21503 -10.21353 -10.18845 -10.17683  -1.06792
 Alpha  occ. eigenvalues --   -1.04058  -0.85637  -0.78874  -0.70762  -0.66014
 Alpha  occ. eigenvalues --   -0.61529  -0.60535  -0.55254  -0.51696  -0.49304
 Alpha  occ. eigenvalues --   -0.46213  -0.45495  -0.43641  -0.41203  -0.40303
 Alpha  occ. eigenvalues --   -0.39899  -0.38957  -0.37862  -0.35532  -0.34361
 Alpha  occ. eigenvalues --   -0.33006  -0.28136  -0.25901  -0.24828
 Alpha virt. eigenvalues --   -0.02654   0.07082   0.08938   0.09864   0.10914
 Alpha virt. eigenvalues --    0.12109   0.14311   0.14665   0.15426   0.16044
 Alpha virt. eigenvalues --    0.17375   0.17945   0.18809   0.21019   0.21854

 Mulliken charges:
               1
     1  C   -0.382493
     2  C   -0.207268
     3  C    0.090626
     4  O   -0.298167
     5  C    0.077877
     6  C   -0.360407
     7  C    0.155725
     8  C    0.059016
     9  O   -0.276008
    10  H    0.119649
    11  H    0.136902
    12  H    0.114850
    13  H    0.117187
    14  H    0.097248
    15  H    0.105727
    16  H    0.121986
    17  H    0.131463
    18  H    0.129233
    19  H    0.066856
 Sum of Mulliken charges =   0.00000

 Dipole moment (field-independent basis, Debye):
    X=              0.0918    Y=             -2.0366    Z=              1.2520  Tot=              2.3924
 Quadrupole moment (field-independent basis, Debye-Ang):
   XX=            -52.7883   YY=            -58.1310   ZZ=            -52.6256
   XY=             -8.5783   XZ=             -0.3160   YZ=             -0.1505

  Exact polarizability:  87.476  -1.510  81.957   1.625  -3.447  63.602
 Approx polarizability: 111.755   5.133 137.089   4.381  -5.021  99.422

                      1                      2                      3
                      A                      A                      A
 Frequencies --     80.9980               104.9414               160.4657
 Red. masses --      3.2907                 3.2230                 3.3036
 Frc consts  --      0.0127                 0.0209                 0.0501
 IR Inten    --      1.4641                 4.7184                 5.4673

                      4                      5                      6
                      A                      A                      A
 Frequencies --    170.3232               209.6310               248.4914
 Red. masses --      2.9193                 1.7973                 1.6245
 Frc consts  --      0.0499                 0.0465                 0.0591
 IR Inten    --      2.8198                 3.4230                 0.4794

                      7                      8                      9
                      A                      A                      A
 Frequencies --    295.8241               404.0983               461.1893
 Red. masses --      2.4565                 2.5847                 2.8920
 Frc consts  --      0.1267                 0.2487                 0.3624
 IR Inten    --      0.2264                 1.5823                 1.4486

                     10                     11                     12
                      A                      A                      A
 Frequencies --    492.4987               524.6887               696.3026
 Red. masses --      3.2053                 3.8354                 3.5641
 Frc consts  --      0.4581                 0.6221                 1.0181
 IR Inten    --     10.0050                12.0110                20.9435

                     13                     14                     15
                      A                      A                      A
 Frequencies --    745.9055               779.2622               798.1443
 Red. masses --      3.2304                 1.9925                 2.2518
 Frc consts  --      1.0589                 0.7129                 0.8451
 IR Inten    --     26.3246                 0.8485                 6.4709

                     16                     17                     18
                      A                      A                      A
 Frequencies --    891.6101               904.6515               943.5068
 Red. masses --      1.9177                 2.1757                 1.6904
 Frc consts  --      0.8982                 1.0491                 0.8866
 IR Inten    --     24.8388                43.7820                30.9514

                     19                     20                     21
                      A                      A                      A
 Frequencies --    972.0951               990.2970              1032.6480
 Red. masses --      1.6833                 1.6906                 2.0760
 Frc consts  --      0.9372                 0.9768                 1.3043
 IR Inten    --     29.1385                 3.5099                 5.1464

                     22                     23                     24
                      A                      A                      A
 Frequencies --   1041.6510              1060.2925              1101.2572
 Red. masses --      1.7001                 1.6068                 1.8442
 Frc consts  --      1.0869                 1.0643                 1.3177
 IR Inten    --     12.9267                25.2042                28.0392

                     25                     26                     27
                      A                      A                      A
 Frequencies --   1104.0218              1127.4823              1160.0200
 Red. masses --      1.9417                 2.6370                 2.2158
 Frc consts  --      1.3944                 1.9750                 1.7568
 IR Inten    --     12.8949                17.7152                 4.1155

                     28                     29                     30
                      A                      A                      A
 Frequencies --   1236.3080              1241.0640              1286.1868
 Red. masses --      1.8788                 1.5007                 1.2577
 Frc consts  --      1.6920                 1.3619                 1.2258
 IR Inten    --     11.5829                 8.6446                 2.1400

                     31                     32                     33
                      A                      A                      A
 Frequencies --   1321.8291              1346.7723              1379.9673
 Red. masses --      1.7213                 1.7674                 1.5605
 Frc consts  --      1.7720                 1.8888                 1.7509
 IR Inten    --      6.9496                10.8111                19.3419

                     34                     35                     36
                      A                      A                      A
 Frequencies --   1410.2921              1422.9838              1438.2083
 Red. masses --      1.2623                 1.5353                 1.4074
 Frc consts  --      1.4792                 1.8316                 1.7152
 IR Inten    --      0.7528                 8.4870                18.5304

                     37                     38                     39
                      A                      A                      A
 Frequencies --   1472.1884              1478.6948              1499.2636
 Red. masses --      1.3884                 1.1176                 1.0457
 Frc consts  --      1.7729                 1.4397                 1.3849
 IR Inten    --     20.2338                 6.8398                 4.7872

                     40                     41                     42
                      A                      A                      A
 Frequencies --   1509.3293              1792.5827              2863.1263
 Red. masses --      1.0654                10.3149                 1.0819
 Frc consts  --      1.4300                19.5287                 5.2254
 IR Inten    --      6.1249               236.0220               122.5706

                     43                     44                     45
                      A                      A                      A
 Frequencies --   3033.0322              3039.5379              3048.4566
 Red. masses --      1.0597                 1.0363                 1.0861
 Frc consts  --      5.7439                 5.6407                 5.9470
 IR Inten    --     13.5192                22.9447                12.1070

                     46                     47                     48
                      A                      A                      A
 Frequencies --   3074.3015              3108.4542              3120.4007
 Red. masses --      1.0996                 1.1011                 1.0564
 Frc consts  --      6.1233                 6.2683                 6.0602
 IR Inten    --     18.6392                34.0011                 7.9846

                     49                     50                     51
                      A                      A                      A
 Frequencies --   3120.7820              3181.5413              3211.2405
 Red. masses --      1.0989                 1.0943                 1.1163
 Frc consts  --      6.3059                 6.5262                 6.7820
 IR Inten    --     23.1969                14.9375                 6.1082

 - Thermochemistry -
 -------------------
 Temperature   298.150 Kelvin.  Pressure   1.00000 Atm.
 Atom     1 has atomic number  6 and mass  12.00000

 Molecular mass:   126.06808 amu.
 Principal axes and moments of inertia in atomic units:
                           1         2         3
     Eigenvalues --   748.211391378.979081803.52045
           X            0.99691  -0.07856   0.00010
           Y            0.07855   0.99675  -0.01790
           Z            0.00130   0.01785   0.99984
 This molecule is an asymmetric top.
 Rotational symmetry number  1.
 Warning -- assumption of classical behavior for rotation
           may cause significant error
 Rotational temperatures (Kelvin)      0.11576     0.06281     0.04802
 Rotational constants (GHZ):           2.41207     1.30875     1.00068
 Zero-point vibrational energy     413542.1 (Joules/Mol)
                                   98.83893 (Kcal/Mol)
 Warning -- explicit consideration of  11 degrees of freedom as
           vibrations may cause significant error
 Vibrational temperatures:    116.54   150.99   230.87   245.06   301.61
          (Kelvin)            357.52   425.62   581.41   663.55   708.59
                              754.91  1001.82  1073.19  1121.18  1148.35
                             1282.83  1301.59  1357.49  1398.63  1424.81
                             1485.75  1498.70  1525.52  1584.46  1588.44
                             1622.19  1669.01  1778.77  1785.61  1850.53
                             1901.81  1937.70  1985.46  2029.09  2047.35
                             2069.26  2118.15  2127.51  2157.10  2171.59
                             2579.12  4119.39  4363.85  4373.21  4386.04
                             4423.23  4472.37  4489.55  4490.10  4577.52
                             4620.25

 Zero-point correction=                           0.157510 (Hartree/Particle)
 Thermal correction to Energy=                    0.166431
 Thermal correction to Enthalpy=                  0.167375
 Thermal correction to Gibbs Free Energy=         0.123583
 Sum of electronic and zero-point Energies=           -423.001670
 Sum of electronic and thermal Energies=              -422.992749
 Sum of electronic and thermal Enthalpies=            -422.991805
 Sum of electronic and thermal Free Energies=         -423.035597

                     E (Thermal)             CV                S
                      KCal/Mol        Cal/Mol-Kelvin    Cal/Mol-Kelvin
 Total                  104.437             32.899             92.169
 Electronic               0.000              0.000              0.000
 Translational            0.889              2.981             40.409
 Rotational               0.889              2.981             29.011
 Vibrational            102.659             26.938             22.749
 Vibration     1          0.600              1.962              3.867
 Vibration     2          0.605              1.945              3.360
 Vibration     3          0.622              1.891              2.544
 Vibration     4          0.625              1.879              2.432
 Vibration     5          0.642              1.826              2.047
 Vibration     6          0.662              1.765              1.741
 Vibration     7          0.690              1.682              1.440
 Vibration     8          0.769              1.461              0.948
 Vibration     9          0.819              1.336              0.763
 Vibration    10          0.848              1.267              0.677
 Vibration    11          0.880              1.195              0.599

 Normal termination of Gaussian 09 at Tue Jan 28 14:24:42 2020.
