 Gaussian 09, Revision D.01,
 Gaussian 09:  ES64L-G09RevD.01 24-Apr-2013

 -----------------------------
 # b3lyp 6-31G(2df,p) opt Freq
 -----------------------------

 -----
 titel
 -----
 Symbolic Z-matrix:
 Charge =  0 Multiplicity = 1

 SCF Done:  E(RB3LYP) =  -423.190550464     A.U. after   13 cycles
 Optimization completed.
    -- Stationary point found.
 Normal termination of Gaussian 09 at Mon Jan 27 18:15:27 2020.

 ----------------------------------------------------------------------
 #N Geom=AllCheck Guess=TCheck SCRF=Check GenChk RB3LYP/6-31G(2df,p) Fr
 eq
 ----------------------------------------------------------------------

 Structure from the checkpoint file:  "/scratch/puck/g09_0196a554-7145-477b-a952-9192d7cb76a2/Gau-181916.chk"
 -----
 titel
 -----
 Charge =  0 Multiplicity = 1

                         Standard orientation:
 ---------------------------------------------------------------------
 Center     Atomic      Atomic             Coordinates (Angstroms)
 Number     Number       Type             X           Y           Z
 ---------------------------------------------------------------------
      1          8           0        2.436495    0.241442   -0.359827
      2          6           0        1.079353    0.016964   -0.148382
      3          6           0        0.286045   -0.864745   -1.100410
      4          6           0       -1.076999   -0.930885   -0.382800
      5          6           0       -0.707788   -1.104062    1.108431
      6          6           0        0.464126   -0.143873    1.238187
      7          6           0        0.282782    1.139466    0.441325
      8          6           0       -1.088585    1.454546   -0.127956
      9          8           0       -1.787373    0.289430   -0.573682
     10          1           0        2.894971   -0.602693   -0.276487
     11          1           0        0.189846   -0.452482   -2.108962
     12          1           0        0.743965   -1.860573   -1.174596
     13          1           0       -1.735887   -1.712094   -0.765694
     14          1           0       -1.562970   -0.864166    1.748089
     15          1           0       -0.400624   -2.135021    1.322511
     16          1           0        1.086461   -0.124166    2.125239
     17          1           0        0.858748    1.997469    0.772400
     18          1           0       -1.704065    1.956229    0.632718
     19          1           0       -0.997024    2.146057   -0.977523
 ---------------------------------------------------------------------

 SCF Done:  E(RB3LYP) =  -423.190550464     A.U. after    1 cycles

 The electronic state is 1-A.
 Alpha  occ. eigenvalues --  -19.14511 -19.13029 -10.23523 -10.23145 -10.22552
 Alpha  occ. eigenvalues --  -10.18823 -10.18543 -10.18175 -10.18029  -1.03406
 Alpha  occ. eigenvalues --   -1.02330  -0.87060  -0.77577  -0.71161  -0.67397
 Alpha  occ. eigenvalues --   -0.61803  -0.56951  -0.53558  -0.51655  -0.47634
 Alpha  occ. eigenvalues --   -0.46584  -0.45350  -0.43731  -0.40278  -0.39665
 Alpha  occ. eigenvalues --   -0.39282  -0.38436  -0.36490  -0.35515  -0.31753
 Alpha  occ. eigenvalues --   -0.29436  -0.27720  -0.24235  -0.23443
 Alpha virt. eigenvalues --    0.07631   0.08654   0.11479   0.13495   0.13908
 Alpha virt. eigenvalues --    0.14036   0.15245   0.15997   0.16757   0.17005
 Alpha virt. eigenvalues --    0.18342   0.18468   0.20154   0.20723   0.22270

 Mulliken charges:
               1
     1  O   -0.480887
     2  C    0.407085
     3  C   -0.300145
     4  C    0.093331
     5  C   -0.235115
     6  C   -0.142380
     7  C   -0.102250
     8  C   -0.094976
     9  O   -0.278683
    10  H    0.277851
    11  H    0.109537
    12  H    0.085025
    13  H    0.079493
    14  H    0.104949
    15  H    0.093565
    16  H    0.082771
    17  H    0.097048
    18  H    0.100359
    19  H    0.103423
 Sum of Mulliken charges =   0.00000

 Dipole moment (field-independent basis, Debye):
    X=              0.9208    Y=             -1.3686    Z=              0.8490  Tot=              1.8551
 Quadrupole moment (field-independent basis, Debye-Ang):
   XX=            -56.3923   YY=            -49.1614   ZZ=            -53.1559
   XY=             -3.3889   XZ=             -0.2318   YZ=              1.1053

  Exact polarizability:  74.655  -2.171  77.235  -1.269   0.267  68.980
 Approx polarizability: 107.381  -3.502 112.960  -2.152  -0.755 102.885

                      1                      2                      3
                      A                      A                      A
 Frequencies --    142.0235               237.6521               304.3585
 Red. masses --      2.5382                 2.3093                 1.3853
 Frc consts  --      0.0302                 0.0768                 0.0756
 IR Inten    --      3.2300                14.7825                51.4203

                      4                      5                      6
                      A                      A                      A
 Frequencies --    356.0214               362.9624               420.8242
 Red. masses --      2.6280                 2.5112                 3.2466
 Frc consts  --      0.1963                 0.1949                 0.3388
 IR Inten    --     12.3196                29.6476                 0.9074

                      7                      8                      9
                      A                      A                      A
 Frequencies --    470.0599               488.6764               585.4200
 Red. masses --      5.0001                 2.0581                 4.4841
 Frc consts  --      0.6509                 0.2896                 0.9055
 IR Inten    --      1.3543                 3.2343                 9.8365

                     10                     11                     12
                      A                      A                      A
 Frequencies --    647.4118               695.6150               785.3375
 Red. masses --      4.3868                 3.6063                 3.8255
 Frc consts  --      1.0833                 1.0281                 1.3901
 IR Inten    --      1.2427                 3.0584                 1.2653

                     13                     14                     15
                      A                      A                      A
 Frequencies --    820.8741               856.9872               877.4140
 Red. masses --      3.8439                 1.8111                 2.2800
 Frc consts  --      1.5261                 0.7837                 1.0342
 IR Inten    --      3.1773                10.1247                 6.4606

                     16                     17                     18
                      A                      A                      A
 Frequencies --    906.6073               921.9155               935.5481
 Red. masses --      2.4526                 2.1296                 2.1014
 Frc consts  --      1.1877                 1.0664                 1.0837
 IR Inten    --      8.6668                 9.3775                 5.4155

                     19                     20                     21
                      A                      A                      A
 Frequencies --    994.0429              1015.4326              1047.8205
 Red. masses --      1.4939                 1.5809                 1.6892
 Frc consts  --      0.8697                 0.9604                 1.0927
 IR Inten    --     19.2924                11.2076                 6.8464

                     22                     23                     24
                      A                      A                      A
 Frequencies --   1063.3572              1095.3627              1100.3280
 Red. masses --      1.7457                 2.0736                 2.0135
 Frc consts  --      1.1630                 1.4659                 1.4363
 IR Inten    --     16.0624                 7.3286                12.8356

                     25                     26                     27
                      A                      A                      A
 Frequencies --   1116.2791              1156.6344              1183.4265
 Red. masses --      2.4011                 1.2542                 2.1193
 Frc consts  --      1.7628                 0.9885                 1.7487
 IR Inten    --     31.0695                11.3057                27.1435

                     28                     29                     30
                      A                      A                      A
 Frequencies --   1216.2055              1240.6600              1252.8405
 Red. masses --      1.5098                 1.6224                 1.1723
 Frc consts  --      1.3158                 1.4714                 1.0842
 IR Inten    --     33.4329                20.9416                 3.7096

                     31                     32                     33
                      A                      A                      A
 Frequencies --   1267.4622              1300.4628              1323.0916
 Red. masses --      2.0492                 2.2344                 1.5132
 Frc consts  --      1.9396                 2.2264                 1.5607
 IR Inten    --     59.6587                 9.1138                 2.5858

                     34                     35                     36
                      A                      A                      A
 Frequencies --   1342.7823              1351.2609              1365.6205
 Red. masses --      1.5274                 1.6885                 1.3565
 Frc consts  --      1.6226                 1.8164                 1.4905
 IR Inten    --     19.4890                48.5043                12.1869

                     37                     38                     39
                      A                      A                      A
 Frequencies --   1410.8359              1464.6550              1483.1247
 Red. masses --      1.4835                 1.8263                 1.1862
 Frc consts  --      1.7397                 2.3083                 1.5373
 IR Inten    --     20.0620                10.1613                 1.5516

                     40                     41                     42
                      A                      A                      A
 Frequencies --   1502.8124              1528.5726              2991.2445
 Red. masses --      1.2987                 1.0925                 1.0568
 Frc consts  --      1.7281                 1.5039                 5.5712
 IR Inten    --      2.9696                 0.5873                94.0359

                     43                     44                     45
                      A                      A                      A
 Frequencies --   3015.0849              3017.2629              3031.4910
 Red. masses --      1.1042                 1.0688                 1.0618
 Frc consts  --      5.9145                 5.7329                 5.7494
 IR Inten    --     26.5055                46.8395                39.9118

                     46                     47                     48
                      A                      A                      A
 Frequencies --   3080.4364              3089.8469              3099.6844
 Red. masses --      1.1022                 1.0971                 1.0890
 Frc consts  --      6.1621                 6.1712                 6.1646
 IR Inten    --     26.3794                22.0380                44.7444

                     49                     50                     51
                      A                      A                      A
 Frequencies --   3167.5712              3180.6864              3784.0499
 Red. masses --      1.0887                 1.0917                 1.0658
 Frc consts  --      6.4357                 6.5071                 8.9919
 IR Inten    --      5.5789                15.1617                11.7799

 - Thermochemistry -
 -------------------
 Temperature   298.150 Kelvin.  Pressure   1.00000 Atm.
 Atom     1 has atomic number  8 and mass  15.99491

 Molecular mass:   126.06808 amu.
 Principal axes and moments of inertia in atomic units:
                           1         2         3
     Eigenvalues --   642.011031059.657251148.69201
           X            0.99984  -0.01602  -0.00838
           Y            0.01625   0.99948   0.02783
           Z            0.00793  -0.02796   0.99958
 This molecule is an asymmetric top.
 Rotational symmetry number  1.
 Warning -- assumption of classical behavior for rotation
           may cause significant error
 Rotational temperatures (Kelvin)      0.13491     0.08174     0.07540
 Rotational constants (GHZ):           2.81108     1.70314     1.57113
 Zero-point vibrational energy     425249.3 (Joules/Mol)
                                  101.63703 (Kcal/Mol)
 Warning -- explicit consideration of   9 degrees of freedom as
           vibrations may cause significant error
 Vibrational temperatures:    204.34   341.93   437.90   512.23   522.22
          (Kelvin)            605.47   676.31   703.10   842.29   931.48
                             1000.83  1129.92  1181.05  1233.01  1262.40
                             1304.40  1326.43  1346.04  1430.20  1460.98
                             1507.58  1529.93  1575.98  1583.12  1606.07
                             1664.14  1702.68  1749.85  1785.03  1802.56
                             1823.59  1871.07  1903.63  1931.96  1944.16
                             1964.82  2029.88  2107.31  2133.88  2162.21
                             2199.27  4303.73  4338.03  4341.16  4361.63
                             4432.06  4445.60  4459.75  4557.42  4576.29
                             5444.40

 Zero-point correction=                           0.161969 (Hartree/Particle)
 Thermal correction to Energy=                    0.169070
 Thermal correction to Enthalpy=                  0.170014
 Thermal correction to Gibbs Free Energy=         0.130902
 Sum of electronic and zero-point Energies=           -423.028582
 Sum of electronic and thermal Energies=              -423.021481
 Sum of electronic and thermal Enthalpies=            -423.020537
 Sum of electronic and thermal Free Energies=         -423.059648

                     E (Thermal)             CV                S
                      KCal/Mol        Cal/Mol-Kelvin    Cal/Mol-Kelvin
 Total                  106.093             29.528             82.317
 Electronic               0.000              0.000              0.000
 Translational            0.889              2.981             40.409
 Rotational               0.889              2.981             28.149
 Vibrational            104.315             23.566             13.760
 Vibration     1          0.615              1.911              2.776
 Vibration     2          0.656              1.783              1.820
 Vibration     3          0.695              1.665              1.393
 Vibration     4          0.732              1.563              1.139
 Vibration     5          0.737              1.549              1.109
 Vibration     6          0.783              1.425              0.889
 Vibration     7          0.827              1.316              0.737
 Vibration     8          0.845              1.275              0.687
 Vibration     9          0.942              1.063              0.475

 Optimization completed.
    -- Stationary point found.
 Normal termination of Gaussian 09 at Mon Jan 27 19:03:11 2020.
