 Gaussian 09, Revision D.01,
 Gaussian 09:  ES64L-G09RevD.01 24-Apr-2013

 -----------------------------
 # b3lyp 6-31G(2df,p) opt Freq
 -----------------------------

 -----
 titel
 -----
 Symbolic Z-matrix:
 Charge =  0 Multiplicity = 1

 SCF Done:  E(RB3LYP) =  -423.180976849     A.U. after   14 cycles
 Optimization completed.
    -- Stationary point found.
 Normal termination of Gaussian 09 at Mon Jan 27 23:10:04 2020.

 ----------------------------------------------------------------------
 #N Geom=AllCheck Guess=TCheck SCRF=Check GenChk RB3LYP/6-31G(2df,p) Fr
 eq
 ----------------------------------------------------------------------

 Structure from the checkpoint file:  "/scratch/puck/g09_33f84dc0-f14f-402b-83b4-dad8cc0b97f8/Gau-79884.chk"
 -----
 titel
 -----
 Charge =  0 Multiplicity = 1

                         Standard orientation:
 ---------------------------------------------------------------------
 Center     Atomic      Atomic             Coordinates (Angstroms)
 Number     Number       Type             X           Y           Z
 ---------------------------------------------------------------------
      1          6           0        2.454825    0.772803    0.427871
      2          6           0        0.998154    0.549350    0.125563
      3          6           0        0.169383    1.542314   -0.196954
      4          6           0       -1.288189    1.403057   -0.536408
      5          6           0       -1.842742    0.023527   -0.282784
      6          8           0       -1.759472   -0.460251    1.065832
      7          6           0       -0.950851   -1.085712    0.069055
      8          6           0        0.547987   -0.891681    0.202878
      9          8           0        1.223219   -1.607169   -0.839777
     10          1           0        2.697232    0.458790    1.451882
     11          1           0        3.081013    0.175421   -0.243007
     12          1           0        2.731139    1.824831    0.320812
     13          1           0        0.562316    2.556656   -0.230348
     14          1           0       -1.878049    2.138760    0.028170
     15          1           0       -1.446313    1.653627   -1.595768
     16          1           0       -2.789351   -0.206347   -0.772357
     17          1           0       -1.247446   -2.106002   -0.183915
     18          1           0        0.854536   -1.293618    1.184200
     19          1           0        1.193545   -2.544703   -0.623437
 ---------------------------------------------------------------------

 SCF Done:  E(RB3LYP) =  -423.180976849     A.U. after    1 cycles

 The electronic state is 1-A.
 Alpha  occ. eigenvalues --  -19.14582 -19.14092 -10.23773 -10.23547 -10.23221
 Alpha  occ. eigenvalues --  -10.19117 -10.18525 -10.18015 -10.17382  -1.06870
 Alpha  occ. eigenvalues --   -1.02045  -0.81660  -0.75579  -0.71325  -0.66770
 Alpha  occ. eigenvalues --   -0.61942  -0.59839  -0.52083  -0.51158  -0.48843
 Alpha  occ. eigenvalues --   -0.47663  -0.43590  -0.42879  -0.40391  -0.40103
 Alpha  occ. eigenvalues --   -0.39027  -0.38766  -0.36394  -0.34644  -0.32253
 Alpha  occ. eigenvalues --   -0.29525  -0.28064  -0.26081  -0.23908
 Alpha virt. eigenvalues --    0.01749   0.07879   0.09955   0.10479   0.11898
 Alpha virt. eigenvalues --    0.12551   0.14401   0.14993   0.15743   0.18238
 Alpha virt. eigenvalues --    0.18345   0.18836   0.19777   0.20957   0.23050

 Mulliken charges:
               1
     1  C   -0.480718
     2  C    0.347319
     3  C   -0.148472
     4  C   -0.298375
     5  C    0.056466
     6  O   -0.265759
     7  C    0.025752
     8  C   -0.032740
     9  O   -0.429769
    10  H    0.118460
    11  H    0.140557
    12  H    0.116287
    13  H    0.082300
    14  H    0.119721
    15  H    0.116593
    16  H    0.090098
    17  H    0.078585
    18  H    0.077819
    19  H    0.285876
 Sum of Mulliken charges =   0.00000

 Dipole moment (field-independent basis, Debye):
    X=              0.1568    Y=             -0.5218    Z=             -0.6126  Tot=              0.8198
 Quadrupole moment (field-independent basis, Debye-Ang):
   XX=            -53.5594   YY=            -45.3006   ZZ=            -56.9490
   XY=             -1.5824   XZ=              5.6137   YZ=             -0.9757

  Exact polarizability:  87.750  -7.416  85.487   7.036  -3.779  58.491
 Approx polarizability: 118.136 -19.686 126.383   7.389  -7.781  96.772

                      1                      2                      3
                      A                      A                      A
 Frequencies --     65.2788               170.6806               202.0251
 Red. masses --      3.7141                 1.1171                 3.4466
 Frc consts  --      0.0093                 0.0192                 0.0829
 IR Inten    --      1.0180                 1.1656                 3.8394

                      4                      5                      6
                      A                      A                      A
 Frequencies --    249.5143               262.4088               274.2303
 Red. masses --      1.1505                 2.7844                 2.6587
 Frc consts  --      0.0422                 0.1130                 0.1178
 IR Inten    --     96.1660                 5.1900                 4.6499

                      7                      8                      9
                      A                      A                      A
 Frequencies --    343.0503               358.3372               435.4618
 Red. masses --      2.6977                 2.7552                 6.5710
 Frc consts  --      0.1871                 0.2084                 0.7341
 IR Inten    --      4.3882                 2.9792                 0.2892

                     10                     11                     12
                      A                      A                      A
 Frequencies --    496.6633               559.3945               619.3307
 Red. masses --      4.7552                 4.3858                 4.3261
 Frc consts  --      0.6911                 0.8086                 0.9777
 IR Inten    --      0.7759                 4.3324                 3.3644

                     13                     14                     15
                      A                      A                      A
 Frequencies --    729.4686               787.2734               833.1120
 Red. masses --      4.5272                 2.5768                 2.6717
 Frc consts  --      1.4194                 0.9410                 1.0926
 IR Inten    --      0.7198                 7.2053                18.4522

                     16                     17                     18
                      A                      A                      A
 Frequencies --    850.5439               917.5991               923.2918
 Red. masses --      1.6908                 2.5467                 2.8390
 Frc consts  --      0.7207                 1.2634                 1.4259
 IR Inten    --     18.6601                 3.3961                10.7181

                     19                     20                     21
                      A                      A                      A
 Frequencies --    964.4096              1021.4431              1053.0363
 Red. masses --      2.2650                 1.6729                 3.3571
 Frc consts  --      1.2412                 1.0284                 2.1933
 IR Inten    --      5.8437                26.6646                67.5939

                     22                     23                     24
                      A                      A                      A
 Frequencies --   1060.8795              1070.5682              1081.0881
 Red. masses --      2.0432                 1.7586                 1.2981
 Frc consts  --      1.3549                 1.1875                 0.8939
 IR Inten    --      2.4302                 2.5475                 3.8842

                     25                     26                     27
                      A                      A                      A
 Frequencies --   1091.3530              1155.3929              1176.5574
 Red. masses --      2.0989                 1.5855                 2.0251
 Frc consts  --      1.4729                 1.2470                 1.6516
 IR Inten    --     15.5046                 2.8240                 6.6400

                     28                     29                     30
                      A                      A                      A
 Frequencies --   1236.0769              1240.3964              1286.3358
 Red. masses --      1.1338                 1.1384                 1.2340
 Frc consts  --      1.0206                 1.0320                 1.2030
 IR Inten    --     55.6810                13.9376                 3.5274

                     31                     32                     33
                      A                      A                      A
 Frequencies --   1328.6385              1364.1074              1376.8211
 Red. masses --      1.4564                 1.3688                 1.5488
 Frc consts  --      1.5148                 1.5007                 1.7298
 IR Inten    --      3.5619                 2.4906                 1.7108

                     34                     35                     36
                      A                      A                      A
 Frequencies --   1386.5937              1408.3805              1432.9743
 Red. masses --      1.7150                 1.3444                 1.8162
 Frc consts  --      1.9427                 1.5712                 2.1973
 IR Inten    --      4.1057                 1.5683                 2.6930

                     37                     38                     39
                      A                      A                      A
 Frequencies --   1464.4617              1474.3955              1490.4738
 Red. masses --      1.1204                 1.0551                 2.6873
 Frc consts  --      1.4157                 1.3514                 3.5174
 IR Inten    --      4.3365                 7.7505                16.0565

                     40                     41                     42
                      A                      A                      A
 Frequencies --   1497.0719              1754.5526              2948.2872
 Red. masses --      1.0724                 7.2850                 1.0814
 Frc consts  --      1.4160                13.2133                 5.5383
 IR Inten    --      5.3186                 0.0979                50.1089

                     43                     44                     45
                      A                      A                      A
 Frequencies --   3002.5500              3019.0362              3027.0423
 Red. masses --      1.0610                 1.0425                 1.0982
 Frc consts  --      5.6358                 5.5982                 5.9289
 IR Inten    --     30.8482                32.5582                17.8976

                     46                     47                     48
                      A                      A                      A
 Frequencies --   3079.1117              3082.4273              3109.2215
 Red. masses --      1.0914                 1.0862                 1.0902
 Frc consts  --      6.0968                 6.0806                 6.2097
 IR Inten    --     16.7941                35.4106                50.8328

                     49                     50                     51
                      A                      A                      A
 Frequencies --   3117.7236              3144.2881              3814.8602
 Red. masses --      1.1014                 1.0887                 1.0664
 Frc consts  --      6.3078                 6.3418                 9.1437
 IR Inten    --     15.7578                24.0493                18.3514

 - Thermochemistry -
 -------------------
 Temperature   298.150 Kelvin.  Pressure   1.00000 Atm.
 Atom     1 has atomic number  6 and mass  12.00000

 Molecular mass:   126.06808 amu.
 Principal axes and moments of inertia in atomic units:
                           1         2         3
     Eigenvalues --   735.098141141.491501560.43328
           X            0.99925   0.00891   0.03770
           Y           -0.00849   0.99990  -0.01126
           Z           -0.03780   0.01093   0.99923
 This molecule is an asymmetric top.
 Rotational symmetry number  1.
 Warning -- assumption of classical behavior for rotation
           may cause significant error
 Rotational temperatures (Kelvin)      0.11783     0.07588     0.05551
 Rotational constants (GHZ):           2.45510     1.58104     1.15656
 Zero-point vibrational energy     417725.3 (Joules/Mol)
                                   99.83875 (Kcal/Mol)
 Warning -- explicit consideration of  12 degrees of freedom as
           vibrations may cause significant error
 Vibrational temperatures:     93.92   245.57   290.67   359.00   377.55
          (Kelvin)            394.56   493.57   515.57   626.53   714.59
                              804.84   891.08  1049.54  1132.71  1198.66
                             1223.74  1320.22  1328.41  1387.57  1469.63
                             1515.08  1526.37  1540.31  1555.44  1570.21
                             1662.35  1692.80  1778.44  1784.65  1850.75
                             1911.61  1962.64  1980.94  1995.00  2026.34
                             2061.73  2107.03  2121.32  2144.46  2153.95
                             2524.41  4241.92  4319.99  4343.71  4355.23
                             4430.15  4434.92  4473.47  4485.70  4523.92
                             5488.73

 Zero-point correction=                           0.159103 (Hartree/Particle)
 Thermal correction to Energy=                    0.167656
 Thermal correction to Enthalpy=                  0.168600
 Thermal correction to Gibbs Free Energy=         0.126009
 Sum of electronic and zero-point Energies=           -423.021874
 Sum of electronic and thermal Energies=              -423.013321
 Sum of electronic and thermal Enthalpies=            -423.012377
 Sum of electronic and thermal Free Energies=         -423.054968

                     E (Thermal)             CV                S
                      KCal/Mol        Cal/Mol-Kelvin    Cal/Mol-Kelvin
 Total                  105.206             32.644             89.641
 Electronic               0.000              0.000              0.000
 Translational            0.889              2.981             40.409
 Rotational               0.889              2.981             28.661
 Vibrational            103.428             26.683             20.571
 Vibration     1          0.597              1.971              4.291
 Vibration     2          0.626              1.879              2.428
 Vibration     3          0.639              1.837              2.115
 Vibration     4          0.662              1.764              1.734
 Vibration     5          0.670              1.742              1.646
 Vibration     6          0.677              1.721              1.569
 Vibration     7          0.722              1.589              1.198
 Vibration     8          0.733              1.558              1.129
 Vibration     9          0.796              1.393              0.841
 Vibration    10          0.852              1.257              0.667
 Vibration    11          0.915              1.119              0.525
 Vibration    12          0.979              0.991              0.418

 Normal termination of Gaussian 09 at Mon Jan 27 23:54:21 2020.
