 Gaussian 09, Revision D.01,
 Gaussian 09:  ES64L-G09RevD.01 24-Apr-2013

 -----------------------------
 # b3lyp 6-31G(2df,p) opt Freq
 -----------------------------

 -----
 titel
 -----
 Symbolic Z-matrix:
 Charge =  0 Multiplicity = 1

 SCF Done:  E(RB3LYP) =  -423.149799316     A.U. after   14 cycles
 Optimization completed.
    -- Stationary point found.
 Normal termination of Gaussian 09 at Tue Jan 28 02:51:58 2020.

 ----------------------------------------------------------------------
 #N Geom=AllCheck Guess=TCheck SCRF=Check GenChk RB3LYP/6-31G(2df,p) Fr
 eq
 ----------------------------------------------------------------------

 Structure from the checkpoint file:  "/scratch/puck/g09_3bd06fb2-d90f-478e-8ed0-cbb4861abc85/Gau-112815.chk"
 -----
 titel
 -----
 Charge =  0 Multiplicity = 1

                         Standard orientation:
 ---------------------------------------------------------------------
 Center     Atomic      Atomic             Coordinates (Angstroms)
 Number     Number       Type             X           Y           Z
 ---------------------------------------------------------------------
      1          8           0       -2.766792   -0.085020   -0.543838
      2          6           0       -1.599067   -0.002242    0.255984
      3          6           0       -0.712831   -1.254789   -0.028731
      4          6           0        0.679789   -0.729180    0.169626
      5          6           0        2.042662   -0.793226   -0.544690
      6          6           0        2.044412    0.784287   -0.562172
      7          6           0        0.681144    0.738062    0.154003
      8          6           0       -0.712434    1.257605   -0.056089
      9          8           0        0.862398    0.017679    1.382608
     10          1           0       -3.401898    0.559585   -0.217526
     11          1           0       -1.864785    0.008795    1.319713
     12          1           0       -0.990013   -2.099072    0.608620
     13          1           0       -0.859617   -1.556940   -1.071976
     14          1           0        2.842457   -1.288951    0.009802
     15          1           0        1.981259   -1.217463   -1.549538
     16          1           0        2.845200    1.290886   -0.018955
     17          1           0        1.983381    1.186121   -1.576240
     18          1           0       -0.985668    2.117266    0.564829
     19          1           0       -0.857215    1.535399   -1.106488
 ---------------------------------------------------------------------

 SCF Done:  E(RB3LYP) =  -423.149799316     A.U. after    1 cycles

 The electronic state is 1-A.
 Alpha  occ. eigenvalues --  -19.14445 -19.13823 -10.23654 -10.22481 -10.22410
 Alpha  occ. eigenvalues --  -10.19202 -10.19180 -10.18713 -10.18650  -1.07446
 Alpha  occ. eigenvalues --   -1.01994  -0.80642  -0.78273  -0.72477  -0.63466
 Alpha  occ. eigenvalues --   -0.62763  -0.57526  -0.52709  -0.51257  -0.49230
 Alpha  occ. eigenvalues --   -0.45401  -0.44035  -0.42592  -0.41663  -0.39393
 Alpha  occ. eigenvalues --   -0.37570  -0.36926  -0.35370  -0.34511  -0.33189
 Alpha  occ. eigenvalues --   -0.31606  -0.27487  -0.26315  -0.24037
 Alpha virt. eigenvalues --    0.06865   0.08929   0.09551   0.12212   0.12324
 Alpha virt. eigenvalues --    0.13414   0.13993   0.15078   0.15543   0.16784
 Alpha virt. eigenvalues --    0.17854   0.19201   0.19536   0.20976   0.21864

 Mulliken charges:
               1
     1  O   -0.429663
     2  C    0.127354
     3  C   -0.330560
     4  C    0.321467
     5  C   -0.298596
     6  C   -0.298143
     7  C    0.326587
     8  C   -0.360411
     9  O   -0.310816
    10  H    0.284467
    11  H    0.088186
    12  H    0.111102
    13  H    0.117424
    14  H    0.110549
    15  H    0.109343
    16  H    0.110214
    17  H    0.108594
    18  H    0.101369
    19  H    0.111530
 Sum of Mulliken charges =   0.00000

 Dipole moment (field-independent basis, Debye):
    X=             -0.5012    Y=              0.8638    Z=             -0.9593  Tot=              1.3848
 Quadrupole moment (field-independent basis, Debye-Ang):
   XX=            -50.3060   YY=            -51.0302   ZZ=            -55.8780
   XY=             -3.7315   XZ=             -5.0661   YZ=             -0.2498

  Exact polarizability:  85.771  -1.379  73.761  -2.836   0.195  64.010
 Approx polarizability: 109.115  -1.454 112.214  -0.339   0.987 105.930

                      1                      2                      3
                      A                      A                      A
 Frequencies --    108.5080               207.4525               261.5145
 Red. masses --      3.4564                 1.7527                 1.1458
 Frc consts  --      0.0240                 0.0444                 0.0462
 IR Inten    --      2.1814                 2.1502                89.6444

                      4                      5                      6
                      A                      A                      A
 Frequencies --    283.5661               303.1126               366.3801
 Red. masses --      2.2291                 2.5695                 3.5479
 Frc consts  --      0.1056                 0.1391                 0.2806
 IR Inten    --      9.9604                 6.4437                 4.8484

                      7                      8                      9
                      A                      A                      A
 Frequencies --    423.1619               478.3673               500.6041
 Red. masses --      7.7619                 2.1526                 2.8795
 Frc consts  --      0.8189                 0.2902                 0.4252
 IR Inten    --      0.8907                13.0852                 4.4888

                     10                     11                     12
                      A                      A                      A
 Frequencies --    583.6042               678.5951               741.9829
 Red. masses --      4.2379                 5.1258                 4.9495
 Frc consts  --      0.8504                 1.3907                 1.6055
 IR Inten    --     12.4275                 2.8337                 1.1748

                     13                     14                     15
                      A                      A                      A
 Frequencies --    758.8575               790.3938               831.1397
 Red. masses --      1.3999                 2.3619                 3.3691
 Frc consts  --      0.4750                 0.8694                 1.3712
 IR Inten    --      0.5667                 4.5361                 6.8996

                     16                     17                     18
                      A                      A                      A
 Frequencies --    877.0500               902.0190               925.8847
 Red. masses --      4.9476                 1.5022                 3.0090
 Frc consts  --      2.2423                 0.7201                 1.5198
 IR Inten    --     22.7973                 0.1454                 4.3406

                     19                     20                     21
                      A                      A                      A
 Frequencies --    950.5637              1002.4982              1012.5704
 Red. masses --      4.4012                 1.7521                 1.6730
 Frc consts  --      2.3431                 1.0375                 1.0106
 IR Inten    --      1.0301                 7.2020                12.9100

                     22                     23                     24
                      A                      A                      A
 Frequencies --   1040.7527              1070.9174              1133.5357
 Red. masses --      2.4559                 3.2117                 1.6493
 Frc consts  --      1.5673                 2.1702                 1.2486
 IR Inten    --     14.9655                64.0609                 8.1656

                     25                     26                     27
                      A                      A                      A
 Frequencies --   1159.7758              1175.9165              1196.0378
 Red. masses --      1.4562                 1.6323                 1.4292
 Frc consts  --      1.1541                 1.3298                 1.2046
 IR Inten    --      0.2404                 0.7584                 1.2331

                     28                     29                     30
                      A                      A                      A
 Frequencies --   1221.5842              1224.4060              1237.1976
 Red. masses --      1.1920                 1.3187                 1.7870
 Frc consts  --      1.0480                 1.1648                 1.6116
 IR Inten    --      2.0940                 0.8731                32.7339

                     31                     32                     33
                      A                      A                      A
 Frequencies --   1254.7681              1276.3422              1314.4677
 Red. masses --      1.3938                 1.2245                 2.1938
 Frc consts  --      1.2929                 1.1752                 2.2333
 IR Inten    --      5.1519                40.3472                 7.1806

                     34                     35                     36
                      A                      A                      A
 Frequencies --   1331.6861              1359.0505              1422.9743
 Red. masses --      2.1088                 1.5445                 2.0698
 Frc consts  --      2.2034                 1.6808                 2.4692
 IR Inten    --     15.1508                18.5585                 8.9702

                     37                     38                     39
                      A                      A                      A
 Frequencies --   1426.6212              1463.5479              1479.9209
 Red. masses --      2.2117                 1.0892                 1.1025
 Frc consts  --      2.6521                 1.3745                 1.4226
 IR Inten    --     19.6910                 0.0794                 1.7724

                     40                     41                     42
                      A                      A                      A
 Frequencies --   1486.8404              1494.2166              3026.7776
 Red. masses --      1.2278                 1.1454                 1.0857
 Frc consts  --      1.5992                 1.5067                 5.8602
 IR Inten    --      1.0380                 1.5837                24.8241

                     43                     44                     45
                      A                      A                      A
 Frequencies --   3038.8531              3049.5017              3064.2734
 Red. masses --      1.0583                 1.0596                 1.0563
 Frc consts  --      5.7581                 5.8055                 5.8439
 IR Inten    --     34.2948                18.9843                40.8370

                     46                     47                     48
                      A                      A                      A
 Frequencies --   3071.1932              3085.1325              3096.9266
 Red. masses --      1.0595                 1.1047                 1.1040
 Frc consts  --      5.8878                 6.1949                 6.2385
 IR Inten    --     38.4888                22.8347                28.2654

                     49                     50                     51
                      A                      A                      A
 Frequencies --   3115.0980              3131.8960              3824.0801
 Red. masses --      1.1094                 1.1083                 1.0663
 Frc consts  --      6.3427                 6.4049                 9.1873
 IR Inten    --      0.7990                37.3408                25.1096

 - Thermochemistry -
 -------------------
 Temperature   298.150 Kelvin.  Pressure   1.00000 Atm.
 Atom     1 has atomic number  8 and mass  15.99491

 Molecular mass:   126.06808 amu.
 Principal axes and moments of inertia in atomic units:
                           1         2         3
     Eigenvalues --   499.461151375.816211491.89762
           X            0.99963  -0.00808  -0.02580
           Y            0.00792   0.99995  -0.00622
           Z            0.02585   0.00601   0.99965
 This molecule is an asymmetric top.
 Rotational symmetry number  1.
 Warning -- assumption of classical behavior for rotation
           may cause significant error
 Rotational temperatures (Kelvin)      0.17341     0.06295     0.05806
 Rotational constants (GHZ):           3.61338     1.31176     1.20970
 Zero-point vibrational energy     420260.8 (Joules/Mol)
                                  100.44474 (Kcal/Mol)
 Warning -- explicit consideration of  10 degrees of freedom as
           vibrations may cause significant error
 Vibrational temperatures:    156.12   298.48   376.26   407.99   436.11
          (Kelvin)            527.14   608.83   688.26   720.26   839.68
                              976.35  1067.55  1091.83  1137.20  1195.82
                             1261.88  1297.80  1332.14  1367.65  1442.37
                             1456.86  1497.41  1540.81  1630.90  1668.66
                             1691.88  1720.83  1757.59  1761.64  1780.05
                             1805.33  1836.37  1891.22  1916.00  1955.37
                             2047.34  2052.59  2105.72  2129.27  2139.23
                             2149.84  4354.85  4372.23  4387.55  4408.80
                             4418.76  4438.81  4455.78  4481.93  4506.09
                             5501.99

 Zero-point correction=                           0.160069 (Hartree/Particle)
 Thermal correction to Energy=                    0.167771
 Thermal correction to Enthalpy=                  0.168715
 Thermal correction to Gibbs Free Energy=         0.128236
 Sum of electronic and zero-point Energies=           -422.989730
 Sum of electronic and thermal Energies=              -422.982029
 Sum of electronic and thermal Enthalpies=            -422.981084
 Sum of electronic and thermal Free Energies=         -423.021563

                     E (Thermal)             CV                S
                      KCal/Mol        Cal/Mol-Kelvin    Cal/Mol-Kelvin
 Total                  105.278             31.062             85.194
 Electronic               0.000              0.000              0.000
 Translational            0.889              2.981             40.409
 Rotational               0.889              2.981             28.418
 Vibrational            103.500             25.100             16.367
 Vibration     1          0.606              1.942              3.295
 Vibration     2          0.641              1.829              2.066
 Vibration     3          0.669              1.743              1.652
 Vibration     4          0.682              1.704              1.512
 Vibration     5          0.695              1.668              1.400
 Vibration     6          0.739              1.541              1.095
 Vibration     7          0.785              1.420              0.881
 Vibration     8          0.835              1.298              0.714
 Vibration     9          0.856              1.249              0.657
 Vibration    10          0.940              1.067              0.479

 Optimization completed.
    -- Stationary point found.
 Normal termination of Gaussian 09 at Tue Jan 28 03:40:35 2020.
