 Gaussian 09, Revision D.01,
 Gaussian 09:  ES64L-G09RevD.01 24-Apr-2013

 -----------------------------
 # b3lyp 6-31G(2df,p) opt Freq
 -----------------------------

 -----
 titel
 -----
 Symbolic Z-matrix:
 Charge =  0 Multiplicity = 1

 SCF Done:  E(RB3LYP) =  -423.176316383     A.U. after   14 cycles
 Optimization completed.
    -- Stationary point found.
 Normal termination of Gaussian 09 at Tue Jan 28 00:03:42 2020.

 ----------------------------------------------------------------------
 #N Geom=AllCheck Guess=TCheck SCRF=Check GenChk RB3LYP/6-31G(2df,p) Fr
 eq
 ----------------------------------------------------------------------

 Structure from the checkpoint file:  "/scratch/puck/g09_c502c53c-7726-451c-a3ef-a93f27648d67/Gau-116685.chk"
 -----
 titel
 -----
 Charge =  0 Multiplicity = 1

                         Standard orientation:
 ---------------------------------------------------------------------
 Center     Atomic      Atomic             Coordinates (Angstroms)
 Number     Number       Type             X           Y           Z
 ---------------------------------------------------------------------
      1          6           0       -0.032687    2.058753   -0.190039
      2          6           0       -0.004707    0.639771    0.321759
      3          6           0       -1.046756    0.201093    1.332490
      4          6           0       -1.057604   -0.382965   -0.068828
      5          8           0       -2.078224   -0.064391   -0.964475
      6          6           0       -0.332283   -1.681937   -0.202058
      7          6           0        0.961744   -1.555429    0.101752
      8          6           0        1.340201   -0.115884    0.385990
      9          8           0        2.322193    0.371112   -0.522530
     10          1           0       -1.058157    2.356183   -0.424316
     11          1           0        0.371565    2.757100    0.550800
     12          1           0        0.568611    2.159524   -1.096976
     13          1           0       -0.766061   -0.446134    2.158050
     14          1           0       -1.813846    0.936057    1.562529
     15          1           0       -2.915626   -0.348714   -0.584199
     16          1           0       -0.841110   -2.602324   -0.467858
     17          1           0        1.693189   -2.353940    0.143380
     18          1           0        1.799305   -0.000548    1.375384
     19          1           0        2.042930    0.108618   -1.407140
 ---------------------------------------------------------------------

 SCF Done:  E(RB3LYP) =  -423.176316383     A.U. after    1 cycles

 The electronic state is 1-A.
 Alpha  occ. eigenvalues --  -19.14787 -19.13399 -10.23897 -10.23225 -10.19120
 Alpha  occ. eigenvalues --  -10.18777 -10.18607 -10.17963 -10.17010  -1.03366
 Alpha  occ. eigenvalues --   -1.01554  -0.87767  -0.77052  -0.71197  -0.67334
 Alpha  occ. eigenvalues --   -0.61314  -0.56354  -0.55490  -0.50574  -0.49009
 Alpha  occ. eigenvalues --   -0.45598  -0.43781  -0.43072  -0.41388  -0.40495
 Alpha  occ. eigenvalues --   -0.39096  -0.37236  -0.35111  -0.32994  -0.32281
 Alpha  occ. eigenvalues --   -0.29696  -0.26378  -0.26147  -0.23672
 Alpha virt. eigenvalues --    0.00431   0.07806   0.09791   0.11678   0.12277
 Alpha virt. eigenvalues --    0.13447   0.13824   0.15849   0.16348   0.17142
 Alpha virt. eigenvalues --    0.18387   0.18950   0.22349   0.22906   0.23574

 Mulliken charges:
               1
     1  C   -0.467795
     2  C    0.233262
     3  C   -0.388644
     4  C    0.328169
     5  O   -0.471909
     6  C   -0.135439
     7  C   -0.143941
     8  C    0.037752
     9  O   -0.426356
    10  H    0.122041
    11  H    0.116485
    12  H    0.117941
    13  H    0.109257
    14  H    0.108437
    15  H    0.286044
    16  H    0.099499
    17  H    0.102129
    18  H    0.094224
    19  H    0.278844
 Sum of Mulliken charges =   0.00000

 Dipole moment (field-independent basis, Debye):
    X=             -1.7329    Y=             -1.1765    Z=              0.6727  Tot=              2.1999
 Quadrupole moment (field-independent basis, Debye-Ang):
   XX=            -52.5080   YY=            -51.8971   ZZ=            -52.7915
   XY=             -0.5768   XZ=             -2.3313   YZ=              0.7774

  Exact polarizability:  86.058   0.069  78.735  -0.306   1.483  64.029
 Approx polarizability: 135.280   4.172 107.785   2.682   2.751 101.050

                      1                      2                      3
                      A                      A                      A
 Frequencies --    115.5595               160.8628               211.2090
 Red. masses --      4.0522                 1.0654                 3.5018
 Frc consts  --      0.0319                 0.0162                 0.0920
 IR Inten    --      1.4088                 1.0090                13.1103

                      4                      5                      6
                      A                      A                      A
 Frequencies --    253.2762               256.7139               284.0204
 Red. masses --      3.0298                 1.1407                 3.0528
 Frc consts  --      0.1145                 0.0443                 0.1451
 IR Inten    --      0.8911                71.6542                 9.5057

                      7                      8                      9
                      A                      A                      A
 Frequencies --    356.0675               371.4838               426.6730
 Red. masses --      2.6704                 1.2313                 2.8465
 Frc consts  --      0.1995                 0.1001                 0.3053
 IR Inten    --      2.3666                70.1457                 6.2265

                     10                     11                     12
                      A                      A                      A
 Frequencies --    450.3582               495.0353               550.8318
 Red. masses --      3.3480                 3.1249                 3.0025
 Frc consts  --      0.4001                 0.4512                 0.5368
 IR Inten    --     10.6316                 9.5437                 2.3556

                     13                     14                     15
                      A                      A                      A
 Frequencies --    624.2286               694.6133               749.4325
 Red. masses --      3.6808                 4.5277                 1.8197
 Frc consts  --      0.8450                 1.2871                 0.6022
 IR Inten    --      5.0347                 0.8117                14.5410

                     16                     17                     18
                      A                      A                      A
 Frequencies --    754.5953               830.2759               869.1642
 Red. masses --      4.2901                 2.3394                 2.4800
 Frc consts  --      1.4393                 0.9502                 1.1038
 IR Inten    --     10.1544                24.3463                15.0288

                     19                     20                     21
                      A                      A                      A
 Frequencies --    920.9162               956.4409               960.1799
 Red. masses --      1.8707                 1.3536                 1.4627
 Frc consts  --      0.9347                 0.7296                 0.7945
 IR Inten    --      9.4789                 5.6867                 2.7751

                     22                     23                     24
                      A                      A                      A
 Frequencies --    974.9582               999.9246              1055.0326
 Red. masses --      1.6598                 2.0436                 1.4138
 Frc consts  --      0.9295                 1.2038                 0.9272
 IR Inten    --      2.2148                26.3316                 4.9393

                     25                     26                     27
                      A                      A                      A
 Frequencies --   1070.7033              1092.8330              1115.8647
 Red. masses --      2.4184                 1.5507                 1.9270
 Frc consts  --      1.6335                 1.0912                 1.4137
 IR Inten    --     93.3212                25.8414                 6.5427

                     28                     29                     30
                      A                      A                      A
 Frequencies --   1160.9764              1224.1234              1238.4115
 Red. masses --      1.9929                 2.7276                 1.3458
 Frc consts  --      1.5826                 2.4082                 1.2161
 IR Inten    --      9.0981                94.2537                 2.9698

                     31                     32                     33
                      A                      A                      A
 Frequencies --   1271.4068              1299.5295              1313.1859
 Red. masses --      1.4476                 1.9944                 1.9726
 Frc consts  --      1.3787                 1.9844                 2.0042
 IR Inten    --     14.9793                49.5318                 2.6801

                     34                     35                     36
                      A                      A                      A
 Frequencies --   1365.7623              1396.9396              1413.3107
 Red. masses --      2.4208                 1.8420                 1.3004
 Frc consts  --      2.6605                 2.1178                 1.5304
 IR Inten    --      9.7661                 9.0391                12.8441

                     37                     38                     39
                      A                      A                      A
 Frequencies --   1423.0066              1477.6349              1486.8431
 Red. masses --      1.2662                 1.3607                 1.0484
 Frc consts  --      1.5106                 1.7505                 1.3656
 IR Inten    --     57.6916                 4.5473                 4.0794

                     40                     41                     42
                      A                      A                      A
 Frequencies --   1501.5460              1659.6939              3038.7267
 Red. masses --      1.0882                 6.5634                 1.0501
 Frc consts  --      1.4456                10.6521                 5.7132
 IR Inten    --      9.7033                 3.4442                27.5071

                     43                     44                     45
                      A                      A                      A
 Frequencies --   3040.9488              3103.8004              3108.6792
 Red. masses --      1.0706                 1.0965                 1.0551
 Frc consts  --      5.8329                 6.2237                 6.0076
 IR Inten    --     31.8435                20.3820                10.8617

                     46                     47                     48
                      A                      A                      A
 Frequencies --   3124.6352              3184.9166              3200.3265
 Red. masses --      1.1006                 1.0859                 1.1174
 Frc consts  --      6.3313                 6.4898                 6.7428
 IR Inten    --     16.5227                 8.0840                10.3357

                     49                     50                     51
                      A                      A                      A
 Frequencies --   3212.1705              3796.8770              3807.8697
 Red. masses --      1.1035                 1.0661                 1.0665
 Frc consts  --      6.7085                 9.0549                 9.1109
 IR Inten    --     14.8877                18.3766                27.5386

 - Thermochemistry -
 -------------------
 Temperature   298.150 Kelvin.  Pressure   1.00000 Atm.
 Atom     1 has atomic number  6 and mass  12.00000

 Molecular mass:   126.06808 amu.
 Principal axes and moments of inertia in atomic units:
                           1         2         3
     Eigenvalues --   760.190231068.057491414.23739
           X            0.99959  -0.02508  -0.01365
           Y            0.02503   0.99968  -0.00363
           Z            0.01374   0.00329   0.99990
 This molecule is an asymmetric top.
 Rotational symmetry number  1.
 Warning -- assumption of classical behavior for rotation
           may cause significant error
 Rotational temperatures (Kelvin)      0.11394     0.08109     0.06124
 Rotational constants (GHZ):           2.37407     1.68974     1.27612
 Zero-point vibrational energy     415418.7 (Joules/Mol)
                                   99.28744 (Kcal/Mol)
 Warning -- explicit consideration of  12 degrees of freedom as
           vibrations may cause significant error
 Vibrational temperatures:    166.26   231.45   303.88   364.41   369.35
          (Kelvin)            408.64   512.30   534.48   613.89   647.96
                              712.24   792.52   898.12   999.39  1078.26
                             1085.69  1194.58  1250.53  1324.99  1376.10
                             1381.48  1402.75  1438.67  1517.95  1540.50
                             1572.34  1605.48  1670.38  1761.24  1781.80
                             1829.27  1869.73  1889.38  1965.02  2009.88
                             2033.44  2047.39  2125.98  2139.23  2160.39
                             2387.93  4372.04  4375.24  4465.67  4472.69
                             4495.65  4582.38  4604.55  4621.59  5462.85
                             5478.67

 Zero-point correction=                           0.158225 (Hartree/Particle)
 Thermal correction to Energy=                    0.167019
 Thermal correction to Enthalpy=                  0.167963
 Thermal correction to Gibbs Free Energy=         0.125498
 Sum of electronic and zero-point Energies=           -423.018092
 Sum of electronic and thermal Energies=              -423.009297
 Sum of electronic and thermal Enthalpies=            -423.008353
 Sum of electronic and thermal Free Energies=         -423.050819

                     E (Thermal)             CV                S
                      KCal/Mol        Cal/Mol-Kelvin    Cal/Mol-Kelvin
 Total                  104.806             34.563             89.376
 Electronic               0.000              0.000              0.000
 Translational            0.889              2.981             40.409
 Rotational               0.889              2.981             28.531
 Vibrational            103.029             28.602             20.437
 Vibration     1          0.608              1.936              3.173
 Vibration     2          0.622              1.890              2.540
 Vibration     3          0.643              1.824              2.033
 Vibration     4          0.664              1.757              1.708
 Vibration     5          0.666              1.751              1.684
 Vibration     6          0.682              1.703              1.509
 Vibration     7          0.732              1.563              1.139
 Vibration     8          0.743              1.531              1.074
 Vibration     9          0.788              1.412              0.870
 Vibration    10          0.809              1.360              0.795
 Vibration    11          0.851              1.261              0.671
 Vibration    12          0.906              1.138              0.542

 Normal termination of Gaussian 09 at Tue Jan 28 00:59:14 2020.
