 Gaussian 09, Revision D.01,
 Gaussian 09:  ES64L-G09RevD.01 24-Apr-2013

 -----------------------------
 # b3lyp 6-31G(2df,p) opt Freq
 -----------------------------

 -----
 titel
 -----
 Symbolic Z-matrix:
 Charge =  0 Multiplicity = 1

 SCF Done:  E(RB3LYP) =  -423.160613311     A.U. after   14 cycles
 Optimization completed.
    -- Stationary point found.
 Normal termination of Gaussian 09 at Mon Jan 27 22:15:00 2020.

 ----------------------------------------------------------------------
 #N Geom=AllCheck Guess=TCheck SCRF=Check GenChk RB3LYP/6-31G(2df,p) Fr
 eq
 ----------------------------------------------------------------------

 Structure from the checkpoint file:  "/scratch/puck/g09_7075e36d-919d-4e32-8fa5-017b9b03c5ca/Gau-28479.chk"
 -----
 titel
 -----
 Charge =  0 Multiplicity = 1

                         Standard orientation:
 ---------------------------------------------------------------------
 Center     Atomic      Atomic             Coordinates (Angstroms)
 Number     Number       Type             X           Y           Z
 ---------------------------------------------------------------------
      1          6           0        2.505937   -0.059214   -0.415599
      2          6           0        1.081295   -0.455279   -0.761975
      3          6           0        0.000305    0.631586   -1.111385
      4          6           0       -1.081093   -0.455069   -0.762265
      5          6           0       -2.505667   -0.058555   -0.416010
      6          6           0       -0.000367   -0.608192    0.375485
      7          8           0       -0.000975   -1.504933    1.414986
      8          6           0        0.000044    0.924359    0.395520
      9          8           0        0.000279    1.822925    1.182595
     10          1           0        3.022216   -0.890245    0.076368
     11          1           0        3.071718    0.195598   -1.317641
     12          1           0        2.542172    0.803412    0.257574
     13          1           0        1.048061   -1.296235   -1.461387
     14          1           0        0.000640    1.317688   -1.952419
     15          1           0       -1.048085   -1.295914   -1.461812
     16          1           0       -3.021469   -0.888804    0.077794
     17          1           0       -2.541655    0.805265    0.255658
     18          1           0       -3.071951    0.194499   -1.318208
     19          1           0        0.001187   -1.007025    2.240797
 ---------------------------------------------------------------------

 SCF Done:  E(RB3LYP) =  -423.160613311     A.U. after    1 cycles

 The electronic state is 1-A.
 Alpha  occ. eigenvalues --  -19.16068 -19.14023 -10.27378 -10.25290 -10.21027
 Alpha  occ. eigenvalues --  -10.21026 -10.20819 -10.18198 -10.18196  -1.05774
 Alpha  occ. eigenvalues --   -1.04189  -0.91999  -0.76005  -0.71890  -0.64196
 Alpha  occ. eigenvalues --   -0.62724  -0.59375  -0.55440  -0.47913  -0.47779
 Alpha  occ. eigenvalues --   -0.46007  -0.43580  -0.43342  -0.41462  -0.40705
 Alpha  occ. eigenvalues --   -0.38458  -0.37549  -0.36895  -0.35551  -0.34191
 Alpha  occ. eigenvalues --   -0.33846  -0.32212  -0.26809  -0.24066
 Alpha virt. eigenvalues --    0.00826   0.06795   0.10529   0.11785   0.12280
 Alpha virt. eigenvalues --    0.12544   0.14421   0.14585   0.16313   0.16771
 Alpha virt. eigenvalues --    0.17192   0.18727   0.19635   0.20159   0.20244

 Mulliken charges:
               1
     1  C   -0.450662
     2  C   -0.026688
     3  C   -0.199699
     4  C   -0.026604
     5  C   -0.450647
     6  C    0.276146
     7  O   -0.472697
     8  C    0.364667
     9  O   -0.350380
    10  H    0.129735
    11  H    0.122734
    12  H    0.134093
    13  H    0.082419
    14  H    0.096055
    15  H    0.082417
    16  H    0.129778
    17  H    0.134111
    18  H    0.122698
    19  H    0.302526
 Sum of Mulliken charges =   0.00000

 Dipole moment (field-independent basis, Debye):
    X=              0.0029    Y=             -1.0139    Z=             -1.3521  Tot=              1.6900
 Quadrupole moment (field-independent basis, Debye-Ang):
   XX=            -50.8570   YY=            -60.6136   ZZ=            -50.4089
   XY=             -0.0051   XZ=              0.0078   YZ=             -2.3781

  Exact polarizability:  83.504   0.001  70.528   0.001   2.170  73.871
 Approx polarizability: 106.425   0.008 115.532  -0.002   7.809 117.321

                      1                      2                      3
                      A                      A                      A
 Frequencies --    114.4112               159.5851               177.0564
 Red. masses --      2.8691                 2.9864                 1.8153
 Frc consts  --      0.0221                 0.0448                 0.0335
 IR Inten    --     22.0649                35.4709                 2.5593

                      4                      5                      6
                      A                      A                      A
 Frequencies --    188.2351               198.4139               206.2907
 Red. masses --      1.0260                 1.4813                 2.5990
 Frc consts  --      0.0214                 0.0344                 0.0652
 IR Inten    --      6.0129                 1.4081                 0.6820

                      7                      8                      9
                      A                      A                      A
 Frequencies --    224.8504               236.5247               419.7406
 Red. masses --      1.6092                 4.0785                 2.9445
 Frc consts  --      0.0479                 0.1344                 0.3057
 IR Inten    --     11.3241                 6.5633                 0.8616

                     10                     11                     12
                      A                      A                      A
 Frequencies --    492.1790               504.0589               511.1719
 Red. masses --      2.8788                 3.8942                 3.6121
 Frc consts  --      0.4109                 0.5830                 0.5561
 IR Inten    --      0.0000                 0.9704                 1.1716

                     13                     14                     15
                      A                      A                      A
 Frequencies --    696.6786               705.6045               732.5683
 Red. masses --      4.0836                 4.1827                 4.4251
 Frc consts  --      1.1678                 1.2270                 1.3992
 IR Inten    --      0.5550                 2.1435                 4.6070

                     16                     17                     18
                      A                      A                      A
 Frequencies --    786.0478               832.6086               853.7476
 Red. masses --      4.5569                 2.8236                 2.0050
 Frc consts  --      1.6589                 1.1533                 0.8611
 IR Inten    --     73.7502                11.3972                 1.2339

                     19                     20                     21
                      A                      A                      A
 Frequencies --    867.7391               995.6316              1008.8643
 Red. masses --      5.2231                 2.0634                 1.1294
 Frc consts  --      2.3171                 1.2051                 0.6773
 IR Inten    --      0.4053                 1.5398                 0.0106

                     22                     23                     24
                      A                      A                      A
 Frequencies --   1022.5808              1036.7983              1091.5086
 Red. masses --      1.4511                 1.4680                 1.5048
 Frc consts  --      0.8940                 0.9298                 1.0563
 IR Inten    --      0.0201                 3.1187                 4.5685

                     25                     26                     27
                      A                      A                      A
 Frequencies --   1108.4145              1130.3428              1156.0479
 Red. masses --      1.9003                 1.8148                 1.9383
 Frc consts  --      1.3755                 1.3662                 1.5262
 IR Inten    --      0.0090                 0.9874                30.3734

                     28                     29                     30
                      A                      A                      A
 Frequencies --   1189.7105              1191.6899              1225.5837
 Red. masses --      2.8169                 1.9290                 2.0258
 Frc consts  --      2.3491                 1.6140                 1.7928
 IR Inten    --      3.1975                 2.7166                28.8618

                     31                     32                     33
                      A                      A                      A
 Frequencies --   1320.1611              1371.2163              1381.8181
 Red. masses --      2.1047                 1.2786                 1.7262
 Frc consts  --      2.1612                 1.4165                 1.9420
 IR Inten    --    123.4787                14.2386                 6.0089

                     34                     35                     36
                      A                      A                      A
 Frequencies --   1417.0002              1420.0171              1433.0100
 Red. masses --      1.2433                 1.3720                 1.7964
 Frc consts  --      1.4708                 1.6300                 2.1735
 IR Inten    --      4.2493                 9.5828                20.9178

                     37                     38                     39
                      A                      A                      A
 Frequencies --   1493.0835              1494.2488              1499.5228
 Red. masses --      1.0448                 1.0475                 1.0451
 Frc consts  --      1.3723                 1.3780                 1.3846
 IR Inten    --      0.0092                 9.7144                 0.0730

                     40                     41                     42
                      A                      A                      A
 Frequencies --   1503.0100              1902.5613              3033.6915
 Red. masses --      1.0732                12.5601                 1.0354
 Frc consts  --      1.4284                26.7868                 5.6141
 IR Inten    --     11.5929               300.2114                43.9127

                     43                     44                     45
                      A                      A                      A
 Frequencies --   3034.2151              3060.5902              3065.1521
 Red. masses --      1.0353                 1.0860                 1.0837
 Frc consts  --      5.6160                 5.9936                 5.9987
 IR Inten    --      0.9297                 0.3323                31.1142

                     46                     47                     48
                      A                      A                      A
 Frequencies --   3100.2610              3100.3757              3106.9077
 Red. masses --      1.1010                 1.1012                 1.1015
 Frc consts  --      6.2351                 6.2363                 6.2645
 IR Inten    --     28.6403                 4.0394                 7.2639

                     49                     50                     51
                      A                      A                      A
 Frequencies --   3107.2541              3177.0661              3796.2708
 Red. masses --      1.1008                 1.0942                 1.0662
 Frc consts  --      6.2619                 6.5071                 9.0534
 IR Inten    --     40.1877                11.0289                43.9767

 - Thermochemistry -
 -------------------
 Temperature   298.150 Kelvin.  Pressure   1.00000 Atm.
 Atom     1 has atomic number  6 and mass  12.00000

 Molecular mass:   126.06808 amu.
 Principal axes and moments of inertia in atomic units:
                           1         2         3
     Eigenvalues --   823.403911210.193601266.01699
           X            1.00000  -0.00006   0.00004
           Y            0.00006   0.99706  -0.07667
           Z           -0.00004   0.07667   0.99706
 This molecule is an asymmetric top.
 Rotational symmetry number  1.
 Warning -- assumption of classical behavior for rotation
           may cause significant error
 Rotational temperatures (Kelvin)      0.10519     0.07157     0.06841
 Rotational constants (GHZ):           2.19181     1.49128     1.42553
 Zero-point vibrational energy     412006.6 (Joules/Mol)
                                   98.47193 (Kcal/Mol)
 Warning -- explicit consideration of  12 degrees of freedom as
           vibrations may cause significant error
 Vibrational temperatures:    164.61   229.61   254.74   270.83   285.47
          (Kelvin)            296.81   323.51   340.31   603.91   708.13
                              725.23   735.46  1002.36  1015.21  1054.00
                             1130.95  1197.94  1228.35  1248.48  1432.49
                             1451.53  1471.26  1491.72  1570.44  1594.76
                             1626.31  1663.29  1711.73  1714.57  1763.34
                             1899.41  1972.87  1988.13  2038.74  2043.09
                             2061.78  2148.21  2149.89  2157.48  2162.49
                             2737.36  4364.80  4365.55  4403.50  4410.06
                             4460.58  4460.74  4470.14  4470.64  4571.08
                             5461.98

 Zero-point correction=                           0.156925 (Hartree/Particle)
 Thermal correction to Energy=                    0.166319
 Thermal correction to Enthalpy=                  0.167264
 Thermal correction to Gibbs Free Energy=         0.123228
 Sum of electronic and zero-point Energies=           -423.003688
 Sum of electronic and thermal Energies=              -422.994294
 Sum of electronic and thermal Enthalpies=            -422.993350
 Sum of electronic and thermal Free Energies=         -423.037386

                     E (Thermal)             CV                S
                      KCal/Mol        Cal/Mol-Kelvin    Cal/Mol-Kelvin
 Total                  104.367             34.831             92.682
 Electronic               0.000              0.000              0.000
 Translational            0.889              2.981             40.409
 Rotational               0.889              2.981             28.624
 Vibrational            102.590             28.869             23.648
 Vibration     1          0.607              1.937              3.193
 Vibration     2          0.621              1.892              2.555
 Vibration     3          0.628              1.871              2.359
 Vibration     4          0.633              1.856              2.245
 Vibration     5          0.637              1.842              2.148
 Vibration     6          0.641              1.831              2.076
 Vibration     7          0.650              1.803              1.920
 Vibration     8          0.655              1.785              1.829
 Vibration     9          0.782              1.427              0.893
 Vibration    10          0.848              1.267              0.678
 Vibration    11          0.859              1.241              0.648
 Vibration    12          0.866              1.225              0.631

 Normal termination of Gaussian 09 at Tue Jan 28 00:27:46 2020.
