 Gaussian 09, Revision D.01,
 Gaussian 09:  ES64L-G09RevD.01 24-Apr-2013

 -----------------------------
 # b3lyp 6-31G(2df,p) opt Freq
 -----------------------------

 -----
 titel
 -----
 Symbolic Z-matrix:
 Charge =  0 Multiplicity = 1

 SCF Done:  E(RB3LYP) =  -423.156793527     A.U. after   14 cycles
 Optimization completed.
    -- Stationary point found.
 Normal termination of Gaussian 09 at Mon Jan 27 11:28:23 2020.

 ----------------------------------------------------------------------
 #N Geom=AllCheck Guess=TCheck SCRF=Check GenChk RB3LYP/6-31G(2df,p) Fr
 eq
 ----------------------------------------------------------------------

 Structure from the checkpoint file:  "/scratch/puck/g09_a673d91a-2257-4f67-b49b-3249c325c2b1/Gau-61264.chk"
 -----
 titel
 -----
 Charge =  0 Multiplicity = 1

                         Standard orientation:
 ---------------------------------------------------------------------
 Center     Atomic      Atomic             Coordinates (Angstroms)
 Number     Number       Type             X           Y           Z
 ---------------------------------------------------------------------
      1          6           0        1.931991   -0.298227   -0.015589
      2          6           0        1.374548    1.016578    0.577567
      3          6           0        0.428475    1.755908   -0.334707
      4          6           0       -0.868241    1.515355   -0.550412
      5          6           0       -1.709431    0.444444    0.023570
      6          8           0       -1.241316   -0.304792    1.148900
      7          6           0       -1.343633   -0.993785   -0.088468
      8          6           0       -0.044555   -1.469616   -0.750973
      9          8           0        1.080009   -1.419966    0.096722
     10          1           0        2.221434   -0.141906   -1.067270
     11          1           0        2.831384   -0.580045    0.541176
     12          1           0        0.899374    0.772257    1.528857
     13          1           0        2.233972    1.663256    0.788766
     14          1           0        0.870958    2.572426   -0.902303
     15          1           0       -1.399386    2.148443   -1.258630
     16          1           0       -2.775214    0.673987    0.067262
     17          1           0       -2.164917   -1.711940   -0.124223
     18          1           0       -0.178027   -2.521422   -1.029553
     19          1           0        0.135963   -0.900926   -1.674979
 ---------------------------------------------------------------------

 SCF Done:  E(RB3LYP) =  -423.156793527     A.U. after    1 cycles

 The electronic state is 1-A.
 Alpha  occ. eigenvalues --  -19.15384 -19.13789 -10.23955 -10.23766 -10.23194
 Alpha  occ. eigenvalues --  -10.22814 -10.18777 -10.18567 -10.17943  -1.07657
 Alpha  occ. eigenvalues --   -1.02831  -0.80164  -0.75816  -0.71309  -0.67325
 Alpha  occ. eigenvalues --   -0.60725  -0.58904  -0.53820  -0.52317  -0.48599
 Alpha  occ. eigenvalues --   -0.46806  -0.45850  -0.45046  -0.42917  -0.39447
 Alpha  occ. eigenvalues --   -0.38853  -0.37416  -0.35341  -0.34405  -0.33312
 Alpha  occ. eigenvalues --   -0.29506  -0.27188  -0.25519  -0.24022
 Alpha virt. eigenvalues --    0.00134   0.07953   0.09007   0.11342   0.12407
 Alpha virt. eigenvalues --    0.13686   0.14716   0.15540   0.15969   0.16736
 Alpha virt. eigenvalues --    0.17879   0.19119   0.19371   0.21135   0.23648

 Mulliken charges:
               1
     1  C   -0.067571
     2  C   -0.263563
     3  C   -0.092557
     4  C   -0.047177
     5  C    0.010192
     6  O   -0.228579
     7  C    0.035601
     8  C   -0.126727
     9  O   -0.224324
    10  H    0.086371
    11  H    0.107270
    12  H    0.144501
    13  H    0.093760
    14  H    0.091441
    15  H    0.086803
    16  H    0.093339
    17  H    0.093342
    18  H    0.107258
    19  H    0.100618
 Sum of Mulliken charges =   0.00000

 Dipole moment (field-independent basis, Debye):
    X=             -0.2596    Y=              0.7836    Z=             -2.0508  Tot=              2.2107
 Quadrupole moment (field-independent basis, Debye-Ang):
   XX=            -48.8553   YY=            -52.7907   ZZ=            -55.0303
   XY=              2.5997   XZ=              2.1835   YZ=              1.0107

  Exact polarizability:  91.072   5.026  81.069   4.097  -1.513  59.908
 Approx polarizability: 132.316   8.325 116.806   7.348  -4.505  97.492

                      1                      2                      3
                      A                      A                      A
 Frequencies --    134.1641               194.8356               231.2542
 Red. masses --      2.4180                 3.8927                 6.1350
 Frc consts  --      0.0256                 0.0871                 0.1933
 IR Inten    --      2.3590                 2.4792                 2.1773

                      4                      5                      6
                      A                      A                      A
 Frequencies --    256.9537               309.0511               368.4432
 Red. masses --      3.6411                 2.7259                 2.5781
 Frc consts  --      0.1416                 0.1534                 0.2062
 IR Inten    --      0.3714                 0.3014                 2.0963

                      7                      8                      9
                      A                      A                      A
 Frequencies --    414.9309               485.6879               579.7582
 Red. masses --      3.0162                 2.0128                 3.4859
 Frc consts  --      0.3060                 0.2797                 0.6903
 IR Inten    --      3.8085                 1.9573                 4.9178

                     10                     11                     12
                      A                      A                      A
 Frequencies --    622.2794               705.2838               754.3860
 Red. masses --      3.9133                 2.7476                 2.0901
 Frc consts  --      0.8928                 0.8053                 0.7008
 IR Inten    --     19.9168                10.5813                20.5948

                     13                     14                     15
                      A                      A                      A
 Frequencies --    792.2951               803.2777               835.8406
 Red. masses --      2.9395                 2.4043                 2.7773
 Frc consts  --      1.0872                 0.9141                 1.1432
 IR Inten    --      4.2250                 5.9307                10.9653

                     16                     17                     18
                      A                      A                      A
 Frequencies --    905.4891               950.9279               989.6781
 Red. masses --      3.1461                 5.1786                 2.2122
 Frc consts  --      1.5198                 2.7590                 1.2766
 IR Inten    --     17.2714                28.0807                 4.1440

                     19                     20                     21
                      A                      A                      A
 Frequencies --   1001.4136              1007.8515              1018.1831
 Red. masses --      1.3323                 2.1415                 2.4653
 Frc consts  --      0.7872                 1.2817                 1.5058
 IR Inten    --      2.0996                 6.9298                 7.7174

                     22                     23                     24
                      A                      A                      A
 Frequencies --   1052.6538              1091.4122              1119.2503
 Red. masses --      2.3331                 1.9710                 1.8431
 Frc consts  --      1.5232                 1.3833                 1.3604
 IR Inten    --      1.7517                 3.7443                35.9936

                     25                     26                     27
                      A                      A                      A
 Frequencies --   1142.6144              1165.8186              1230.6713
 Red. masses --      1.3803                 2.8862                 1.1511
 Frc consts  --      1.0617                 2.3112                 1.0272
 IR Inten    --      3.9611                49.2777                 3.5139

                     28                     29                     30
                      A                      A                      A
 Frequencies --   1266.0956              1295.9201              1305.5403
 Red. masses --      1.3263                 1.1987                 1.2916
 Frc consts  --      1.2526                 1.1860                 1.2971
 IR Inten    --      4.5746                 2.2566                37.7050

                     31                     32                     33
                      A                      A                      A
 Frequencies --   1329.1680              1355.9835              1381.1641
 Red. masses --      1.2819                 1.2016                 1.2121
 Frc consts  --      1.3344                 1.3017                 1.3623
 IR Inten    --      3.5581                 5.4375                 0.5185

                     34                     35                     36
                      A                      A                      A
 Frequencies --   1402.8523              1414.8018              1433.6509
 Red. masses --      1.2942                 1.2901                 1.4614
 Frc consts  --      1.5006                 1.5215                 1.7697
 IR Inten    --      3.0348                 8.8494                 2.7447

                     37                     38                     39
                      A                      A                      A
 Frequencies --   1454.3233              1475.5135              1481.6730
 Red. masses --      2.2691                 1.1215                 1.0889
 Frc consts  --      2.8277                 1.4386                 1.4085
 IR Inten    --      6.3622                 2.6080                 2.9288

                     40                     41                     42
                      A                      A                      A
 Frequencies --   1492.7910              1720.4127              2975.3535
 Red. masses --      1.1066                 6.7896                 1.0685
 Frc consts  --      1.4529                11.8402                 5.5731
 IR Inten    --      5.0682                 3.0624                50.4510

                     43                     44                     45
                      A                      A                      A
 Frequencies --   2994.8048              3041.7213              3052.5794
 Red. masses --      1.0628                 1.0690                 1.0981
 Frc consts  --      5.6159                 5.8275                 6.0288
 IR Inten    --     45.7207                24.7735                18.7243

                     46                     47                     48
                      A                      A                      A
 Frequencies --   3076.5156              3087.3530              3099.9027
 Red. masses --      1.0935                 1.0854                 1.0901
 Frc consts  --      6.0979                 6.0954                 6.1716
 IR Inten    --     54.0944                25.1677                64.3450

                     49                     50                     51
                      A                      A                      A
 Frequencies --   3123.1409              3135.8712              3156.6465
 Red. masses --      1.0899                 1.0869                 1.0942
 Frc consts  --      6.2634                 6.2972                 6.4238
 IR Inten    --      1.1635                10.2787                30.3238

 - Thermochemistry -
 -------------------
 Temperature   298.150 Kelvin.  Pressure   1.00000 Atm.
 Atom     1 has atomic number  6 and mass  12.00000

 Molecular mass:   126.06808 amu.
 Principal axes and moments of inertia in atomic units:
                           1         2         3
     Eigenvalues --   803.14018 932.302211394.65864
           X            0.99417   0.10599   0.01975
           Y           -0.10625   0.99425   0.01294
           Z           -0.01827  -0.01496   0.99972
 This molecule is an asymmetric top.
 Rotational symmetry number  1.
 Warning -- assumption of classical behavior for rotation
           may cause significant error
 Rotational temperatures (Kelvin)      0.10784     0.09290     0.06210
 Rotational constants (GHZ):           2.24711     1.93579     1.29404
 Zero-point vibrational energy     422988.7 (Joules/Mol)
                                  101.09672 (Kcal/Mol)
 Warning -- explicit consideration of   9 degrees of freedom as
           vibrations may cause significant error
 Vibrational temperatures:    193.03   280.32   332.72   369.70   444.66
          (Kelvin)            530.11   596.99   698.80   834.14   895.32
                             1014.74  1085.39  1139.93  1155.74  1202.59
                             1302.80  1368.17  1423.92  1440.81  1450.07
                             1464.94  1514.53  1570.30  1610.35  1643.97
                             1677.35  1770.66  1821.63  1864.54  1878.38
                             1912.37  1950.96  1987.18  2018.39  2035.58
                             2062.70  2092.44  2122.93  2131.79  2147.79
                             2475.29  4280.86  4308.85  4376.35  4391.98
                             4426.41  4442.01  4460.06  4493.50  4511.81
                             4541.70

 Zero-point correction=                           0.161108 (Hartree/Particle)
 Thermal correction to Energy=                    0.168684
 Thermal correction to Enthalpy=                  0.169628
 Thermal correction to Gibbs Free Energy=         0.129347
 Sum of electronic and zero-point Energies=           -422.995686
 Sum of electronic and thermal Energies=              -422.988110
 Sum of electronic and thermal Enthalpies=            -422.987166
 Sum of electronic and thermal Free Energies=         -423.027446

                     E (Thermal)             CV                S
                      KCal/Mol        Cal/Mol-Kelvin    Cal/Mol-Kelvin
 Total                  105.851             30.139             84.777
 Electronic               0.000              0.000              0.000
 Translational            0.889              2.981             40.409
 Rotational               0.889              2.981             28.437
 Vibrational            104.073             24.178             15.932
 Vibration     1          0.613              1.919              2.885
 Vibration     2          0.636              1.847              2.181
 Vibration     3          0.653              1.793              1.869
 Vibration     4          0.667              1.751              1.682
 Vibration     5          0.698              1.656              1.367
 Vibration     6          0.741              1.537              1.086
 Vibration     7          0.778              1.438              0.909
 Vibration     8          0.842              1.282              0.695
 Vibration     9          0.936              1.075              0.486

 Normal termination of Gaussian 09 at Mon Jan 27 13:45:49 2020.
