 Gaussian 09, Revision D.01,
 Gaussian 09:  ES64L-G09RevD.01 24-Apr-2013

 -----------------------------
 # b3lyp 6-31G(2df,p) opt Freq
 -----------------------------

 -----
 titel
 -----
 Symbolic Z-matrix:
 Charge =  0 Multiplicity = 1

 SCF Done:  E(RB3LYP) =  -423.119626103     A.U. after   13 cycles
 Optimization completed.
    -- Stationary point found.
 Normal termination of Gaussian 09 at Mon Jan 27 22:05:43 2020.

 ----------------------------------------------------------------------
 #N Geom=AllCheck Guess=TCheck SCRF=Check GenChk RB3LYP/6-31G(2df,p) Fr
 eq
 ----------------------------------------------------------------------

 Structure from the checkpoint file:  "/scratch/puck/g09_7fca9437-c058-41bc-9d33-8f8ae719a6b4/Gau-111370.chk"
 -----
 titel
 -----
 Charge =  0 Multiplicity = 1

                         Standard orientation:
 ---------------------------------------------------------------------
 Center     Atomic      Atomic             Coordinates (Angstroms)
 Number     Number       Type             X           Y           Z
 ---------------------------------------------------------------------
      1          6           0        2.053072   -1.127972    0.232733
      2          6           0        1.036097   -0.446749   -0.674595
      3          6           0       -0.315156   -1.160375   -0.738829
      4          6           0       -1.343164   -0.015139   -0.979751
      5          8           0       -0.609742    1.197936   -1.095643
      6          6           0        0.245019    0.725063   -0.008812
      7          6           0        0.871278    1.820455    0.794610
      8          6           0       -0.885050   -0.346422    0.398641
      9          8           0       -1.465972   -0.762150    1.565977
     10          1           0        2.925514   -0.487482    0.402267
     11          1           0        1.613645   -1.372988    1.206145
     12          1           0        2.410879   -2.061997   -0.212694
     13          1           0        1.484792   -0.165951   -1.634810
     14          1           0       -0.536518   -2.187427   -1.001706
     15          1           0       -2.277612   -0.131978   -1.512321
     16          1           0        0.107033    2.471595    1.229265
     17          1           0        1.479318    1.408607    1.605031
     18          1           0        1.517174    2.434900    0.157290
     19          1           0       -2.091098   -0.086736    1.854881
 ---------------------------------------------------------------------

 SCF Done:  E(RB3LYP) =  -423.119626103     A.U. after    1 cycles

 The electronic state is 1-A.
 Alpha  occ. eigenvalues --  -19.16279 -19.13109 -10.23785 -10.23721 -10.23139
 Alpha  occ. eigenvalues --  -10.18747 -10.18691 -10.18157 -10.17464  -1.06290
 Alpha  occ. eigenvalues --   -1.03650  -0.85058  -0.76924  -0.72708  -0.65132
 Alpha  occ. eigenvalues --   -0.61402  -0.57468  -0.54757  -0.50035  -0.48405
 Alpha  occ. eigenvalues --   -0.46629  -0.42665  -0.42303  -0.40811  -0.39546
 Alpha  occ. eigenvalues --   -0.38976  -0.37896  -0.36587  -0.34901  -0.33754
 Alpha  occ. eigenvalues --   -0.31936  -0.25542  -0.25375  -0.22325
 Alpha virt. eigenvalues --    0.06563   0.08908   0.09965   0.11935   0.13206
 Alpha virt. eigenvalues --    0.14261   0.14663   0.15386   0.16321   0.16978
 Alpha virt. eigenvalues --    0.17515   0.19363   0.20036   0.21659   0.21774

 Mulliken charges:
               1
     1  C   -0.414758
     2  C   -0.021552
     3  C   -0.158349
     4  C   -0.026208
     5  O   -0.323303
     6  C    0.331630
     7  C   -0.513085
     8  C    0.266826
     9  O   -0.450618
    10  H    0.113049
    11  H    0.126110
    12  H    0.116969
    13  H    0.070175
    14  H    0.091015
    15  H    0.109588
    16  H    0.124348
    17  H    0.130296
    18  H    0.134067
    19  H    0.293801
 Sum of Mulliken charges =   0.00000

 Dipole moment (field-independent basis, Debye):
    X=             -0.2854    Y=             -0.0139    Z=              0.8693  Tot=              0.9151
 Quadrupole moment (field-independent basis, Debye-Ang):
   XX=            -47.9855   YY=            -54.8416   ZZ=            -54.2266
   XY=             -0.1128   XZ=             -1.0932   YZ=              5.3938

  Exact polarizability:  79.996   0.023  74.266   1.177   3.615  69.370
 Approx polarizability: 110.760  -0.446 109.763  -0.096   0.399 108.080

                      1                      2                      3
                      A                      A                      A
 Frequencies --    148.3721               165.0338               178.0415
 Red. masses --      3.2154                 1.0564                 3.4300
 Frc consts  --      0.0417                 0.0170                 0.0641
 IR Inten    --      1.3008                 0.6008                 0.5927

                      4                      5                      6
                      A                      A                      A
 Frequencies --    222.9817               245.8972               308.1507
 Red. masses --      2.3878                 1.0344                 2.2026
 Frc consts  --      0.0699                 0.0369                 0.1232
 IR Inten    --      0.2697                 0.0243                27.7716

                      7                      8                      9
                      A                      A                      A
 Frequencies --    367.2188               375.5279               427.2475
 Red. masses --      1.6636                 2.1202                 3.0760
 Frc consts  --      0.1322                 0.1762                 0.3308
 IR Inten    --     39.5578                25.9008                21.1648

                     10                     11                     12
                      A                      A                      A
 Frequencies --    499.5479               578.1119               611.9676
 Red. masses --      4.6250                 3.6333                 4.0375
 Frc consts  --      0.6800                 0.7154                 0.8909
 IR Inten    --      3.5093                 6.5865                13.3356

                     13                     14                     15
                      A                      A                      A
 Frequencies --    641.9273               749.5245               788.2142
 Red. masses --      3.4885                 3.3004                 4.5842
 Frc consts  --      0.8470                 1.0924                 1.6780
 IR Inten    --      2.2530                 1.2990                 2.9671

                     16                     17                     18
                      A                      A                      A
 Frequencies --    812.6689               851.7334               875.9136
 Red. masses --      2.4583                 2.6147                 1.7753
 Frc consts  --      0.9566                 1.1176                 0.8025
 IR Inten    --      5.0997                16.6043                 8.1269

                     19                     20                     21
                      A                      A                      A
 Frequencies --    916.6897               938.9535              1013.1059
 Red. masses --      1.7573                 1.5520                 2.6625
 Frc consts  --      0.8700                 0.8062                 1.6101
 IR Inten    --     10.7845                21.9625                28.1199

                     22                     23                     24
                      A                      A                      A
 Frequencies --   1018.1285              1037.8852              1055.4538
 Red. masses --      1.7424                 2.0625                 1.6284
 Frc consts  --      1.0642                 1.3090                 1.0688
 IR Inten    --     12.7158                12.2786                 2.5510

                     25                     26                     27
                      A                      A                      A
 Frequencies --   1095.7499              1126.2953              1137.1315
 Red. masses --      1.6227                 2.4317                 2.3372
 Frc consts  --      1.1479                 1.8175                 1.7806
 IR Inten    --      8.9375                16.6759                 8.5985

                     28                     29                     30
                      A                      A                      A
 Frequencies --   1145.4338              1217.0287              1255.5330
 Red. masses --      2.6104                 2.1482                 1.8205
 Frc consts  --      2.0179                 1.8747                 1.6908
 IR Inten    --      1.4727                46.2950                11.8258

                     31                     32                     33
                      A                      A                      A
 Frequencies --   1267.9919              1302.8461              1337.7842
 Red. masses --      1.7298                 1.6519                 2.1789
 Frc consts  --      1.6386                 1.6521                 2.2976
 IR Inten    --     23.2633                55.7404                32.1245

                     34                     35                     36
                      A                      A                      A
 Frequencies --   1360.4972              1410.0603              1413.5901
 Red. masses --      1.7144                 1.3004                 1.5149
 Frc consts  --      1.8697                 1.5234                 1.7836
 IR Inten    --     12.0067                 2.1694                11.5526

                     37                     38                     39
                      A                      A                      A
 Frequencies --   1472.3055              1482.6146              1490.4196
 Red. masses --      1.4290                 1.3069                 1.4609
 Frc consts  --      1.8251                 1.6926                 1.9120
 IR Inten    --      4.4937                19.3256                35.6162

                     40                     41                     42
                      A                      A                      A
 Frequencies --   1497.2066              1501.8047              3027.0435
 Red. masses --      1.0729                 1.0675                 1.0351
 Frc consts  --      1.4171                 1.4186                 5.5882
 IR Inten    --      3.7073                 8.0833                24.0457

                     43                     44                     45
                      A                      A                      A
 Frequencies --   3035.6922              3038.3694              3093.9689
 Red. masses --      1.0432                 1.0763                 1.1012
 Frc consts  --      5.6643                 5.8539                 6.2110
 IR Inten    --     17.7207                30.9098                25.6034

                     46                     47                     48
                      A                      A                      A
 Frequencies --   3098.3746              3102.6781              3118.8046
 Red. masses --      1.1010                 1.0999                 1.1008
 Frc consts  --      6.2274                 6.2385                 6.3084
 IR Inten    --     27.6527                18.1910                13.2951

                     49                     50                     51
                      A                      A                      A
 Frequencies --   3195.5526              3211.8512              3780.4110
 Red. masses --      1.0925                 1.0959                 1.0660
 Frc consts  --      6.5730                 6.6612                 8.9758
 IR Inten    --      6.8832                17.4114                25.4249

 - Thermochemistry -
 -------------------
 Temperature   298.150 Kelvin.  Pressure   1.00000 Atm.
 Atom     1 has atomic number  6 and mass  12.00000

 Molecular mass:   126.06808 amu.
 Principal axes and moments of inertia in atomic units:
                           1         2         3
     Eigenvalues --   879.129911019.090531141.98213
           X            0.99827  -0.04466   0.03835
           Y            0.03627   0.97977   0.19681
           Z           -0.04637  -0.19507   0.97969
 This molecule is an asymmetric top.
 Rotational symmetry number  1.
 Warning -- assumption of classical behavior for rotation
           may cause significant error
 Rotational temperatures (Kelvin)      0.09852     0.08499     0.07585
 Rotational constants (GHZ):           2.05287     1.77093     1.58036
 Zero-point vibrational energy     412982.8 (Joules/Mol)
                                   98.70526 (Kcal/Mol)
 Warning -- explicit consideration of  12 degrees of freedom as
           vibrations may cause significant error
 Vibrational temperatures:    213.47   237.45   256.16   320.82   353.79
          (Kelvin)            443.36   528.35   540.30   614.71   718.74
                              831.77   880.48   923.59  1078.40  1134.06
                             1169.25  1225.45  1260.24  1318.91  1350.94
                             1457.63  1464.86  1493.28  1518.56  1576.54
                             1620.49  1636.08  1648.02  1751.03  1806.43
                             1824.36  1874.50  1924.77  1957.45  2028.76
                             2033.84  2118.32  2133.15  2144.38  2154.14
                             2160.76  4355.23  4367.68  4371.53  4451.53
                             4457.86  4464.06  4487.26  4597.68  4621.13
                             5439.16

 Zero-point correction=                           0.157297 (Hartree/Particle)
 Thermal correction to Energy=                    0.165870
 Thermal correction to Enthalpy=                  0.166815
 Thermal correction to Gibbs Free Energy=         0.124781
 Sum of electronic and zero-point Energies=           -422.962329
 Sum of electronic and thermal Energies=              -422.953756
 Sum of electronic and thermal Enthalpies=            -422.952812
 Sum of electronic and thermal Free Energies=         -422.994845

                     E (Thermal)             CV                S
                      KCal/Mol        Cal/Mol-Kelvin    Cal/Mol-Kelvin
 Total                  104.085             33.611             88.467
 Electronic               0.000              0.000              0.000
 Translational            0.889              2.981             40.409
 Rotational               0.889              2.981             28.416
 Vibrational            102.308             27.650             19.642
 Vibration     1          0.618              1.904              2.693
 Vibration     2          0.623              1.885              2.491
 Vibration     3          0.628              1.869              2.349
 Vibration     4          0.649              1.806              1.935
 Vibration     5          0.660              1.770              1.760
 Vibration     6          0.698              1.658              1.372
 Vibration     7          0.740              1.540              1.091
 Vibration     8          0.746              1.522              1.057
 Vibration     9          0.789              1.411              0.868
 Vibration    10          0.855              1.251              0.659
 Vibration    11          0.935              1.079              0.489
 Vibration    12          0.971              1.007              0.430

 Optimization completed.
    -- Stationary point found.
 Normal termination of Gaussian 09 at Mon Jan 27 23:02:42 2020.
