 Gaussian 09, Revision D.01,
 Gaussian 09:  ES64L-G09RevD.01 24-Apr-2013

 -----------------------------
 # b3lyp 6-31G(2df,p) opt Freq
 -----------------------------

 -----
 titel
 -----
 Symbolic Z-matrix:
 Charge =  0 Multiplicity = 1

 SCF Done:  E(RB3LYP) =  -423.119743607     A.U. after   13 cycles
 Optimization completed.
    -- Stationary point found.
 Normal termination of Gaussian 09 at Tue Jan 28 08:19:34 2020.

 ----------------------------------------------------------------------
 #N Geom=AllCheck Guess=TCheck SCRF=Check GenChk RB3LYP/6-31G(2df,p) Fr
 eq
 ----------------------------------------------------------------------

 Structure from the checkpoint file:  "/scratch/puck/g09_846fe4c1-5d39-4c05-b662-12a90fb24446/Gau-60010.chk"
 -----
 titel
 -----
 Charge =  0 Multiplicity = 1

                         Standard orientation:
 ---------------------------------------------------------------------
 Center     Atomic      Atomic             Coordinates (Angstroms)
 Number     Number       Type             X           Y           Z
 ---------------------------------------------------------------------
      1          8           0        2.906938   -0.989287   -0.176946
      2          6           0        1.619819   -1.088854    0.389361
      3          6           0        0.609629   -0.104789   -0.250116
      4          6           0        1.109808    1.263665   -0.110361
      5          6           0        1.572114    2.364566    0.038217
      6          6           0       -0.778081   -0.269259    0.351544
      7          6           0       -1.700901   -1.370262   -0.138520
      8          6           0       -2.006668    0.080354   -0.423963
      9          8           0       -3.020377    0.726831    0.286794
     10          1           0        3.186440   -0.070508   -0.081088
     11          1           0        1.276688   -2.112393    0.212446
     12          1           0        1.636038   -0.921779    1.478013
     13          1           0        0.564369   -0.346071   -1.321019
     14          1           0        1.948532    3.350982    0.154131
     15          1           0       -0.843340   -0.043348    1.411843
     16          1           0       -1.370861   -2.000099   -0.958821
     17          1           0       -2.313736   -1.869352    0.603817
     18          1           0       -1.865155    0.428555   -1.447779
     19          1           0       -3.865786    0.431137   -0.067293
 ---------------------------------------------------------------------

 SCF Done:  E(RB3LYP) =  -423.119743607     A.U. after    1 cycles

 The electronic state is 1-A.
 Alpha  occ. eigenvalues --  -19.14494 -19.13186 -10.23923 -10.23046 -10.21615
 Alpha  occ. eigenvalues --  -10.19893 -10.18971 -10.18653 -10.17835  -1.03048
 Alpha  occ. eigenvalues --   -1.01624  -0.86302  -0.78892  -0.72433  -0.64582
 Alpha  occ. eigenvalues --   -0.60905  -0.58744  -0.54114  -0.51961  -0.50548
 Alpha  occ. eigenvalues --   -0.48498  -0.47494  -0.43792  -0.42063  -0.39651
 Alpha  occ. eigenvalues --   -0.39079  -0.36814  -0.33660  -0.33267  -0.28886
 Alpha  occ. eigenvalues --   -0.27971  -0.27455  -0.26127  -0.25545
 Alpha virt. eigenvalues --    0.04550   0.04572   0.07907   0.10118   0.10462
 Alpha virt. eigenvalues --    0.10866   0.12467   0.13177   0.14167   0.15410
 Alpha virt. eigenvalues --    0.16443   0.18360   0.19127   0.21981   0.23673

 Mulliken charges:
               1
     1  O   -0.422661
     2  C   -0.055266
     3  C   -0.219946
     4  C    0.311863
     5  C   -0.456851
     6  C   -0.001774
     7  C   -0.339972
     8  C    0.098084
     9  O   -0.426833
    10  H    0.285283
    11  H    0.113189
    12  H    0.092590
    13  H    0.107342
    14  H    0.200554
    15  H    0.107299
    16  H    0.113109
    17  H    0.116955
    18  H    0.089535
    19  H    0.287502
 Sum of Mulliken charges =   0.00000

 Dipole moment (field-independent basis, Debye):
    X=             -1.6095    Y=             -0.0602    Z=             -0.4227  Tot=              1.6652
 Quadrupole moment (field-independent basis, Debye-Ang):
   XX=            -51.1300   YY=            -52.1459   ZZ=            -53.0313
   XY=              8.8834   XZ=              4.2602   YZ=             -0.6659

  Exact polarizability:  86.517   9.734  88.719   1.065   1.669  58.787
 Approx polarizability: 110.784  16.169 136.472   1.459   6.603  91.189

                      1                      2                      3
                      A                      A                      A
 Frequencies --     59.0060                99.3550               110.6965
 Red. masses --      4.0558                 4.6410                 3.4775
 Frc consts  --      0.0083                 0.0270                 0.0251
 IR Inten    --      1.8410                 0.2168                 3.9985

                      4                      5                      6
                      A                      A                      A
 Frequencies --    149.3659               197.5957               267.0730
 Red. masses --      3.7855                 2.4563                 2.8962
 Frc consts  --      0.0498                 0.0565                 0.1217
 IR Inten    --      0.4819                 0.1215                20.4808

                      7                      8                      9
                      A                      A                      A
 Frequencies --    302.7089               329.1858               351.8938
 Red. masses --      1.9865                 2.3403                 2.8221
 Frc consts  --      0.1072                 0.1494                 0.2059
 IR Inten    --     37.7971                19.4456                35.5834

                     10                     11                     12
                      A                      A                      A
 Frequencies --    415.1422               432.7059               471.7765
 Red. masses --      1.2218                 2.8731                 2.8567
 Frc consts  --      0.1241                 0.3169                 0.3746
 IR Inten    --     94.9056                28.3277                 1.6414

                     13                     14                     15
                      A                      A                      A
 Frequencies --    520.0939               586.4296               631.5285
 Red. masses --      4.0136                 3.4898                 1.2158
 Frc consts  --      0.6397                 0.7071                 0.2857
 IR Inten    --      9.0227                13.0462                47.4294

                     16                     17                     18
                      A                      A                      A
 Frequencies --    655.2028               812.3938               818.8219
 Red. masses --      1.2238                 2.1903                 1.8704
 Frc consts  --      0.3095                 0.8517                 0.7389
 IR Inten    --     44.8214                 2.7895                 2.3463

                     19                     20                     21
                      A                      A                      A
 Frequencies --    884.0166               926.7862               955.2526
 Red. masses --      1.7008                 3.2713                 2.5305
 Frc consts  --      0.7831                 1.6555                 1.3605
 IR Inten    --     11.4782                19.5665                 2.0662

                     22                     23                     24
                      A                      A                      A
 Frequencies --   1024.6346              1046.8370              1068.6356
 Red. masses --      1.6280                 1.6703                 2.4269
 Frc consts  --      1.0070                 1.0785                 1.6329
 IR Inten    --      6.0889                 6.0026                21.4673

                     25                     26                     27
                      A                      A                      A
 Frequencies --   1084.9561              1094.2306              1104.4760
 Red. masses --      3.4753                 2.3681                 1.1314
 Frc consts  --      2.4103                 1.6706                 0.8132
 IR Inten    --    117.1066                 6.1447                 1.6253

                     28                     29                     30
                      A                      A                      A
 Frequencies --   1156.4139              1186.9196              1206.5740
 Red. masses --      2.4240                 2.2133                 1.1877
 Frc consts  --      1.9099                 1.8371                 1.0187
 IR Inten    --      0.9083                22.2271                17.5696

                     31                     32                     33
                      A                      A                      A
 Frequencies --   1220.3623              1255.9546              1303.4730
 Red. masses --      1.7212                 1.2172                 1.2174
 Frc consts  --      1.5103                 1.1312                 1.2186
 IR Inten    --     45.2642                 1.6123                66.3945

                     34                     35                     36
                      A                      A                      A
 Frequencies --   1328.4254              1375.0305              1384.1306
 Red. masses --      1.3800                 1.4010                 1.2172
 Frc consts  --      1.4348                 1.5607                 1.3739
 IR Inten    --     12.8594                 2.9583                 0.8882

                     37                     38                     39
                      A                      A                      A
 Frequencies --   1426.5849              1434.3823              1494.3363
 Red. masses --      1.2272                 1.2615                 1.8645
 Frc consts  --      1.4715                 1.5292                 2.4531
 IR Inten    --     69.9463                 6.3581                15.6430

                     40                     41                     42
                      A                      A                      A
 Frequencies --   1505.2402              2226.6095              2980.1182
 Red. masses --      1.0902                 5.9343                 1.0698
 Frc consts  --      1.4554                17.3344                 5.5978
 IR Inten    --      0.8907                 1.5190                44.9525

                     43                     44                     45
                      A                      A                      A
 Frequencies --   3017.0493              3088.3197              3093.8420
 Red. masses --      1.0810                 1.0937                 1.0870
 Frc consts  --      5.7977                 6.1458                 6.1305
 IR Inten    --     16.4138                27.3487                29.2201

                     46                     47                     48
                      A                      A                      A
 Frequencies --   3128.2452              3158.9131              3219.8371
 Red. masses --      1.0551                 1.0878                 1.1161
 Frc consts  --      6.0834                 6.3954                 6.8172
 IR Inten    --      9.7257                 4.3253                 7.9892

                     49                     50                     51
                      A                      A                      A
 Frequencies --   3501.6648              3778.7663              3803.1176
 Red. masses --      1.1613                 1.0655                 1.0661
 Frc consts  --      8.3900                 8.9640                 9.0855
 IR Inten    --     69.8214                26.0855                21.9183

 - Thermochemistry -
 -------------------
 Temperature   298.150 Kelvin.  Pressure   1.00000 Atm.
 Atom     1 has atomic number  8 and mass  15.99491

 Molecular mass:   126.06808 amu.
 Principal axes and moments of inertia in atomic units:
                           1         2         3
     Eigenvalues --   680.510981839.246192392.30036
           X            0.99977   0.02010   0.00753
           Y           -0.02007   0.99979  -0.00449
           Z           -0.00762   0.00434   0.99996
 This molecule is an asymmetric top.
 Rotational symmetry number  1.
 Warning -- assumption of classical behavior for rotation
           may cause significant error
 Rotational temperatures (Kelvin)      0.12728     0.04709     0.03621
 Rotational constants (GHZ):           2.65204     0.98124     0.75440
 Zero-point vibrational energy     410768.4 (Joules/Mol)
                                   98.17600 (Kcal/Mol)
 Warning -- explicit consideration of  14 degrees of freedom as
           vibrations may cause significant error
 Vibrational temperatures:     84.90   142.95   159.27   214.90   284.30
          (Kelvin)            384.26   435.53   473.62   506.30   597.30
                              622.57   678.78   748.30   843.74   908.63
                              942.69  1168.85  1178.10  1271.90  1333.44
                             1374.39  1474.22  1506.16  1537.53  1561.01
                             1574.35  1589.09  1663.82  1707.71  1735.99
                             1755.83  1807.04  1875.40  1911.31  1978.36
                             1991.45  2052.53  2063.75  2150.01  2165.70
                             3203.59  4287.72  4340.86  4443.40  4451.34
                             4500.84  4544.97  4632.62  5038.11  5436.80
                             5471.83

 Zero-point correction=                           0.156453 (Hartree/Particle)
 Thermal correction to Energy=                    0.166467
 Thermal correction to Enthalpy=                  0.167412
 Thermal correction to Gibbs Free Energy=         0.121197
 Sum of electronic and zero-point Energies=           -422.963290
 Sum of electronic and thermal Energies=              -422.953276
 Sum of electronic and thermal Enthalpies=            -422.952332
 Sum of electronic and thermal Free Energies=         -422.998547

                     E (Thermal)             CV                S
                      KCal/Mol        Cal/Mol-Kelvin    Cal/Mol-Kelvin
 Total                  104.460             36.836             97.268
 Electronic               0.000              0.000              0.000
 Translational            0.889              2.981             40.409
 Rotational               0.889              2.981             29.483
 Vibrational            102.682             30.875             27.376
 Vibration     1          0.596              1.974              4.490
 Vibration     2          0.604              1.950              3.467
 Vibration     3          0.607              1.941              3.257
 Vibration     4          0.618              1.903              2.680
 Vibration     5          0.637              1.843              2.155
 Vibration     6          0.672              1.734              1.615
 Vibration     7          0.694              1.669              1.402
 Vibration     8          0.712              1.617              1.264
 Vibration     9          0.728              1.571              1.158
 Vibration    10          0.779              1.437              0.909
 Vibration    11          0.794              1.399              0.850
 Vibration    12          0.829              1.313              0.733
 Vibration    13          0.875              1.205              0.610
 Vibration    14          0.944              1.061              0.474

 Normal termination of Gaussian 09 at Tue Jan 28 10:07:19 2020.
