 Gaussian 09, Revision D.01,
 Gaussian 09:  ES64L-G09RevD.01 24-Apr-2013

 -----------------------------
 # b3lyp 6-31G(2df,p) opt Freq
 -----------------------------

 -----
 titel
 -----
 Symbolic Z-matrix:
 Charge =  0 Multiplicity = 1

 SCF Done:  E(RB3LYP) =  -423.106435585     A.U. after   13 cycles
 Optimization completed.
    -- Stationary point found.
 Normal termination of Gaussian 09 at Mon Jan 27 22:02:44 2020.

 ----------------------------------------------------------------------
 #N Geom=AllCheck Guess=TCheck SCRF=Check GenChk RB3LYP/6-31G(2df,p) Fr
 eq
 ----------------------------------------------------------------------

 Structure from the checkpoint file:  "/scratch/puck/g09_195487e3-3650-41e2-a615-0fbbbf8919e8/Gau-98646.chk"
 -----
 titel
 -----
 Charge =  0 Multiplicity = 1

                         Standard orientation:
 ---------------------------------------------------------------------
 Center     Atomic      Atomic             Coordinates (Angstroms)
 Number     Number       Type             X           Y           Z
 ---------------------------------------------------------------------
      1          6           0       -0.150230    2.076458    0.103812
      2          6           0       -0.261441    0.575093    0.171032
      3          6           0       -1.558786   -0.224698    0.426231
      4          8           0       -2.632762   -0.109804   -0.472963
      5          6           0       -0.500393   -1.321772    0.242627
      6          6           0        0.571701   -0.473005    1.012684
      7          6           0        1.596239   -0.702469   -0.116966
      8          8           0        2.679355    0.168058   -0.306195
      9          6           0        0.260280   -0.508595   -0.867668
     10          1           0       -0.337679    2.527066    1.084697
     11          1           0        0.827254    2.428297   -0.244403
     12          1           0       -0.900446    2.473068   -0.589551
     13          1           0       -1.992632   -0.130736    1.427446
     14          1           0       -2.296420   -0.250680   -1.365057
     15          1           0       -0.597835   -2.406988    0.283735
     16          1           0        0.715203   -0.458877    2.094664
     17          1           0        2.014314   -1.712702   -0.172181
     18          1           0        2.377364    1.071400   -0.172808
     19          1           0        0.073907   -0.531944   -1.943794
 ---------------------------------------------------------------------

 SCF Done:  E(RB3LYP) =  -423.106435585     A.U. after    1 cycles

 The electronic state is 1-A.
 Alpha  occ. eigenvalues --  -19.13846 -19.13764 -10.23556 -10.23205 -10.20751
 Alpha  occ. eigenvalues --  -10.20133 -10.20052 -10.20027 -10.18883  -1.02710
 Alpha  occ. eigenvalues --   -1.02129  -0.93128  -0.74725  -0.71798  -0.64187
 Alpha  occ. eigenvalues --   -0.61861  -0.60728  -0.55201  -0.50707  -0.47272
 Alpha  occ. eigenvalues --   -0.45931  -0.45577  -0.43014  -0.41685  -0.41567
 Alpha  occ. eigenvalues --   -0.38011  -0.36993  -0.35626  -0.31887  -0.31727
 Alpha  occ. eigenvalues --   -0.30028  -0.28101  -0.25898  -0.25364
 Alpha virt. eigenvalues --    0.06138   0.07147   0.11207   0.11724   0.12558
 Alpha virt. eigenvalues --    0.12857   0.13766   0.14504   0.15752   0.16356
 Alpha virt. eigenvalues --    0.17321   0.18312   0.19987   0.21257   0.22299

 Mulliken charges:
               1
     1  C   -0.535015
     2  C    0.287037
     3  C    0.104842
     4  O   -0.449180
     5  C   -0.100108
     6  C   -0.150231
     7  C    0.145595
     8  O   -0.444514
     9  C   -0.175202
    10  H    0.129323
    11  H    0.109181
    12  H    0.133757
    13  H    0.080745
    14  H    0.281248
    15  H    0.075509
    16  H    0.072847
    17  H    0.084206
    18  H    0.281805
    19  H    0.068157
 Sum of Mulliken charges =   0.00000

 Dipole moment (field-independent basis, Debye):
    X=             -0.0919    Y=              0.5025    Z=             -0.0906  Tot=              0.5188
 Quadrupole moment (field-independent basis, Debye-Ang):
   XX=            -66.0986   YY=            -49.8679   ZZ=            -49.9661
   XY=              1.5702   XZ=              2.0480   YZ=              0.4397

  Exact polarizability:  80.353  -1.055  76.707  -0.112   0.266  68.684
 Approx polarizability: 115.751  -0.655 111.201   0.378   0.506 110.001

                      1                      2                      3
                      A                      A                      A
 Frequencies --    136.9223               170.6003               197.5831
 Red. masses --      1.4958                 2.7752                 2.2763
 Frc consts  --      0.0165                 0.0476                 0.0524
 IR Inten    --      5.1677                 1.7432                 1.2668

                      4                      5                      6
                      A                      A                      A
 Frequencies --    211.0387               242.2339               299.5340
 Red. masses --      2.6912                 1.3946                 1.1717
 Frc consts  --      0.0706                 0.0482                 0.0619
 IR Inten    --      3.2157                46.8169                69.8961

                      7                      8                      9
                      A                      A                      A
 Frequencies --    313.9608               378.0933               429.4258
 Red. masses --      1.9911                 3.5691                 3.8866
 Frc consts  --      0.1156                 0.3006                 0.4223
 IR Inten    --     14.0636                11.6821                 1.5895

                     10                     11                     12
                      A                      A                      A
 Frequencies --    527.1437               601.5175               648.3656
 Red. masses --      4.2540                 3.2919                 3.6621
 Frc consts  --      0.6965                 0.7018                 0.9070
 IR Inten    --      2.3808                 6.5900                 1.5734

                     13                     14                     15
                      A                      A                      A
 Frequencies --    716.0393               794.7401               846.3200
 Red. masses --      3.8786                 2.8589                 2.0735
 Frc consts  --      1.1717                 1.0639                 0.8750
 IR Inten    --      1.3859                 9.6408                 0.7423

                     16                     17                     18
                      A                      A                      A
 Frequencies --    852.1736               867.3417               893.4371
 Red. masses --      2.2672                 1.8819                 2.3183
 Frc consts  --      0.9701                 0.8341                 1.0903
 IR Inten    --      6.4035                 5.2130                27.6507

                     19                     20                     21
                      A                      A                      A
 Frequencies --    922.3876               950.3962              1003.3754
 Red. masses --      1.8426                 1.6967                 1.5667
 Frc consts  --      0.9237                 0.9029                 0.9293
 IR Inten    --      0.6696                 2.8607                 1.0749

                     22                     23                     24
                      A                      A                      A
 Frequencies --   1048.0245              1076.6762              1111.8923
 Red. masses --      2.9450                 3.0240                 1.5605
 Frc consts  --      1.9058                 2.0654                 1.1367
 IR Inten    --     33.2628               217.9035                 7.7232

                     25                     26                     27
                      A                      A                      A
 Frequencies --   1113.7812              1126.6583              1139.8040
 Red. masses --      2.1323                 1.9806                 2.0842
 Frc consts  --      1.5585                 1.4813                 1.5953
 IR Inten    --     26.9085                 9.1164                 3.6590

                     28                     29                     30
                      A                      A                      A
 Frequencies --   1148.0080              1155.6750              1219.0343
 Red. masses --      1.7920                 1.5279                 1.7504
 Frc consts  --      1.3915                 1.2023                 1.5325
 IR Inten    --      1.7043                18.8797                 1.7252

                     31                     32                     33
                      A                      A                      A
 Frequencies --   1229.7093              1260.2166              1281.6919
 Red. masses --      1.5891                 1.7712                 2.1016
 Frc consts  --      1.4158                 1.6573                 2.0341
 IR Inten    --      1.4031                73.9665                 1.5236

                     34                     35                     36
                      A                      A                      A
 Frequencies --   1284.2494              1293.0557              1343.2431
 Red. masses --      1.5575                 1.8044                 2.4790
 Frc consts  --      1.5135                 1.7776                 2.6353
 IR Inten    --      8.6042                 3.5880                 3.9547

                     37                     38                     39
                      A                      A                      A
 Frequencies --   1411.3949              1446.8380              1449.3494
 Red. masses --      1.3033                 1.3464                 1.3086
 Frc consts  --      1.5296                 1.6606                 1.6195
 IR Inten    --      3.5935                40.5945               131.5327

                     40                     41                     42
                      A                      A                      A
 Frequencies --   1478.0735              1496.1099              3024.2043
 Red. masses --      1.0454                 1.0535                 1.0357
 Frc consts  --      1.3457                 1.3893                 5.5811
 IR Inten    --      6.2397                10.7493                27.7282

                     43                     44                     45
                      A                      A                      A
 Frequencies --   3060.2575              3063.1977              3084.6693
 Red. masses --      1.0855                 1.0846                 1.0905
 Frc consts  --      5.9895                 5.9963                 6.1137
 IR Inten    --     46.7661                44.4051                57.4669

                     46                     47                     48
                      A                      A                      A
 Frequencies --   3085.9476              3093.7576              3098.8503
 Red. masses --      1.0991                 1.1007                 1.0891
 Frc consts  --      6.1666                 6.2071                 6.1620
 IR Inten    --     28.7869                14.4415                34.8434

                     49                     50                     51
                      A                      A                      A
 Frequencies --   3115.8013              3800.8490              3833.5597
 Red. masses --      1.0942                 1.0653                 1.0652
 Frc consts  --      6.2585                 9.0674                 9.2231
 IR Inten    --     48.5940                 9.9448                15.1081

 - Thermochemistry -
 -------------------
 Temperature   298.150 Kelvin.  Pressure   1.00000 Atm.
 Atom     1 has atomic number  6 and mass  12.00000

 Molecular mass:   126.06808 amu.
 Principal axes and moments of inertia in atomic units:
                           1         2         3
     Eigenvalues --   580.232841284.541821551.64026
           X            1.00000  -0.00035   0.00249
           Y            0.00033   0.99999   0.00470
           Z           -0.00249  -0.00470   0.99999
 This molecule is an asymmetric top.
 Rotational symmetry number  1.
 Warning -- assumption of classical behavior for rotation
           may cause significant error
 Rotational temperatures (Kelvin)      0.14927     0.06743     0.05582
 Rotational constants (GHZ):           3.11037     1.40497     1.16312
 Zero-point vibrational energy     414967.9 (Joules/Mol)
                                   99.17970 (Kcal/Mol)
 Warning -- explicit consideration of  11 degrees of freedom as
           vibrations may cause significant error
 Vibrational temperatures:    197.00   245.46   284.28   303.64   348.52
          (Kelvin)            430.96   451.72   543.99   617.85   758.44
                              865.45   932.85  1030.22  1143.45  1217.66
                             1226.09  1247.91  1285.46  1327.11  1367.41
                             1443.63  1507.87  1549.10  1599.76  1602.48
                             1621.01  1639.92  1651.73  1662.76  1753.92
                             1769.28  1813.17  1844.07  1847.75  1860.42
                             1932.62  2030.68  2081.67  2085.29  2126.62
                             2152.57  4351.15  4403.02  4407.25  4438.15
                             4439.98  4451.22  4458.55  4482.94  5468.57
                             5515.63

 Zero-point correction=                           0.158053 (Hartree/Particle)
 Thermal correction to Energy=                    0.166573
 Thermal correction to Enthalpy=                  0.167518
 Thermal correction to Gibbs Free Energy=         0.125459
 Sum of electronic and zero-point Energies=           -422.948383
 Sum of electronic and thermal Energies=              -422.939862
 Sum of electronic and thermal Enthalpies=            -422.938918
 Sum of electronic and thermal Free Energies=         -422.980977

                     E (Thermal)             CV                S
                      KCal/Mol        Cal/Mol-Kelvin    Cal/Mol-Kelvin
 Total                  104.526             33.261             88.520
 Electronic               0.000              0.000              0.000
 Translational            0.889              2.981             40.409
 Rotational               0.889              2.981             28.538
 Vibrational            102.749             27.299             19.573
 Vibration     1          0.614              1.916              2.846
 Vibration     2          0.626              1.879              2.429
 Vibration     3          0.637              1.843              2.155
 Vibration     4          0.643              1.824              2.035
 Vibration     5          0.658              1.776              1.786
 Vibration     6          0.692              1.675              1.420
 Vibration     7          0.702              1.647              1.341
 Vibration     8          0.748              1.517              1.047
 Vibration     9          0.791              1.406              0.861
 Vibration    10          0.882              1.190              0.594
 Vibration    11          0.960              1.029              0.447

 Normal termination of Gaussian 09 at Mon Jan 27 22:53:52 2020.
