 Gaussian 09, Revision D.01,
 Gaussian 09:  ES64L-G09RevD.01 24-Apr-2013

 -----------------------------
 # b3lyp 6-31G(2df,p) opt Freq
 -----------------------------

 -----
 titel
 -----
 Symbolic Z-matrix:
 Charge =  0 Multiplicity = 1

 SCF Done:  E(RB3LYP) =  -423.099911520     A.U. after   13 cycles
 Optimization completed.
    -- Stationary point found.
 Normal termination of Gaussian 09 at Tue Jan 28 08:23:59 2020.

 ----------------------------------------------------------------------
 #N Geom=AllCheck Guess=TCheck SCRF=Check GenChk RB3LYP/6-31G(2df,p) Fr
 eq
 ----------------------------------------------------------------------

 Structure from the checkpoint file:  "/scratch/puck/g09_3c2192d2-4f1f-46ae-8eb6-8a1b490215e9/Gau-81451.chk"
 -----
 titel
 -----
 Charge =  0 Multiplicity = 1

                         Standard orientation:
 ---------------------------------------------------------------------
 Center     Atomic      Atomic             Coordinates (Angstroms)
 Number     Number       Type             X           Y           Z
 ---------------------------------------------------------------------
      1          8           0       -2.654281   -0.513648   -0.521355
      2          6           0       -1.660933   -0.701030    0.489794
      3          6           0       -0.538121    0.272070    0.168157
      4          8           0       -1.059397    1.578086    0.075431
      5          6           0        0.772123    0.187132    0.962425
      6          6           0        1.294853   -1.035956    0.126475
      7          6           0        2.638985   -0.345494   -0.174047
      8          6           0        1.601974    0.791776   -0.227491
      9          6           0        0.518147   -0.129687   -0.892828
     10          1           0       -3.470924   -0.928664   -0.231234
     11          1           0       -2.067501   -0.464510    1.484123
     12          1           0       -1.298229   -1.737583    0.499892
     13          1           0       -1.895936    1.490036   -0.399589
     14          1           0        0.941102    0.368528    2.025628
     15          1           0        1.100723   -2.088938    0.334709
     16          1           0        3.368841   -0.311722    0.641699
     17          1           0        3.129205   -0.612033   -1.116142
     18          1           0        1.745356    1.852129   -0.425896
     19          1           0        0.394611   -0.315620   -1.960718
 ---------------------------------------------------------------------

 SCF Done:  E(RB3LYP) =  -423.099911520     A.U. after    1 cycles

 The electronic state is 1-A.
 Alpha  occ. eigenvalues --  -19.14771 -19.12201 -10.22909 -10.22782 -10.19637
 Alpha  occ. eigenvalues --  -10.19224 -10.19129 -10.18741 -10.17735  -1.03387
 Alpha  occ. eigenvalues --   -1.00390  -0.92772  -0.74665  -0.68367  -0.63082
 Alpha  occ. eigenvalues --   -0.62380  -0.57370  -0.52310  -0.50149  -0.49840
 Alpha  occ. eigenvalues --   -0.48071  -0.46674  -0.43569  -0.42700  -0.37807
 Alpha  occ. eigenvalues --   -0.36166  -0.32981  -0.32324  -0.30010  -0.29877
 Alpha  occ. eigenvalues --   -0.29721  -0.28680  -0.27896  -0.24650
 Alpha virt. eigenvalues --    0.06085   0.10199   0.11429   0.12434   0.13103
 Alpha virt. eigenvalues --    0.14361   0.14805   0.15521   0.16316   0.18023
 Alpha virt. eigenvalues --    0.18364   0.19353   0.19747   0.20197   0.21280

 Mulliken charges:
               1
     1  O   -0.436323
     2  C   -0.169096
     3  C    0.462791
     4  O   -0.504464
     5  C   -0.107867
     6  C   -0.057028
     7  C   -0.273292
     8  C   -0.040996
     9  C   -0.106793
    10  H    0.294082
    11  H    0.094491
    12  H    0.093732
    13  H    0.283642
    14  H    0.065921
    15  H    0.067380
    16  H    0.089948
    17  H    0.090611
    18  H    0.083710
    19  H    0.069551
 Sum of Mulliken charges =   0.00000

 Dipole moment (field-independent basis, Debye):
    X=             -1.2071    Y=             -1.8055    Z=              0.5760  Tot=              2.2469
 Quadrupole moment (field-independent basis, Debye-Ang):
   XX=            -45.7921   YY=            -54.6876   ZZ=            -52.9452
   XY=              3.0307   XZ=             -1.4693   YZ=             -1.6838

  Exact polarizability:  90.604  -0.487  68.823  -0.323  -0.626  67.488
 Approx polarizability: 115.964  -1.276 108.179   1.798  -0.625 107.197

                      1                      2                      3
                      A                      A                      A
 Frequencies --    102.7094               175.3760               221.8007
 Red. masses --      3.9727                 3.6654                 2.6591
 Frc consts  --      0.0247                 0.0664                 0.0771
 IR Inten    --      1.4144                 2.2067                16.0492

                      4                      5                      6
                      A                      A                      A
 Frequencies --    258.3155               312.6280               356.1566
 Red. masses --      1.1806                 3.9307                 2.7234
 Frc consts  --      0.0464                 0.2264                 0.2035
 IR Inten    --     69.1178                 8.4276                 1.2402

                      7                      8                      9
                      A                      A                      A
 Frequencies --    395.7540               472.2138               508.5858
 Red. masses --      3.5030                 1.1202                 2.5184
 Frc consts  --      0.3232                 0.1472                 0.3838
 IR Inten    --      6.4791                88.5771                 6.3542

                     10                     11                     12
                      A                      A                      A
 Frequencies --    562.3965               685.7270               751.3543
 Red. masses --      4.1636                 3.4409                 3.7505
 Frc consts  --      0.7759                 0.9533                 1.2475
 IR Inten    --     18.9116                15.2627                 2.1901

                     13                     14                     15
                      A                      A                      A
 Frequencies --    818.0262               844.2002               851.0002
 Red. masses --      2.3510                 2.0807                 1.9416
 Frc consts  --      0.9269                 0.8737                 0.8285
 IR Inten    --      0.5946                 0.4446                 0.8353

                     16                     17                     18
                      A                      A                      A
 Frequencies --    879.4000               918.3545               926.1792
 Red. masses --      2.0892                 2.3075                 2.2141
 Frc consts  --      0.9519                 1.1466                 1.1190
 IR Inten    --      1.6028                 2.9928                 6.3317

                     19                     20                     21
                      A                      A                      A
 Frequencies --    965.6358              1000.1333              1011.1174
 Red. masses --      1.0907                 4.6000                 2.2175
 Frc consts  --      0.5992                 2.7109                 1.3357
 IR Inten    --      0.2632                36.7694                44.2335

                     22                     23                     24
                      A                      A                      A
 Frequencies --   1030.5935              1061.6936              1067.5512
 Red. masses --      1.4554                 2.1715                 1.5027
 Frc consts  --      0.9107                 1.4421                 1.0090
 IR Inten    --     13.6622                15.2441                 4.7942

                     25                     26                     27
                      A                      A                      A
 Frequencies --   1084.4804              1137.2650              1144.1499
 Red. masses --      2.3555                 2.0097                 1.6304
 Frc consts  --      1.6322                 1.5315                 1.2575
 IR Inten    --     19.3858                16.9428                 4.6023

                     28                     29                     30
                      A                      A                      A
 Frequencies --   1152.9152              1154.0695              1165.9053
 Red. masses --      1.9112                 1.6603                 1.7220
 Frc consts  --      1.4968                 1.3029                 1.3792
 IR Inten    --     17.9124                10.0425                 0.1147

                     31                     32                     33
                      A                      A                      A
 Frequencies --   1194.4644              1200.0403              1244.0411
 Red. masses --      1.6217                 1.9309                 1.5644
 Frc consts  --      1.3632                 1.6383                 1.4265
 IR Inten    --     28.2517                26.6776                15.4560

                     34                     35                     36
                      A                      A                      A
 Frequencies --   1246.2099              1264.9567              1303.9593
 Red. masses --      1.4379                 1.3821                 1.6604
 Frc consts  --      1.3158                 1.3030                 1.6633
 IR Inten    --     25.6804                18.1054                67.0617

                     37                     38                     39
                      A                      A                      A
 Frequencies --   1309.9688              1417.2802              1455.3952
 Red. masses --      1.8777                 1.5587                 1.7501
 Frc consts  --      1.8984                 1.8447                 2.1841
 IR Inten    --     28.9828                43.4839                 9.9677

                     40                     41                     42
                      A                      A                      A
 Frequencies --   1506.9387              1513.3277              2990.9818
 Red. masses --      1.0873                 1.1350                 1.0573
 Frc consts  --      1.4548                 1.5315                 5.5731
 IR Inten    --      9.9715                 0.2511                40.3079

                     43                     44                     45
                      A                      A                      A
 Frequencies --   3034.3708              3035.7255              3090.2883
 Red. masses --      1.0595                 1.0993                 1.1095
 Frc consts  --      5.7476                 5.9689                 6.2427
 IR Inten    --     89.2000                21.8486                36.2575

                     46                     47                     48
                      A                      A                      A
 Frequencies --   3091.9308              3098.7922              3108.3774
 Red. masses --      1.0868                 1.0899                 1.0928
 Frc consts  --      6.1217                 6.1663                 6.2209
 IR Inten    --     40.7644                82.6350                37.6180

                     49                     50                     51
                      A                      A                      A
 Frequencies --   3136.4103              3768.5479              3843.2668
 Red. masses --      1.0937                 1.0649                 1.0667
 Frc consts  --      6.3390                 8.9105                 9.2831
 IR Inten    --     29.5208                57.9050                32.9768

 - Thermochemistry -
 -------------------
 Temperature   298.150 Kelvin.  Pressure   1.00000 Atm.
 Atom     1 has atomic number  8 and mass  15.99491

 Molecular mass:   126.06808 amu.
 Principal axes and moments of inertia in atomic units:
                           1         2         3
     Eigenvalues --   465.336941437.696441602.40097
           X            0.99994   0.00607  -0.00863
           Y           -0.00637   0.99938  -0.03464
           Z            0.00842   0.03469   0.99936
 This molecule is an asymmetric top.
 Rotational symmetry number  1.
 Warning -- assumption of classical behavior for rotation
           may cause significant error
 Rotational temperatures (Kelvin)      0.18613     0.06024     0.05405
 Rotational constants (GHZ):           3.87835     1.25530     1.12627
 Zero-point vibrational energy     417921.2 (Joules/Mol)
                                   99.88555 (Kcal/Mol)
 Warning -- explicit consideration of  10 degrees of freedom as
           vibrations may cause significant error
 Vibrational temperatures:    147.78   252.33   319.12   371.66   449.80
          (Kelvin)            512.43   569.40   679.41   731.74   809.16
                              986.61  1081.03  1176.96  1214.61  1224.40
                             1265.26  1321.31  1332.56  1389.33  1438.97
                             1454.77  1482.79  1527.54  1535.97  1560.32
                             1636.27  1646.17  1658.79  1660.45  1677.48
                             1718.57  1726.59  1789.90  1793.02  1819.99
                             1876.10  1884.75  2039.15  2093.99  2168.15
                             2177.34  4303.35  4365.78  4367.73  4446.23
                             4448.59  4458.47  4472.26  4512.59  5422.09
                             5529.60

 Zero-point correction=                           0.159178 (Hartree/Particle)
 Thermal correction to Energy=                    0.167086
 Thermal correction to Enthalpy=                  0.168031
 Thermal correction to Gibbs Free Energy=         0.127042
 Sum of electronic and zero-point Energies=           -422.940734
 Sum of electronic and thermal Energies=              -422.932825
 Sum of electronic and thermal Enthalpies=            -422.931881
 Sum of electronic and thermal Free Energies=         -422.972869

                     E (Thermal)             CV                S
                      KCal/Mol        Cal/Mol-Kelvin    Cal/Mol-Kelvin
 Total                  104.848             31.691             86.267
 Electronic               0.000              0.000              0.000
 Translational            0.889              2.981             40.409
 Rotational               0.889              2.981             28.463
 Vibrational            103.071             25.730             17.395
 Vibration     1          0.605              1.947              3.402
 Vibration     2          0.627              1.873              2.377
 Vibration     3          0.648              1.808              1.944
 Vibration     4          0.667              1.749              1.673
 Vibration     5          0.701              1.650              1.348
 Vibration     6          0.732              1.563              1.139
 Vibration     7          0.762              1.479              0.978
 Vibration     8          0.829              1.312              0.731
 Vibration     9          0.864              1.231              0.637
 Vibration    10          0.918              1.113              0.519

 Optimization completed.
    -- Stationary point found.
 Normal termination of Gaussian 09 at Tue Jan 28 09:12:56 2020.
