 Gaussian 09, Revision D.01,
 Gaussian 09:  ES64L-G09RevD.01 24-Apr-2013

 -----------------------------
 # b3lyp 6-31G(2df,p) opt Freq
 -----------------------------

 -----
 titel
 -----
 Symbolic Z-matrix:
 Charge =  0 Multiplicity = 1

 SCF Done:  E(RB3LYP) =  -423.160837342     A.U. after   14 cycles
 Optimization completed.
    -- Stationary point found.
 Normal termination of Gaussian 09 at Mon Jan 27 18:42:53 2020.

 ----------------------------------------------------------------------
 #N Geom=AllCheck Guess=TCheck SCRF=Check GenChk RB3LYP/6-31G(2df,p) Fr
 eq
 ----------------------------------------------------------------------

 Structure from the checkpoint file:  "/scratch/puck/g09_79d749cc-146d-4d15-84a2-964535630826/Gau-90400.chk"
 -----
 titel
 -----
 Charge =  0 Multiplicity = 1

                         Standard orientation:
 ---------------------------------------------------------------------
 Center     Atomic      Atomic             Coordinates (Angstroms)
 Number     Number       Type             X           Y           Z
 ---------------------------------------------------------------------
      1          6           0        0.017039    1.971657   -0.776524
      2          6           0       -0.441197    0.660390   -0.230990
      3          8           0       -1.812253    0.315045   -0.428081
      4          6           0       -1.856593   -0.296430    0.893833
      5          6           0       -0.368701   -0.054641    1.082042
      6          6           0        0.393909   -0.647953   -0.110305
      7          6           0       -0.028471   -1.912338   -0.829439
      8          6           0        1.856825   -0.410311   -0.023661
      9          8           0        2.395975    0.410292    0.686601
     10          1           0        1.062621    2.150037   -0.523165
     11          1           0       -0.095429    1.987700   -1.866158
     12          1           0       -0.589295    2.782970   -0.362209
     13          1           0       -2.481041    0.303437    1.563817
     14          1           0       -2.221178   -1.328591    0.867264
     15          1           0        0.155826    0.209453    1.990037
     16          1           0        0.622640   -2.094599   -1.691237
     17          1           0        0.029007   -2.791896   -0.178865
     18          1           0       -1.050622   -1.821968   -1.202375
     19          1           0        2.460831   -1.061481   -0.695013
 ---------------------------------------------------------------------

 SCF Done:  E(RB3LYP) =  -423.160837342     A.U. after    1 cycles

 The electronic state is 1-A.
 Alpha  occ. eigenvalues --  -19.15231 -19.13374 -10.26762 -10.26071 -10.24542
 Alpha  occ. eigenvalues --  -10.20952 -10.20465 -10.18618 -10.18517  -1.06714
 Alpha  occ. eigenvalues --   -1.04038  -0.85172  -0.75213  -0.73684  -0.67907
 Alpha  occ. eigenvalues --   -0.64184  -0.55174  -0.53777  -0.50564  -0.48409
 Alpha  occ. eigenvalues --   -0.46872  -0.44687  -0.43096  -0.42131  -0.41046
 Alpha  occ. eigenvalues --   -0.40314  -0.39137  -0.38341  -0.37511  -0.33967
 Alpha  occ. eigenvalues --   -0.31760  -0.28468  -0.25629  -0.24014
 Alpha virt. eigenvalues --   -0.02703   0.07946   0.09686   0.10404   0.12087
 Alpha virt. eigenvalues --    0.12529   0.13748   0.15896   0.16096   0.16709
 Alpha virt. eigenvalues --    0.17130   0.17559   0.19564   0.20177   0.21855

 Mulliken charges:
               1
     1  C   -0.502648
     2  C    0.440330
     3  O   -0.311209
     4  C   -0.124617
     5  C   -0.204343
     6  C    0.149756
     7  C   -0.500055
     8  C    0.087379
     9  O   -0.281620
    10  H    0.160026
    11  H    0.131705
    12  H    0.131787
    13  H    0.121911
    14  H    0.112975
    15  H    0.123024
    16  H    0.121269
    17  H    0.122725
    18  H    0.147312
    19  H    0.074293
 Sum of Mulliken charges =   0.00000

 Dipole moment (field-independent basis, Debye):
    X=             -1.1785    Y=             -1.0720    Z=             -0.0775  Tot=              1.5950
 Quadrupole moment (field-independent basis, Debye-Ang):
   XX=            -59.8484   YY=            -50.8851   ZZ=            -52.1444
   XY=             -1.6368   XZ=             -6.3316   YZ=             -0.6616

  Exact polarizability:  86.190  -1.226  78.066  -5.004   2.483  68.014
 Approx polarizability: 129.361  -0.923 110.980   0.691   4.684 107.833

                      1                      2                      3
                      A                      A                      A
 Frequencies --    124.6006               168.9433               179.9477
 Red. masses --      3.9080                 1.4955                 1.7355
 Frc consts  --      0.0357                 0.0251                 0.0331
 IR Inten    --      9.4415                 3.7839                 1.3900

                      4                      5                      6
                      A                      A                      A
 Frequencies --    198.2880               215.4479               249.6223
 Red. masses --      1.1056                 2.7317                 2.6353
 Frc consts  --      0.0256                 0.0747                 0.0967
 IR Inten    --      0.1824                 2.2383                 5.2131

                      7                      8                      9
                      A                      A                      A
 Frequencies --    287.8748               305.3517               353.0885
 Red. masses --      2.3762                 3.3698                 2.5976
 Frc consts  --      0.1160                 0.1851                 0.1908
 IR Inten    --      4.5682                 2.5326                 2.3804

                     10                     11                     12
                      A                      A                      A
 Frequencies --    434.5882               504.5415               614.2670
 Red. masses --      3.8124                 2.7622                 4.1669
 Frc consts  --      0.4242                 0.4143                 0.9264
 IR Inten    --      1.3665                 1.6108                 6.2269

                     13                     14                     15
                      A                      A                      A
 Frequencies --    663.1995               682.2501               732.3329
 Red. masses --      4.0823                 3.9123                 4.0230
 Frc consts  --      1.0579                 1.0729                 1.2712
 IR Inten    --      4.4637                 5.0290                37.6813

                     16                     17                     18
                      A                      A                      A
 Frequencies --    901.5505               913.9258               957.1335
 Red. masses --      2.9488                 2.0405                 1.8627
 Frc consts  --      1.4121                 1.0042                 1.0054
 IR Inten    --     95.4428                21.6539                32.9016

                     19                     20                     21
                      A                      A                      A
 Frequencies --    976.0952               976.8011               988.7931
 Red. masses --      1.6861                 1.6161                 2.9734
 Frc consts  --      0.9465                 0.9085                 1.7128
 IR Inten    --     20.2235                10.7066                22.5914

                     22                     23                     24
                      A                      A                      A
 Frequencies --   1019.8901              1067.4744              1106.3816
 Red. masses --      1.6348                 1.7909                 1.7120
 Frc consts  --      1.0019                 1.2024                 1.2347
 IR Inten    --      1.1566                 8.0382                 8.4315

                     25                     26                     27
                      A                      A                      A
 Frequencies --   1112.9588              1155.9835              1169.2157
 Red. masses --      1.7368                 1.1975                 2.3131
 Frc consts  --      1.2676                 0.9428                 1.8631
 IR Inten    --     22.1358                 1.8959                18.7306

                     28                     29                     30
                      A                      A                      A
 Frequencies --   1204.5520              1229.7035              1275.0867
 Red. masses --      3.3684                 2.3235                 2.7576
 Frc consts  --      2.8795                 2.0701                 2.6415
 IR Inten    --     63.4025                 1.0112                34.0960

                     31                     32                     33
                      A                      A                      A
 Frequencies --   1332.6175              1391.1641              1408.4883
 Red. masses --      1.5620                 1.4737                 1.2607
 Frc consts  --      1.6343                 1.6804                 1.4736
 IR Inten    --      5.6052                18.3333                 7.1548

                     34                     35                     36
                      A                      A                      A
 Frequencies --   1429.0931              1449.3730              1482.4170
 Red. masses --      1.4860                 1.9985                 1.0486
 Frc consts  --      1.7881                 2.4735                 1.3577
 IR Inten    --      9.8639                11.3923                 1.6448

                     37                     38                     39
                      A                      A                      A
 Frequencies --   1491.5720              1497.2772              1503.6521
 Red. masses --      1.0495                 1.0937                 1.0769
 Frc consts  --      1.3757                 1.4447                 1.4345
 IR Inten    --     13.2299                 5.8351                 3.1207

                     40                     41                     42
                      A                      A                      A
 Frequencies --   1518.8898              1785.7365              2877.0618
 Red. masses --      1.1071                10.1744                 1.0826
 Frc consts  --      1.5049                19.1159                 5.2798
 IR Inten    --      1.2277               161.2032               122.6699

                     43                     44                     45
                      A                      A                      A
 Frequencies --   3032.8653              3039.0776              3041.4499
 Red. masses --      1.0390                 1.0536                 1.0387
 Frc consts  --      5.6307                 5.7335                 5.6611
 IR Inten    --     33.8867                65.0007                15.5979

                     46                     47                     48
                      A                      A                      A
 Frequencies --   3089.0907              3090.8460              3101.7027
 Red. masses --      1.1106                 1.1018                 1.1005
 Frc consts  --      6.2443                 6.2019                 6.2378
 IR Inten    --     24.9543                20.7166                15.1348

                     49                     50                     51
                      A                      A                      A
 Frequencies --   3127.7163              3152.7026              3213.5148
 Red. masses --      1.0980                 1.0981                 1.0939
 Frc consts  --      6.3288                 6.4307                 6.6556
 IR Inten    --      5.0683                 2.3331                 2.2998

 - Thermochemistry -
 -------------------
 Temperature   298.150 Kelvin.  Pressure   1.00000 Atm.
 Atom     1 has atomic number  6 and mass  12.00000

 Molecular mass:   126.06808 amu.
 Principal axes and moments of inertia in atomic units:
                           1         2         3
     Eigenvalues --   747.686671141.120531416.90555
           X            0.99927   0.00641  -0.03768
           Y           -0.00599   0.99992   0.01119
           Z            0.03775  -0.01095   0.99923
 This molecule is an asymmetric top.
 Rotational symmetry number  1.
 Warning -- assumption of classical behavior for rotation
           may cause significant error
 Rotational temperatures (Kelvin)      0.11584     0.07590     0.06113
 Rotational constants (GHZ):           2.41377     1.58155     1.27372
 Zero-point vibrational energy     411672.1 (Joules/Mol)
                                   98.39199 (Kcal/Mol)
 Warning -- explicit consideration of  12 degrees of freedom as
           vibrations may cause significant error
 Vibrational temperatures:    179.27   243.07   258.90   285.29   309.98
          (Kelvin)            359.15   414.19   439.33   508.02   625.27
                              725.92   883.79   954.19   981.60  1053.66
                             1297.13  1314.93  1377.10  1404.38  1405.40
                             1422.65  1467.39  1535.86  1591.83  1601.30
                             1663.20  1682.24  1733.08  1769.27  1834.56
                             1917.34  2001.57  2026.50  2056.14  2085.32
                             2132.86  2146.04  2154.25  2163.42  2185.34
                             2569.27  4139.44  4363.61  4372.55  4375.96
                             4444.51  4447.03  4462.65  4500.08  4536.03
                             4623.53

 Zero-point correction=                           0.156798 (Hartree/Particle)
 Thermal correction to Energy=                    0.165840
 Thermal correction to Enthalpy=                  0.166784
 Thermal correction to Gibbs Free Energy=         0.123601
 Sum of electronic and zero-point Energies=           -423.004040
 Sum of electronic and thermal Energies=              -422.994997
 Sum of electronic and thermal Enthalpies=            -422.994053
 Sum of electronic and thermal Free Energies=         -423.037237

                     E (Thermal)             CV                S
                      KCal/Mol        Cal/Mol-Kelvin    Cal/Mol-Kelvin
 Total                  104.066             33.916             90.887
 Electronic               0.000              0.000              0.000
 Translational            0.889              2.981             40.409
 Rotational               0.889              2.981             28.582
 Vibrational            102.289             27.954             21.896
 Vibration     1          0.610              1.928              3.028
 Vibration     2          0.625              1.881              2.447
 Vibration     3          0.629              1.867              2.329
 Vibration     4          0.637              1.842              2.149
 Vibration     5          0.645              1.817              1.997
 Vibration     6          0.662              1.763              1.733
 Vibration     7          0.685              1.696              1.486
 Vibration     8          0.696              1.664              1.387
 Vibration     9          0.729              1.569              1.152
 Vibration    10          0.795              1.395              0.844
 Vibration    11          0.860              1.240              0.647
 Vibration    12          0.974              1.002              0.426

 Optimization completed.
    -- Stationary point found.
 Normal termination of Gaussian 09 at Mon Jan 27 19:29:14 2020.
