 Gaussian 09, Revision D.01,
 Gaussian 09:  ES64L-G09RevD.01 24-Apr-2013

 -----------------------------
 # b3lyp 6-31G(2df,p) opt Freq
 -----------------------------

 -----
 titel
 -----
 Symbolic Z-matrix:
 Charge =  0 Multiplicity = 1

 SCF Done:  E(RB3LYP) =  -423.172763909     A.U. after   13 cycles
 Optimization completed.
    -- Stationary point found.
 Normal termination of Gaussian 09 at Mon Jan 27 17:28:35 2020.

 ----------------------------------------------------------------------
 #N Geom=AllCheck Guess=TCheck SCRF=Check GenChk RB3LYP/6-31G(2df,p) Fr
 eq
 ----------------------------------------------------------------------

 Structure from the checkpoint file:  "/scratch/puck/g09_d743df3c-f0e8-4234-9095-cd36e86d35db/Gau-39930.chk"
 -----
 titel
 -----
 Charge =  0 Multiplicity = 1

                         Standard orientation:
 ---------------------------------------------------------------------
 Center     Atomic      Atomic             Coordinates (Angstroms)
 Number     Number       Type             X           Y           Z
 ---------------------------------------------------------------------
      1          6           0        2.541053    0.692540    0.487753
      2          6           0        1.209125    0.238037   -0.040988
      3          6           0        0.000002    1.173632   -0.000014
      4          6           0       -1.209121    0.238042    0.040978
      5          6           0       -2.541062    0.692529   -0.487744
      6          8           0       -1.238976   -0.553061    1.246154
      7          6           0       -0.749290   -1.159475    0.037810
      8          6           0        0.749291   -1.159477   -0.037802
      9          8           0        1.238982   -0.553077   -1.246151
     10          1           0        2.460830    0.975730    1.542309
     11          1           0        3.285568   -0.101533    0.391871
     12          1           0        2.900556    1.565348   -0.068621
     13          1           0        0.020682    1.817233    0.886312
     14          1           0       -0.020674    1.817214   -0.886355
     15          1           0       -2.900619    1.565263    0.068712
     16          1           0       -2.460836    0.975829   -1.542270
     17          1           0       -3.285538   -0.101590   -0.391952
     18          1           0       -1.343430   -1.979674   -0.357616
     19          1           0        1.343428   -1.979676    0.357631
 ---------------------------------------------------------------------

 SCF Done:  E(RB3LYP) =  -423.172763909     A.U. after    1 cycles

 The electronic state is 1-A.
 Alpha  occ. eigenvalues --  -19.14761 -19.14761 -10.24296 -10.24295 -10.23439
 Alpha  occ. eigenvalues --  -10.23414 -10.19009 -10.18504 -10.18504  -1.08083
 Alpha  occ. eigenvalues --   -1.05608  -0.78598  -0.74770  -0.72259  -0.69679
 Alpha  occ. eigenvalues --   -0.61347  -0.56758  -0.56475  -0.50683  -0.46544
 Alpha  occ. eigenvalues --   -0.45550  -0.44339  -0.43530  -0.42393  -0.40245
 Alpha  occ. eigenvalues --   -0.40119  -0.37936  -0.37687  -0.36074  -0.35704
 Alpha  occ. eigenvalues --   -0.28958  -0.28918  -0.27280  -0.25641
 Alpha virt. eigenvalues --    0.07388   0.09846   0.10561   0.10841   0.11261
 Alpha virt. eigenvalues --    0.12727   0.14457   0.14883   0.16153   0.16739
 Alpha virt. eigenvalues --    0.17365   0.18093   0.19689   0.19901   0.21618

 Mulliken charges:
               1
     1  C   -0.486472
     2  C    0.433251
     3  C   -0.355016
     4  C    0.433250
     5  C   -0.486469
     6  O   -0.302053
     7  C   -0.060806
     8  C   -0.060808
     9  O   -0.302051
    10  H    0.128365
    11  H    0.130501
    12  H    0.127469
    13  H    0.111293
    14  H    0.111294
    15  H    0.127470
    16  H    0.128363
    17  H    0.130500
    18  H    0.095958
    19  H    0.095959
 Sum of Mulliken charges =   0.00000

 Dipole moment (field-independent basis, Debye):
    X=              0.0000    Y=              0.7341    Z=              0.0000  Tot=              0.7341
 Quadrupole moment (field-independent basis, Debye-Ang):
   XX=            -51.3331   YY=            -49.0483   ZZ=            -58.3121
   XY=              0.0000   XZ=              5.3459   YZ=             -0.0001

  Exact polarizability:  83.884   0.000  77.509   2.248   0.000  60.903
 Approx polarizability: 103.437   0.000 118.077  -3.458   0.000 104.476

                      1                      2                      3
                      A                      A                      A
 Frequencies --    131.6926               184.1192               200.9457
 Red. masses --      2.9415                 1.3417                 1.0449
 Frc consts  --      0.0301                 0.0268                 0.0249
 IR Inten    --      2.9993                 0.5625                 0.1317

                      4                      5                      6
                      A                      A                      A
 Frequencies --    215.6926               287.2010               353.2833
 Red. masses --      1.8995                 2.5879                 2.3662
 Frc consts  --      0.0521                 0.1258                 0.1740
 IR Inten    --      0.9492                 0.0780                 0.2166

                      7                      8                      9
                      A                      A                      A
 Frequencies --    395.5071               403.9196               442.3746
 Red. masses --      3.4422                 1.9373                 3.9495
 Frc consts  --      0.3172                 0.1862                 0.4554
 IR Inten    --      5.8968                 3.6882                20.9478

                     10                     11                     12
                      A                      A                      A
 Frequencies --    478.2827               581.4211               648.5523
 Red. masses --      7.1719                 4.8337                 3.8080
 Frc consts  --      0.9666                 0.9627                 0.9437
 IR Inten    --      0.0126                 0.6722                 2.0339

                     13                     14                     15
                      A                      A                      A
 Frequencies --    720.6497               779.1611               819.6894
 Red. masses --      4.8367                 5.6796                 4.2021
 Frc consts  --      1.4799                 2.0315                 1.6635
 IR Inten    --      4.3716                10.8699                 6.3555

                     16                     17                     18
                      A                      A                      A
 Frequencies --    853.6279               911.4216               918.2762
 Red. masses --      2.6040                 2.7140                 2.1020
 Frc consts  --      1.1179                 1.3283                 1.0443
 IR Inten    --     28.7150                24.9482                 0.2810

                     19                     20                     21
                      A                      A                      A
 Frequencies --    961.4160               970.5274              1016.9798
 Red. masses --      1.8821                 1.7299                 1.7737
 Frc consts  --      1.0250                 0.9600                 1.0809
 IR Inten    --      2.3953                 0.3356                13.0067

                     22                     23                     24
                      A                      A                      A
 Frequencies --   1031.7099              1038.3322              1079.6255
 Red. masses --      1.6631                 1.7697                 1.5600
 Frc consts  --      1.0430                 1.1242                 1.0713
 IR Inten    --      5.2244                 0.5220                 0.9705

                     25                     26                     27
                      A                      A                      A
 Frequencies --   1128.3024              1130.2517              1205.5307
 Red. masses --      2.1546                 1.9453                 1.7454
 Frc consts  --      1.6161                 1.4641                 1.4945
 IR Inten    --     21.6437                 0.2317                16.5452

                     28                     29                     30
                      A                      A                      A
 Frequencies --   1223.9209              1257.6207              1270.9615
 Red. masses --      1.3737                 1.4710                 2.5785
 Frc consts  --      1.2124                 1.3708                 2.4540
 IR Inten    --      0.0183                 5.8735                 2.7354

                     31                     32                     33
                      A                      A                      A
 Frequencies --   1321.4831              1333.9110              1406.1439
 Red. masses --      1.6676                 2.1642                 1.3662
 Frc consts  --      1.7158                 2.2688                 1.5916
 IR Inten    --      0.0852                35.1880                 4.2421

                     34                     35                     36
                      A                      A                      A
 Frequencies --   1413.1672              1447.0767              1456.6457
 Red. masses --      1.2867                 2.2028                 2.2417
 Frc consts  --      1.5140                 2.7178                 2.8024
 IR Inten    --      8.3749                16.2236                10.6425

                     37                     38                     39
                      A                      A                      A
 Frequencies --   1470.9931              1486.5950              1487.1176
 Red. masses --      1.2174                 1.0848                 1.1158
 Frc consts  --      1.5520                 1.4125                 1.4539
 IR Inten    --      0.9419                 0.0141                16.0439

                     40                     41                     42
                      A                      A                      A
 Frequencies --   1496.7969              1500.7706              3034.7595
 Red. masses --      1.2017                 1.2557                 1.0397
 Frc consts  --      1.5862                 1.6664                 5.6417
 IR Inten    --      3.1799                 0.4915                 1.5074

                     43                     44                     45
                      A                      A                      A
 Frequencies --   3035.6063              3042.7371              3085.0516
 Red. masses --      1.0364                 1.0556                 1.1043
 Frc consts  --      5.6269                 5.7579                 6.1922
 IR Inten    --     29.0077                33.7105                 7.7890

                     46                     47                     48
                      A                      A                      A
 Frequencies --   3098.6734              3099.0329              3124.5647
 Red. masses --      1.1000                 1.1000                 1.1014
 Frc consts  --      6.2232                 6.2246                 6.3355
 IR Inten    --      6.2444                29.1392                10.1896

                     49                     50                     51
                      A                      A                      A
 Frequencies --   3124.7003              3139.7313              3151.0604
 Red. masses --      1.1012                 1.0877                 1.0940
 Frc consts  --      6.3348                 6.3176                 6.4002
 IR Inten    --     16.0339                22.8125                30.3529

 - Thermochemistry -
 -------------------
 Temperature   298.150 Kelvin.  Pressure   1.00000 Atm.
 Atom     1 has atomic number  6 and mass  12.00000

 Molecular mass:   126.06808 amu.
 Principal axes and moments of inertia in atomic units:
                           1         2         3
     Eigenvalues --   552.354101319.914911429.79891
           X            0.99906   0.00000   0.04345
           Y            0.00000   1.00000   0.00000
           Z           -0.04345   0.00000   0.99906
 This molecule is an asymmetric top.
 Rotational symmetry number  1.
 Warning -- assumption of classical behavior for rotation
           may cause significant error
 Rotational temperatures (Kelvin)      0.15681     0.06562     0.06058
 Rotational constants (GHZ):           3.26736     1.36732     1.26223
 Zero-point vibrational energy     415089.9 (Joules/Mol)
                                   99.20887 (Kcal/Mol)
 Warning -- explicit consideration of  11 degrees of freedom as
           vibrations may cause significant error
 Vibrational temperatures:    189.48   264.91   289.12   310.33   413.22
          (Kelvin)            508.30   569.05   581.15   636.48   688.14
                              836.53   933.12  1036.85  1121.04  1179.35
                             1228.18  1311.33  1321.19  1383.26  1396.37
                             1463.21  1484.40  1493.93  1553.34  1623.37
                             1626.18  1734.49  1760.95  1809.43  1828.63
                             1901.32  1919.20  2023.12  2033.23  2082.02
                             2095.79  2116.43  2138.88  2139.63  2153.55
                             2159.27  4366.34  4367.55  4377.81  4438.70
                             4458.29  4458.81  4495.55  4495.74  4517.37
                             4533.67

 Zero-point correction=                           0.158099 (Hartree/Particle)
 Thermal correction to Energy=                    0.166332
 Thermal correction to Enthalpy=                  0.167276
 Thermal correction to Gibbs Free Energy=         0.125836
 Sum of electronic and zero-point Energies=           -423.014665
 Sum of electronic and thermal Energies=              -423.006432
 Sum of electronic and thermal Enthalpies=            -423.005488
 Sum of electronic and thermal Free Energies=         -423.046928

                     E (Thermal)             CV                S
                      KCal/Mol        Cal/Mol-Kelvin    Cal/Mol-Kelvin
 Total                  104.375             32.357             87.218
 Electronic               0.000              0.000              0.000
 Translational            0.889              2.981             40.409
 Rotational               0.889              2.981             28.435
 Vibrational            102.597             26.395             18.375
 Vibration     1          0.612              1.922              2.921
 Vibration     2          0.631              1.861              2.286
 Vibration     3          0.638              1.839              2.124
 Vibration     4          0.645              1.817              1.995
 Vibration     5          0.684              1.697              1.490
 Vibration     6          0.729              1.569              1.152
 Vibration     7          0.762              1.480              0.979
 Vibration     8          0.769              1.462              0.948
 Vibration     9          0.802              1.378              0.819
 Vibration    10          0.835              1.298              0.715
 Vibration    11          0.938              1.071              0.483

 Optimization completed.
    -- Stationary point found.
 Normal termination of Gaussian 09 at Mon Jan 27 18:26:33 2020.
