 Gaussian 09, Revision D.01,
 Gaussian 09:  ES64L-G09RevD.01 24-Apr-2013

 -----------------------------
 # b3lyp 6-31G(2df,p) opt Freq
 -----------------------------

 -----
 titel
 -----
 Symbolic Z-matrix:
 Charge =  0 Multiplicity = 1

 SCF Done:  E(RB3LYP) =  -423.181030322     A.U. after   14 cycles
 Optimization completed.
    -- Stationary point found.
 Normal termination of Gaussian 09 at Tue Jan 28 00:04:21 2020.

 ----------------------------------------------------------------------
 #N Geom=AllCheck Guess=TCheck SCRF=Check GenChk RB3LYP/6-31G(2df,p) Fr
 eq
 ----------------------------------------------------------------------

 Structure from the checkpoint file:  "/scratch/puck/g09_69d25045-37c1-41f7-a7a2-8ec7dc210ae0/Gau-56584.chk"
 -----
 titel
 -----
 Charge =  0 Multiplicity = 1

                         Standard orientation:
 ---------------------------------------------------------------------
 Center     Atomic      Atomic             Coordinates (Angstroms)
 Number     Number       Type             X           Y           Z
 ---------------------------------------------------------------------
      1          6           0       -2.924201   -1.042801    0.101442
      2          6           0       -1.691554   -0.217691    0.397288
      3          6           0       -1.040696    0.564714   -0.714147
      4          8           0       -0.294255    1.711741   -0.403360
      5          6           0        0.646097    1.373470    0.609623
      6          6           0        0.911987   -0.158244    0.508284
      7          6           0        2.122207   -0.438191   -0.358436
      8          8           0        3.075499   -1.089672   -0.017849
      9          6           0       -0.353994   -0.662783   -0.181463
     10          1           0       -2.999907   -1.902940    0.775406
     11          1           0       -3.834473   -0.444377    0.213449
     12          1           0       -2.904583   -1.428318   -0.923627
     13          1           0       -1.669905    0.232253    1.386584
     14          1           0       -1.501469    0.630750   -1.693181
     15          1           0        1.542506    1.982219    0.451884
     16          1           0        0.250554    1.611838    1.605401
     17          1           0        1.087747   -0.601667    1.492151
     18          1           0        2.069817    0.023410   -1.372217
     19          1           0       -0.309312   -1.590569   -0.741724
 ---------------------------------------------------------------------

 SCF Done:  E(RB3LYP) =  -423.181030322     A.U. after    1 cycles

 The electronic state is 1-A.
 Alpha  occ. eigenvalues --  -19.15344 -19.14063 -10.27084 -10.24457 -10.24167
 Alpha  occ. eigenvalues --  -10.20664 -10.20324 -10.20215 -10.18951  -1.05616
 Alpha  occ. eigenvalues --   -1.04696  -0.86616  -0.78882  -0.72252  -0.66418
 Alpha  occ. eigenvalues --   -0.59503  -0.58082  -0.57493  -0.52108  -0.48773
 Alpha  occ. eigenvalues --   -0.47296  -0.44148  -0.43748  -0.42576  -0.41397
 Alpha  occ. eigenvalues --   -0.40806  -0.39454  -0.37868  -0.35856  -0.34150
 Alpha  occ. eigenvalues --   -0.33646  -0.29123  -0.24941  -0.24005
 Alpha virt. eigenvalues --   -0.02410   0.08271   0.09649   0.10161   0.11808
 Alpha virt. eigenvalues --    0.12468   0.13268   0.14800   0.15535   0.15844
 Alpha virt. eigenvalues --    0.16679   0.17808   0.18052   0.19535   0.22477

 Mulliken charges:
               1
     1  C   -0.420545
     2  C   -0.075050
     3  C    0.111755
     4  O   -0.252754
     5  C   -0.129115
     6  C   -0.116033
     7  C    0.154500
     8  O   -0.252846
     9  C   -0.101636
    10  H    0.124646
    11  H    0.125907
    12  H    0.117514
    13  H    0.092776
    14  H    0.104266
    15  H    0.121469
    16  H    0.112899
    17  H    0.098764
    18  H    0.084517
    19  H    0.098967
 Sum of Mulliken charges =   0.00000

 Dipole moment (field-independent basis, Debye):
    X=             -2.4465    Y=              0.1055    Z=              0.2716  Tot=              2.4638
 Quadrupole moment (field-independent basis, Debye-Ang):
   XX=            -60.7392   YY=            -57.0414   ZZ=            -50.6898
   XY=              6.6936   XZ=             -0.0068   YZ=              2.3411

  Exact polarizability:  93.471   0.282  69.474   0.492  -0.207  66.592
 Approx polarizability: 123.467  -7.729 106.722   2.600  -3.959 103.209

                      1                      2                      3
                      A                      A                      A
 Frequencies --     65.7182               104.4066               175.7981
 Red. masses --      4.9303                 3.7655                 2.3687
 Frc consts  --      0.0125                 0.0242                 0.0431
 IR Inten    --      6.0875                 3.8413                 0.9317

                      4                      5                      6
                      A                      A                      A
 Frequencies --    208.6866               238.4457               303.7272
 Red. masses --      1.1241                 2.5663                 2.4883
 Frc consts  --      0.0288                 0.0860                 0.1352
 IR Inten    --      0.5791                 1.6699                 1.0923

                      7                      8                      9
                      A                      A                      A
 Frequencies --    313.5776               352.4623               436.6405
 Red. masses --      2.4057                 3.0725                 4.7133
 Frc consts  --      0.1394                 0.2249                 0.5294
 IR Inten    --      0.8664                 1.6156                10.6595

                     10                     11                     12
                      A                      A                      A
 Frequencies --    450.6809               714.1806               779.6734
 Red. masses --      4.2465                 5.9910                 4.1146
 Frc consts  --      0.5082                 1.8004                 1.4737
 IR Inten    --      6.8290                 7.9865                 0.8072

                     13                     14                     15
                      A                      A                      A
 Frequencies --    817.6661               830.3625               886.8144
 Red. masses --      2.0913                 2.1442                 1.9573
 Frc consts  --      0.8238                 0.8711                 0.9069
 IR Inten    --     13.1272                 4.0154                12.9360

                     16                     17                     18
                      A                      A                      A
 Frequencies --    903.8967               940.7198               983.5513
 Red. masses --      2.1387                 2.2559                 1.9956
 Frc consts  --      1.0295                 1.1762                 1.1374
 IR Inten    --     10.8451                19.2832                 9.0214

                     19                     20                     21
                      A                      A                      A
 Frequencies --    986.9258              1020.1920              1025.7662
 Red. masses --      2.8286                 1.6576                 1.6502
 Frc consts  --      1.6233                 1.0165                 1.0230
 IR Inten    --     14.3092                31.2640                 4.7523

                     22                     23                     24
                      A                      A                      A
 Frequencies --   1079.1090              1110.1520              1120.6005
 Red. masses --      1.3773                 1.8251                 2.5728
 Frc consts  --      0.9449                 1.3252                 1.9035
 IR Inten    --      2.3508                 1.5605                22.9290

                     25                     26                     27
                      A                      A                      A
 Frequencies --   1127.2540              1147.0440              1169.6022
 Red. masses --      2.1126                 2.1509                 2.5675
 Frc consts  --      1.5817                 1.6674                 2.0693
 IR Inten    --      6.9424                36.0832                51.6678

                     28                     29                     30
                      A                      A                      A
 Frequencies --   1215.7817              1234.5945              1254.6766
 Red. masses --      1.8366                 1.2013                 1.4794
 Frc consts  --      1.5995                 1.0788                 1.3722
 IR Inten    --      4.2165                 2.9134                 5.3425

                     31                     32                     33
                      A                      A                      A
 Frequencies --   1263.6294              1317.7052              1324.7193
 Red. masses --      1.3074                 1.2335                 1.4830
 Frc consts  --      1.2300                 1.2619                 1.5334
 IR Inten    --      5.1527                 4.8191                 0.3675

                     34                     35                     36
                      A                      A                      A
 Frequencies --   1383.6145              1418.7962              1427.5172
 Red. masses --      1.4063                 1.2462                 1.2180
 Frc consts  --      1.5862                 1.4780                 1.4624
 IR Inten    --      2.6360                 2.2072                 3.1282

                     37                     38                     39
                      A                      A                      A
 Frequencies --   1440.4226              1493.9859              1502.4724
 Red. masses --      2.2188                 1.0475                 1.0699
 Frc consts  --      2.7123                 1.3775                 1.4229
 IR Inten    --     10.4093                 3.1533                 5.7487

                     40                     41                     42
                      A                      A                      A
 Frequencies --   1524.3172              1833.2299              2863.8642
 Red. masses --      1.0847                10.1058                 1.0821
 Frc consts  --      1.4850                20.0103                 5.2292
 IR Inten    --      2.4387               206.9797                84.6241

                     43                     44                     45
                      A                      A                      A
 Frequencies --   3016.0056              3029.0180              3072.1489
 Red. masses --      1.0658                 1.0350                 1.0973
 Frc consts  --      5.7123                 5.5950                 6.1017
 IR Inten    --     37.4308                33.9101                27.7800

                     46                     47                     48
                      A                      A                      A
 Frequencies --   3081.4781              3093.8179              3097.0819
 Red. masses --      1.0876                 1.1006                 1.1012
 Frc consts  --      6.0847                 6.2071                 6.2230
 IR Inten    --     17.6559                19.9802                18.9826

                     49                     50                     51
                      A                      A                      A
 Frequencies --   3142.7151              3166.1552              3182.0600
 Red. masses --      1.0890                 1.0887                 1.0928
 Frc consts  --      6.3371                 6.4304                 6.5192
 IR Inten    --     14.3277                 7.0123                16.3345

 - Thermochemistry -
 -------------------
 Temperature   298.150 Kelvin.  Pressure   1.00000 Atm.
 Atom     1 has atomic number  6 and mass  12.00000

 Molecular mass:   126.06808 amu.
 Principal axes and moments of inertia in atomic units:
                           1         2         3
     Eigenvalues --   582.390721616.960861956.57222
           X            0.99890   0.04680   0.00048
           Y           -0.04680   0.99850   0.02826
           Z            0.00084  -0.02825   0.99960
 This molecule is an asymmetric top.
 Rotational symmetry number  1.
 Warning -- assumption of classical behavior for rotation
           may cause significant error
 Rotational temperatures (Kelvin)      0.14872     0.05357     0.04427
 Rotational constants (GHZ):           3.09885     1.11613     0.92240
 Zero-point vibrational energy     416739.8 (Joules/Mol)
                                   99.60321 (Kcal/Mol)
 Warning -- explicit consideration of  10 degrees of freedom as
           vibrations may cause significant error
 Vibrational temperatures:     94.55   150.22   252.93   300.25   343.07
          (Kelvin)            437.00   451.17   507.11   628.23   648.43
                             1027.55  1121.77  1176.44  1194.70  1275.93
                             1300.50  1353.48  1415.11  1419.96  1467.83
                             1475.85  1552.60  1597.26  1612.29  1621.87
                             1650.34  1682.79  1749.24  1776.30  1805.20
                             1818.08  1895.88  1905.97  1990.71  2041.33
                             2053.88  2072.44  2149.51  2161.72  2193.15
                             2637.61  4120.46  4339.35  4358.08  4420.13
                             4433.55  4451.31  4456.00  4521.66  4555.39
                             4578.27

 Zero-point correction=                           0.158728 (Hartree/Particle)
 Thermal correction to Energy=                    0.167348
 Thermal correction to Enthalpy=                  0.168293
 Thermal correction to Gibbs Free Energy=         0.124997
 Sum of electronic and zero-point Energies=           -423.022302
 Sum of electronic and thermal Energies=              -423.013682
 Sum of electronic and thermal Enthalpies=            -423.012738
 Sum of electronic and thermal Free Energies=         -423.056033

                     E (Thermal)             CV                S
                      KCal/Mol        Cal/Mol-Kelvin    Cal/Mol-Kelvin
 Total                  105.013             31.851             91.122
 Electronic               0.000              0.000              0.000
 Translational            0.889              2.981             40.409
 Rotational               0.889              2.981             29.001
 Vibrational            103.235             25.889             21.713
 Vibration     1          0.597              1.971              4.278
 Vibration     2          0.605              1.946              3.370
 Vibration     3          0.628              1.872              2.373
 Vibration     4          0.642              1.827              2.055
 Vibration     5          0.656              1.782              1.814
 Vibration     6          0.695              1.667              1.396
 Vibration     7          0.701              1.648              1.343
 Vibration     8          0.729              1.570              1.155
 Vibration     9          0.797              1.390              0.837
 Vibration    10          0.809              1.359              0.794

 Normal termination of Gaussian 09 at Tue Jan 28 01:24:10 2020.
