 Gaussian 09, Revision D.01,
 Gaussian 09:  ES64L-G09RevD.01 24-Apr-2013

 -----------------------------
 # b3lyp 6-31G(2df,p) opt Freq
 -----------------------------

 -----
 titel
 -----
 Symbolic Z-matrix:
 Charge =  0 Multiplicity = 1

 SCF Done:  E(RB3LYP) =  -423.176974483     A.U. after   13 cycles
 Optimization completed.
    -- Stationary point found.
 Normal termination of Gaussian 09 at Mon Jan 27 18:49:05 2020.

 ----------------------------------------------------------------------
 #N Geom=AllCheck Guess=TCheck SCRF=Check GenChk RB3LYP/6-31G(2df,p) Fr
 eq
 ----------------------------------------------------------------------

 Structure from the checkpoint file:  "/scratch/puck/g09_e476863b-767c-4c13-89ea-8ba955a5219f/Gau-90749.chk"
 -----
 titel
 -----
 Charge =  0 Multiplicity = 1

                         Standard orientation:
 ---------------------------------------------------------------------
 Center     Atomic      Atomic             Coordinates (Angstroms)
 Number     Number       Type             X           Y           Z
 ---------------------------------------------------------------------
      1          8           0       -1.325461    1.396330    0.963343
      2          6           0       -0.646460    0.571974    0.030300
      3          6           0       -1.603463   -0.194027   -0.924699
      4          8           0       -1.395289   -1.424662   -0.197486
      5          6           0       -0.294247   -0.846356    0.552079
      6          6           0        1.066353   -1.378074    0.103779
      7          6           0        2.164573   -0.313244    0.258943
      8          6           0        1.758481    0.989694   -0.386685
      9          6           0        0.489922    1.374592   -0.517422
     10          1           0       -2.070225    0.894862    1.314845
     11          1           0       -2.648866    0.137354   -0.900777
     12          1           0       -1.268010   -0.266474   -1.966992
     13          1           0       -0.441161   -0.962591    1.633546
     14          1           0        1.321513   -2.292861    0.648741
     15          1           0        0.985112   -1.647387   -0.954863
     16          1           0        2.392895   -0.143357    1.321481
     17          1           0        3.096598   -0.677611   -0.186807
     18          1           0        2.553877    1.632632   -0.755435
     19          1           0        0.233318    2.324734   -0.978359
 ---------------------------------------------------------------------

 SCF Done:  E(RB3LYP) =  -423.176974483     A.U. after    1 cycles

 The electronic state is 1-A.
 Alpha  occ. eigenvalues --  -19.14133 -19.13255 -10.24121 -10.22872 -10.22659
 Alpha  occ. eigenvalues --  -10.19186 -10.18896 -10.18410 -10.18118  -1.04808
 Alpha  occ. eigenvalues --   -1.01135  -0.82452  -0.75307  -0.71865  -0.68323
 Alpha  occ. eigenvalues --   -0.61508  -0.59080  -0.52099  -0.51127  -0.49478
 Alpha  occ. eigenvalues --   -0.47714  -0.44328  -0.42902  -0.41190  -0.40485
 Alpha  occ. eigenvalues --   -0.37998  -0.37829  -0.36133  -0.35335  -0.33239
 Alpha  occ. eigenvalues --   -0.29106  -0.26769  -0.25153  -0.24713
 Alpha virt. eigenvalues --    0.01035   0.07727   0.08449   0.09648   0.11676
 Alpha virt. eigenvalues --    0.12671   0.14424   0.15901   0.16237   0.17148
 Alpha virt. eigenvalues --    0.17542   0.18853   0.21075   0.21639   0.22719

 Mulliken charges:
               1
     1  O   -0.486459
     2  C    0.339127
     3  C   -0.147350
     4  O   -0.297436
     5  C    0.055589
     6  C   -0.229493
     7  C   -0.272067
     8  C   -0.056881
     9  C   -0.092126
    10  H    0.283924
    11  H    0.098844
    12  H    0.101149
    13  H    0.073423
    14  H    0.100653
    15  H    0.112405
    16  H    0.117854
    17  H    0.108342
    18  H    0.094396
    19  H    0.096106
 Sum of Mulliken charges =   0.00000

 Dipole moment (field-independent basis, Debye):
    X=              0.8193    Y=              0.0574    Z=             -0.1386  Tot=              0.8329
 Quadrupole moment (field-independent basis, Debye-Ang):
   XX=            -48.9406   YY=            -58.5112   ZZ=            -51.5869
   XY=             -2.1874   XZ=             -0.7771   YZ=             -3.0825

  Exact polarizability:  91.664  -3.883  71.445   2.066  -5.026  64.490
 Approx polarizability: 131.445  -7.168 104.216   3.555  -6.008  98.745

                      1                      2                      3
                      A                      A                      A
 Frequencies --     70.7345               161.8538               235.0152
 Red. masses --      3.2373                 2.5723                 2.5895
 Frc consts  --      0.0095                 0.0397                 0.0843
 IR Inten    --      3.6796                 0.3038                 3.6834

                      4                      5                      6
                      A                      A                      A
 Frequencies --    308.2359               348.5469               351.4749
 Red. masses --      2.0879                 3.0139                 1.3157
 Frc consts  --      0.1169                 0.2157                 0.0958
 IR Inten    --     12.8588                 6.0985                67.2338

                      7                      8                      9
                      A                      A                      A
 Frequencies --    438.7624               445.3451               487.0796
 Red. masses --      3.8334                 2.8036                 3.4630
 Frc consts  --      0.4348                 0.3276                 0.4841
 IR Inten    --      9.4403                 1.7489                 1.7605

                     10                     11                     12
                      A                      A                      A
 Frequencies --    524.0350               636.0666               716.6530
 Red. masses --      3.4708                 3.9602                 1.7392
 Frc consts  --      0.5616                 0.9440                 0.5263
 IR Inten    --      1.0366                 7.2463                 9.8130

                     13                     14                     15
                      A                      A                      A
 Frequencies --    763.8601               811.1356               869.9125
 Red. masses --      1.6885                 3.1922                 2.4694
 Frc consts  --      0.5805                 1.2375                 1.1010
 IR Inten    --     14.5977                 9.6993                 2.1827

                     16                     17                     18
                      A                      A                      A
 Frequencies --    910.0265               920.2778               958.9327
 Red. masses --      2.3192                 1.9061                 2.3768
 Frc consts  --      1.1316                 0.9511                 1.2877
 IR Inten    --      4.0369                21.7844                 9.1519

                     19                     20                     21
                      A                      A                      A
 Frequencies --    995.9990              1003.9373              1013.4949
 Red. masses --      2.6504                 1.3377                 6.4331
 Frc consts  --      1.5491                 0.7944                 3.8933
 IR Inten    --      5.8803                 6.0735                74.9944

                     22                     23                     24
                      A                      A                      A
 Frequencies --   1058.5322              1072.5795              1093.3565
 Red. masses --      2.4785                 2.5944                 2.0356
 Frc consts  --      1.6363                 1.7585                 1.4337
 IR Inten    --     28.3504                15.9030                 2.0771

                     25                     26                     27
                      A                      A                      A
 Frequencies --   1123.1001              1141.0028              1162.4655
 Red. masses --      1.7016                 2.0978                 1.3524
 Frc consts  --      1.2646                 1.6091                 1.0767
 IR Inten    --     38.6512                15.0143                19.8138

                     28                     29                     30
                      A                      A                      A
 Frequencies --   1197.3856              1203.2456              1253.5750
 Red. masses --      1.4428                 1.2328                 1.3684
 Frc consts  --      1.2188                 1.0516                 1.2669
 IR Inten    --     45.0159                 2.5914                 6.1754

                     31                     32                     33
                      A                      A                      A
 Frequencies --   1280.6418              1325.4005              1338.1133
 Red. masses --      1.3635                 1.3787                 1.4191
 Frc consts  --      1.3175                 1.4270                 1.4970
 IR Inten    --      5.3936                 1.8635                 6.9445

                     34                     35                     36
                      A                      A                      A
 Frequencies --   1357.2915              1376.5825              1398.5835
 Red. masses --      1.4054                 1.4983                 1.5617
 Frc consts  --      1.5254                 1.6728                 1.7998
 IR Inten    --      0.6343                13.7235                17.4779

                     37                     38                     39
                      A                      A                      A
 Frequencies --   1440.3775              1481.3962              1495.2740
 Red. masses --      1.9996                 1.0842                 1.0975
 Frc consts  --      2.4443                 1.4019                 1.4457
 IR Inten    --     15.8787                 3.7208                 4.5353

                     40                     41                     42
                      A                      A                      A
 Frequencies --   1515.1488              1720.4703              3004.5611
 Red. masses --      1.0984                 7.1007                 1.0697
 Frc consts  --      1.4857                12.3836                 5.6896
 IR Inten    --      0.6886                 3.1523                23.3060

                     43                     44                     45
                      A                      A                      A
 Frequencies --   3009.4172              3022.9464              3041.1898
 Red. masses --      1.0560                 1.0852                 1.0617
 Frc consts  --      5.6349                 5.8428                 5.7856
 IR Inten    --     70.0719                23.9598                16.7423

                     46                     47                     48
                      A                      A                      A
 Frequencies --   3061.0918              3061.3256              3087.7813
 Red. masses --      1.0884                 1.1112                 1.1046
 Frc consts  --      6.0088                 6.1355                 6.2053
 IR Inten    --     36.3723                38.0756                36.0531

                     49                     50                     51
                      A                      A                      A
 Frequencies --   3150.7895              3173.8472              3793.4021
 Red. masses --      1.0838                 1.0970                 1.0659
 Frc consts  --      6.3390                 6.5108                 9.0366
 IR Inten    --      6.7348                25.7783                15.0808

 - Thermochemistry -
 -------------------
 Temperature   298.150 Kelvin.  Pressure   1.00000 Atm.
 Atom     1 has atomic number  8 and mass  15.99491

 Molecular mass:   126.06808 amu.
 Principal axes and moments of inertia in atomic units:
                           1         2         3
     Eigenvalues --   723.052641046.616861419.50282
           X            0.99908  -0.04173   0.00955
           Y            0.04203   0.99856  -0.03325
           Z           -0.00815   0.03362   0.99940
 This molecule is an asymmetric top.
 Rotational symmetry number  1.
 Warning -- assumption of classical behavior for rotation
           may cause significant error
 Rotational temperatures (Kelvin)      0.11979     0.08276     0.06102
 Rotational constants (GHZ):           2.49600     1.72436     1.27139
 Zero-point vibrational energy     421158.8 (Joules/Mol)
                                  100.65937 (Kcal/Mol)
 Warning -- explicit consideration of  10 degrees of freedom as
           vibrations may cause significant error
 Vibrational temperatures:    101.77   232.87   338.13   443.48   501.48
          (Kelvin)            505.69   631.28   640.75   700.80   753.97
                              915.16  1031.10  1099.02  1167.04  1251.61
                             1309.32  1324.07  1379.69  1433.02  1444.44
                             1458.19  1522.99  1543.20  1573.09  1615.89
                             1641.65  1672.53  1722.77  1731.20  1803.61
                             1842.56  1906.95  1925.24  1952.84  1980.59
                             2012.25  2072.38  2131.40  2151.36  2179.96
                             2475.37  4322.89  4329.87  4349.34  4375.59
                             4404.22  4404.56  4442.62  4533.28  4566.45
                             5457.85

 Zero-point correction=                           0.160411 (Hartree/Particle)
 Thermal correction to Energy=                    0.168280
 Thermal correction to Enthalpy=                  0.169224
 Thermal correction to Gibbs Free Energy=         0.128075
 Sum of electronic and zero-point Energies=           -423.016564
 Sum of electronic and thermal Energies=              -423.008694
 Sum of electronic and thermal Enthalpies=            -423.007750
 Sum of electronic and thermal Free Energies=         -423.048900

                     E (Thermal)             CV                S
                      KCal/Mol        Cal/Mol-Kelvin    Cal/Mol-Kelvin
 Total                  105.597             31.139             86.607
 Electronic               0.000              0.000              0.000
 Translational            0.889              2.981             40.409
 Rotational               0.889              2.981             28.465
 Vibrational            103.820             25.177             17.733
 Vibration     1          0.598              1.968              4.133
 Vibration     2          0.622              1.889              2.528
 Vibration     3          0.655              1.787              1.840
 Vibration     4          0.698              1.658              1.372
 Vibration     5          0.726              1.578              1.173
 Vibration     6          0.728              1.572              1.160
 Vibration     7          0.799              1.386              0.831
 Vibration     8          0.805              1.371              0.810
 Vibration     9          0.843              1.279              0.691
 Vibration    10          0.879              1.197              0.601

 Optimization completed.
    -- Stationary point found.
 Normal termination of Gaussian 09 at Mon Jan 27 19:31:30 2020.
