 Gaussian 09, Revision D.01,
 Gaussian 09:  ES64L-G09RevD.01 24-Apr-2013

 -----------------------------
 # b3lyp 6-31G(2df,p) opt Freq
 -----------------------------

 -----
 titel
 -----
 Symbolic Z-matrix:
 Charge =  0 Multiplicity = 1

 SCF Done:  E(RB3LYP) =  -423.134955382     A.U. after   14 cycles
 SCF Done:  E(RB3LYP) =  -423.134955367     A.U. after    7 cycles
 SCF Done:  E(RB3LYP) =  -423.134955364     A.U. after    7 cycles
 Optimization completed.
    -- Stationary point found.
 Normal termination of Gaussian 09 at Tue Jan 28 09:12:15 2020.

 ----------------------------------------------------------------------
 #N Geom=AllCheck Guess=TCheck SCRF=Check GenChk RB3LYP/6-31G(2df,p) Fr
 eq
 ----------------------------------------------------------------------

 Structure from the checkpoint file:  "/scratch/puck/g09_929abc3b-91fe-4991-9457-1c1a65770834/Gau-17084.chk"
 -----
 titel
 -----
 Charge =  0 Multiplicity = 1

                         Standard orientation:
 ---------------------------------------------------------------------
 Center     Atomic      Atomic             Coordinates (Angstroms)
 Number     Number       Type             X           Y           Z
 ---------------------------------------------------------------------
      1          6           0       -3.623026   -0.294173   -0.107616
      2          6           0       -2.174648   -0.216309    0.006468
      3          6           0       -0.975375   -0.142514    0.088386
      4          6           0        0.469751   -0.065302    0.220261
      5          6           0        0.945679    1.317304    0.690527
      6          8           0        0.719953    2.285683   -0.304723
      7          6           0        1.176982   -1.269534    0.904683
      8          6           0        1.924265   -1.424264   -0.431926
      9          8           0        1.159989   -0.359354   -1.043141
     10          1           0       -3.933399   -0.279528   -1.158190
     11          1           0       -4.011427   -1.215317    0.340537
     12          1           0       -4.106837    0.551724    0.392682
     13          1           0        0.397519    1.625545    1.586487
     14          1           0        2.015178    1.241743    0.949645
     15          1           0        1.073230    1.905911   -1.120050
     16          1           0        1.783574   -1.013103    1.775278
     17          1           0        0.506169   -2.090870    1.152820
     18          1           0        2.995842   -1.193803   -0.403680
     19          1           0        1.778847   -2.374184   -0.957318
 ---------------------------------------------------------------------

 SCF Done:  E(RB3LYP) =  -423.134955364     A.U. after    1 cycles

 The electronic state is 1-A.
 Alpha  occ. eigenvalues --  -19.14007 -19.12797 -10.25754 -10.23680 -10.22635
 Alpha  occ. eigenvalues --  -10.20500 -10.19624 -10.17910 -10.16667  -1.04575
 Alpha  occ. eigenvalues --   -1.00874  -0.78750  -0.76189  -0.73316  -0.68870
 Alpha  occ. eigenvalues --   -0.64469  -0.57627  -0.52810  -0.49716  -0.47067
 Alpha  occ. eigenvalues --   -0.46391  -0.45709  -0.42900  -0.42741  -0.42045
 Alpha  occ. eigenvalues --   -0.41127  -0.38479  -0.36568  -0.32522  -0.31595
 Alpha  occ. eigenvalues --   -0.28121  -0.25793  -0.25218  -0.24480
 Alpha virt. eigenvalues --    0.02680   0.05358   0.08754   0.10973   0.11035
 Alpha virt. eigenvalues --    0.11776   0.12652   0.14078   0.15512   0.16759
 Alpha virt. eigenvalues --    0.17676   0.18469   0.19207   0.20827   0.21298

 Mulliken charges:
               1
     1  C   -0.501145
     2  C    0.083458
     3  C    0.088297
     4  C    0.158040
     5  C   -0.082957
     6  O   -0.417788
     7  C   -0.337083
     8  C   -0.066332
     9  O   -0.319682
    10  H    0.155019
    11  H    0.147755
    12  H    0.152643
    13  H    0.112778
    14  H    0.077053
    15  H    0.292952
    16  H    0.114299
    17  H    0.124087
    18  H    0.105881
    19  H    0.112723
 Sum of Mulliken charges =   0.00000

 Dipole moment (field-independent basis, Debye):
    X=             -0.0730    Y=             -2.1411    Z=              1.1588  Tot=              2.4357
 Quadrupole moment (field-independent basis, Debye-Ang):
   XX=            -42.8877   YY=            -56.4770   ZZ=            -52.6241
   XY=             -1.0314   XZ=              1.0398   YZ=             -0.3426

  Exact polarizability: 110.198  -2.315  70.412   1.609   0.931  62.699
 Approx polarizability: 153.543  -1.683  96.593   1.990  -0.089  94.570

                      1                      2                      3
                      A                      A                      A
 Frequencies --     27.6918                67.2850                80.6653
 Red. masses --      1.0195                 2.5358                 3.8868
 Frc consts  --      0.0005                 0.0068                 0.0149
 IR Inten    --      0.0274                 0.9107                 3.8960

                      4                      5                      6
                      A                      A                      A
 Frequencies --    116.3345               139.4517               225.4284
 Red. masses --      4.1432                 2.6890                 3.9306
 Frc consts  --      0.0330                 0.0308                 0.1177
 IR Inten    --      1.9469                 1.2055                 3.8999

                      7                      8                      9
                      A                      A                      A
 Frequencies --    290.8625               312.2573               360.5819
 Red. masses --      3.1901                 3.2451                 3.1612
 Frc consts  --      0.1590                 0.1864                 0.2422
 IR Inten    --      3.2909                 2.4631                 4.4939

                     10                     11                     12
                      A                      A                      A
 Frequencies --    424.7043               479.9916               497.0136
 Red. masses --      4.3877                 1.3968                 3.2754
 Frc consts  --      0.4663                 0.1896                 0.4767
 IR Inten    --      0.9734                90.7309                18.9712

                     13                     14                     15
                      A                      A                      A
 Frequencies --    544.0645               652.1155               780.9622
 Red. masses --      5.5283                 4.2673                 1.1820
 Frc consts  --      0.9642                 1.0692                 0.4248
 IR Inten    --     11.4501                21.7258                 1.8374

                     16                     17                     18
                      A                      A                      A
 Frequencies --    822.5613               865.8394               943.8427
 Red. masses --      2.9471                 3.1887                 1.9427
 Frc consts  --      1.1748                 1.4084                 1.0197
 IR Inten    --      5.5192                34.5056                18.4053

                     19                     20                     21
                      A                      A                      A
 Frequencies --    984.3694              1008.5947              1030.6955
 Red. masses --      3.2712                 4.8484                 2.9379
 Frc consts  --      1.8676                 2.9059                 1.8389
 IR Inten    --     28.0177               120.7982                 9.4711

                     22                     23                     24
                      A                      A                      A
 Frequencies --   1050.3065              1051.8144              1054.5340
 Red. masses --      2.0666                 1.7540                 1.4504
 Frc consts  --      1.3432                 1.1433                 0.9503
 IR Inten    --      2.4690                 5.8961                 0.5185

                     25                     26                     27
                      A                      A                      A
 Frequencies --   1093.8402              1152.0482              1171.4961
 Red. masses --      4.5197                 1.8111                 1.7336
 Frc consts  --      3.1862                 1.4163                 1.4018
 IR Inten    --     83.0665                 4.7256                 2.1345

                     28                     29                     30
                      A                      A                      A
 Frequencies --   1205.7355              1219.6229              1254.3261
 Red. masses --      1.3613                 1.2181                 1.5295
 Frc consts  --      1.1660                 1.0675                 1.4178
 IR Inten    --      7.1081                 5.1025                 5.7119

                     31                     32                     33
                      A                      A                      A
 Frequencies --   1306.1057              1345.4120              1386.4790
 Red. masses --      2.6884                 1.3649                 1.2884
 Frc consts  --      2.7021                 1.4557                 1.4593
 IR Inten    --     43.8058                 3.3884                15.3308

                     34                     35                     36
                      A                      A                      A
 Frequencies --   1413.1662              1432.9368              1476.1138
 Red. masses --      1.2464                 1.2624                 1.0393
 Frc consts  --      1.4666                 1.5272                 1.3342
 IR Inten    --      7.7176                74.4621                 5.9422

                     37                     38                     39
                      A                      A                      A
 Frequencies --   1477.7308              1488.0353              1496.0387
 Red. masses --      1.0400                 1.1005                 1.0890
 Frc consts  --      1.3380                 1.4357                 1.4361
 IR Inten    --      5.5206                 7.2596                 0.6076

                     40                     41                     42
                      A                      A                      A
 Frequencies --   1530.0610              2366.9531              2961.9335
 Red. masses --      1.1047                11.8964                 1.0702
 Frc consts  --      1.5237                39.2685                 5.5319
 IR Inten    --      0.8704                22.1643                66.2521

                     43                     44                     45
                      A                      A                      A
 Frequencies --   3025.7798              3028.4795              3069.7290
 Red. masses --      1.0566                 1.0350                 1.1094
 Frc consts  --      5.6995                 5.5930                 6.1596
 IR Inten    --     92.1210                20.6800                31.2424

                     46                     47                     48
                      A                      A                      A
 Frequencies --   3081.2048              3084.9333              3089.7566
 Red. masses --      1.0918                 1.0616                 1.1003
 Frc consts  --      6.1071                 5.9524                 6.1887
 IR Inten    --     23.9137                24.0303                 9.4918

                     49                     50                     51
                      A                      A                      A
 Frequencies --   3091.5666              3150.6170              3767.1586
 Red. masses --      1.1001                 1.1069                 1.0651
 Frc consts  --      6.1949                 6.4737                 8.9060
 IR Inten    --      8.3432                16.1944                31.0719

 - Thermochemistry -
 -------------------
 Temperature   298.150 Kelvin.  Pressure   1.00000 Atm.
 Atom     1 has atomic number  6 and mass  12.00000

 Molecular mass:   126.06808 amu.
 Principal axes and moments of inertia in atomic units:
                           1         2         3
     Eigenvalues --   798.486701604.193712050.32387
           X            0.99992  -0.00760   0.01052
           Y            0.00759   0.99997   0.00174
           Z           -0.01053  -0.00166   0.99994
 This molecule is an asymmetric top.
 Rotational symmetry number  1.
 Warning -- assumption of classical behavior for rotation
           may cause significant error
 Rotational temperatures (Kelvin)      0.10847     0.05399     0.04224
 Rotational constants (GHZ):           2.26020     1.12501     0.88022
 Zero-point vibrational energy     412587.4 (Joules/Mol)
                                   98.61076 (Kcal/Mol)
 Warning -- explicit consideration of  13 degrees of freedom as
           vibrations may cause significant error
 Vibrational temperatures:     39.84    96.81   116.06   167.38   200.64
          (Kelvin)            324.34   418.49   449.27   518.80   611.05
                              690.60   715.09   782.79   938.25  1123.63
                             1183.48  1245.75  1357.98  1416.29  1451.14
                             1482.94  1511.15  1513.32  1517.24  1573.79
                             1657.54  1685.52  1734.78  1754.76  1804.69
                             1879.19  1935.75  1994.83  2033.23  2061.67
                             2123.80  2126.12  2140.95  2152.46  2201.41
                             3405.51  4261.56  4353.42  4357.30  4416.65
                             4433.16  4438.53  4445.47  4448.07  4533.03
                             5420.09

 Zero-point correction=                           0.157146 (Hartree/Particle)
 Thermal correction to Energy=                    0.167224
 Thermal correction to Enthalpy=                  0.168168
 Thermal correction to Gibbs Free Energy=         0.120425
 Sum of electronic and zero-point Energies=           -422.977809
 Sum of electronic and thermal Energies=              -422.967732
 Sum of electronic and thermal Enthalpies=            -422.966787
 Sum of electronic and thermal Free Energies=         -423.014530

                     E (Thermal)             CV                S
                      KCal/Mol        Cal/Mol-Kelvin    Cal/Mol-Kelvin
 Total                  104.934             35.115            100.482
 Electronic               0.000              0.000              0.000
 Translational            0.889              2.981             40.409
 Rotational               0.889              2.981             29.353
 Vibrational            103.157             29.153             30.721
 Vibration     1          0.593              1.984              5.988
 Vibration     2          0.598              1.970              4.231
 Vibration     3          0.600              1.962              3.875
 Vibration     4          0.608              1.936              3.160
 Vibration     5          0.615              1.914              2.811
 Vibration     6          0.650              1.802              1.915
 Vibration     7          0.687              1.691              1.469
 Vibration     8          0.701              1.650              1.350
 Vibration     9          0.735              1.553              1.120
 Vibration    10          0.787              1.417              0.876
 Vibration    11          0.836              1.294              0.710
 Vibration    12          0.853              1.257              0.666
 Vibration    13          0.899              1.153              0.557

 Normal termination of Gaussian 09 at Tue Jan 28 09:49:00 2020.
