 Gaussian 09, Revision D.01,
 Gaussian 09:  ES64L-G09RevD.01 24-Apr-2013

 -----------------------------
 # b3lyp 6-31G(2df,p) opt Freq
 -----------------------------

 -----
 titel
 -----
 Symbolic Z-matrix:
 Charge =  0 Multiplicity = 1

 SCF Done:  E(RB3LYP) =  -423.131961735     A.U. after   12 cycles
 Optimization completed.
    -- Stationary point found.
 Normal termination of Gaussian 09 at Mon Jan 27 22:03:55 2020.

 ----------------------------------------------------------------------
 #N Geom=AllCheck Guess=TCheck SCRF=Check GenChk RB3LYP/6-31G(2df,p) Fr
 eq
 ----------------------------------------------------------------------

 Structure from the checkpoint file:  "/scratch/puck/g09_bf640253-afc5-4017-af4b-11c15cfddafb/Gau-189606.chk"
 -----
 titel
 -----
 Charge =  0 Multiplicity = 1

                         Standard orientation:
 ---------------------------------------------------------------------
 Center     Atomic      Atomic             Coordinates (Angstroms)
 Number     Number       Type             X           Y           Z
 ---------------------------------------------------------------------
      1          8           0       -1.236566    1.981476   -0.338223
      2          6           0       -1.035991    0.781803    0.365411
      3          6           0       -1.140782   -0.579931   -0.368268
      4          8           0       -2.280649   -1.288870    0.065243
      5          6           0        0.225859   -1.015084    0.242701
      6          6           0        1.391413   -0.703618   -0.682057
      7          6           0        2.608121   -0.305343    0.100639
      8          6           0        1.514637    0.709586   -0.080875
      9          6           0        0.379173    0.428157    0.894291
     10          1           0       -0.628847    1.992636   -1.084930
     11          1           0       -1.763269    0.779879    1.181759
     12          1           0       -1.114281   -0.495921   -1.465913
     13          1           0       -2.259749   -2.165825   -0.331590
     14          1           0        0.219664   -1.947050    0.812359
     15          1           0        1.454706   -1.002302   -1.723499
     16          1           0        2.799718   -0.736270    1.080804
     17          1           0        3.501692   -0.131726   -0.490911
     18          1           0        1.704021    1.654663   -0.578532
     19          1           0        0.569504    0.617660    1.953237
 ---------------------------------------------------------------------

 SCF Done:  E(RB3LYP) =  -423.131961735     A.U. after    1 cycles

 The electronic state is 1-A.
 Alpha  occ. eigenvalues --  -19.13815 -19.13492 -10.22693 -10.22432 -10.19757
 Alpha  occ. eigenvalues --  -10.19736 -10.19063 -10.18938 -10.18668  -1.02573
 Alpha  occ. eigenvalues --   -1.01302  -0.90551  -0.79315  -0.67314  -0.66042
 Alpha  occ. eigenvalues --   -0.59757  -0.58550  -0.52505  -0.52048  -0.50995
 Alpha  occ. eigenvalues --   -0.49665  -0.45155  -0.42339  -0.41142  -0.39876
 Alpha  occ. eigenvalues --   -0.38489  -0.35069  -0.34473  -0.32856  -0.30962
 Alpha  occ. eigenvalues --   -0.28986  -0.26733  -0.25501  -0.24926
 Alpha virt. eigenvalues --    0.06857   0.08140   0.10055   0.10703   0.11283
 Alpha virt. eigenvalues --    0.12625   0.13223   0.15033   0.15296   0.18202
 Alpha virt. eigenvalues --    0.18537   0.18934   0.19776   0.22243   0.22965

 Mulliken charges:
               1
     1  O   -0.432201
     2  C    0.132400
     3  C    0.077025
     4  O   -0.435981
     5  C   -0.094685
     6  C   -0.049539
     7  C   -0.300398
     8  C   -0.056893
     9  C   -0.083122
    10  H    0.281201
    11  H    0.106414
    12  H    0.055323
    13  H    0.281676
    14  H    0.065986
    15  H    0.082047
    16  H    0.108740
    17  H    0.112357
    18  H    0.082489
    19  H    0.067162
 Sum of Mulliken charges =   0.00000

 Dipole moment (field-independent basis, Debye):
    X=              1.9896    Y=             -1.5916    Z=             -1.3230  Tot=              2.8709
 Quadrupole moment (field-independent basis, Debye-Ang):
   XX=            -57.6922   YY=            -52.4871   ZZ=            -50.0913
   XY=              4.4931   XZ=              0.3263   YZ=              0.0669

  Exact polarizability:  84.321   1.436  72.662  -1.602   0.327  66.646
 Approx polarizability: 112.004   1.384 111.711  -2.859   1.510 103.915

                      1                      2                      3
                      A                      A                      A
 Frequencies --     76.4438               192.5697               247.3072
 Red. masses --      3.5516                 3.5715                 2.5400
 Frc consts  --      0.0122                 0.0780                 0.0915
 IR Inten    --      0.9146                 1.5995                15.1502

                      4                      5                      6
                      A                      A                      A
 Frequencies --    269.8281               302.0293               316.5881
 Red. masses --      2.1562                 1.4347                 1.5204
 Frc consts  --      0.0925                 0.0771                 0.0898
 IR Inten    --     28.9210                20.0452                62.4167

                      7                      8                      9
                      A                      A                      A
 Frequencies --    375.4968               420.9626               446.0519
 Red. masses --      2.4589                 3.4870                 4.1870
 Frc consts  --      0.2043                 0.3641                 0.4908
 IR Inten    --     78.7018                 6.3421                 3.3478

                     10                     11                     12
                      A                      A                      A
 Frequencies --    601.4320               641.4653               764.4941
 Red. masses --      3.8807                 3.6723                 1.9130
 Frc consts  --      0.8271                 0.8903                 0.6587
 IR Inten    --      8.6998                11.7435                 6.8693

                     13                     14                     15
                      A                      A                      A
 Frequencies --    774.6379               828.3407               853.6090
 Red. masses --      2.1145                 1.9622                 3.6705
 Frc consts  --      0.7476                 0.7932                 1.5758
 IR Inten    --     18.6475                 7.3598                 5.0681

                     16                     17                     18
                      A                      A                      A
 Frequencies --    919.0055               936.3674               965.2817
 Red. masses --      2.3231                 2.0293                 1.7928
 Frc consts  --      1.1560                 1.0483                 0.9842
 IR Inten    --      8.1429                 2.6354                 3.4900

                     19                     20                     21
                      A                      A                      A
 Frequencies --    989.4655              1008.4753              1039.0666
 Red. masses --      2.5764                 1.7923                 1.6718
 Frc consts  --      1.4861                 1.0740                 1.0635
 IR Inten    --     22.7117                 0.2752                 6.6488

                     22                     23                     24
                      A                      A                      A
 Frequencies --   1051.8287              1069.5034              1081.7896
 Red. masses --      1.3549                 1.4575                 1.7496
 Frc consts  --      0.8832                 0.9823                 1.2064
 IR Inten    --     11.8554                14.3629                 1.2226

                     25                     26                     27
                      A                      A                      A
 Frequencies --   1095.9739              1113.9395              1123.8458
 Red. masses --      1.5384                 4.0697                 2.2831
 Frc consts  --      1.0887                 2.9753                 1.6990
 IR Inten    --      1.7580                84.0654                78.4074

                     28                     29                     30
                      A                      A                      A
 Frequencies --   1141.9533              1162.0451              1188.7546
 Red. masses --      1.7926                 1.1656                 1.6557
 Frc consts  --      1.3773                 0.9273                 1.3785
 IR Inten    --     16.7785                49.5097                 3.0837

                     31                     32                     33
                      A                      A                      A
 Frequencies --   1210.7962              1228.9022              1249.8370
 Red. masses --      1.7604                 1.3458                 1.6629
 Frc consts  --      1.5205                 1.1975                 1.5305
 IR Inten    --      1.8703                 0.5812                 1.8184

                     34                     35                     36
                      A                      A                      A
 Frequencies --   1285.2467              1294.8124              1313.7132
 Red. masses --      1.4806                 1.5210                 1.4962
 Frc consts  --      1.4410                 1.5025                 1.5214
 IR Inten    --      3.7427                18.6336                54.2952

                     37                     38                     39
                      A                      A                      A
 Frequencies --   1335.3962              1351.4926              1410.7732
 Red. masses --      1.8504                 2.2926                 1.2924
 Frc consts  --      1.9442                 2.4672                 1.5156
 IR Inten    --      5.6001                 1.8908                24.7759

                     40                     41                     42
                      A                      A                      A
 Frequencies --   1441.5975              1490.5042              2974.0703
 Red. masses --      1.4282                 1.2106                 1.0848
 Frc consts  --      1.7488                 1.5846                 5.6531
 IR Inten    --     44.3317                 1.6544                53.5267

                     43                     44                     45
                      A                      A                      A
 Frequencies --   3072.2665              3082.8409              3090.4520
 Red. masses --      1.0864                 1.0868                 1.0890
 Frc consts  --      6.0416                 6.0856                 6.1280
 IR Inten    --     29.0488                17.1409                54.7547

                     46                     47                     48
                      A                      A                      A
 Frequencies --   3107.3552              3156.2928              3166.1884
 Red. masses --      1.0564                 1.0877                 1.0971
 Frc consts  --      6.0100                 6.3842                 6.4802
 IR Inten    --     24.3467                25.2625                12.7811

                     49                     50                     51
                      A                      A                      A
 Frequencies --   3198.6039              3811.0239              3812.1927
 Red. masses --      1.1119                 1.0661                 1.0657
 Frc consts  --      6.7027                 9.1227                 9.1254
 IR Inten    --     16.1104                21.0269                10.5005

 - Thermochemistry -
 -------------------
 Temperature   298.150 Kelvin.  Pressure   1.00000 Atm.
 Atom     1 has atomic number  8 and mass  15.99491

 Molecular mass:   126.06808 amu.
 Principal axes and moments of inertia in atomic units:
                           1         2         3
     Eigenvalues --   649.397771220.227861617.20815
           X            0.99995   0.00952   0.00023
           Y           -0.00952   0.99995  -0.00114
           Z           -0.00024   0.00114   1.00000
 This molecule is an asymmetric top.
 Rotational symmetry number  1.
 Warning -- assumption of classical behavior for rotation
           may cause significant error
 Rotational temperatures (Kelvin)      0.13338     0.07098     0.05356
 Rotational constants (GHZ):           2.77910     1.47902     1.11596
 Zero-point vibrational energy     419188.9 (Joules/Mol)
                                  100.18855 (Kcal/Mol)
 Warning -- explicit consideration of  10 degrees of freedom as
           vibrations may cause significant error
 Vibrational temperatures:    109.99   277.06   355.82   388.22   434.55
          (Kelvin)            455.50   540.26   605.67   641.77   865.33
                              922.92  1099.94  1114.53  1191.80  1228.15
                             1322.24  1347.22  1388.82  1423.62  1450.97
                             1494.98  1513.34  1538.77  1556.45  1576.86
                             1602.71  1616.96  1643.01  1671.92  1710.35
                             1742.06  1768.11  1798.23  1849.18  1862.94
                             1890.14  1921.33  1944.49  2029.79  2074.13
                             2144.50  4279.02  4420.30  4435.51  4446.47
                             4470.79  4541.20  4555.43  4602.07  5483.21
                             5484.89

 Zero-point correction=                           0.159661 (Hartree/Particle)
 Thermal correction to Energy=                    0.167688
 Thermal correction to Enthalpy=                  0.168632
 Thermal correction to Gibbs Free Energy=         0.127218
 Sum of electronic and zero-point Energies=           -422.972301
 Sum of electronic and thermal Energies=              -422.964274
 Sum of electronic and thermal Enthalpies=            -422.963330
 Sum of electronic and thermal Free Energies=         -423.004743

                     E (Thermal)             CV                S
                      KCal/Mol        Cal/Mol-Kelvin    Cal/Mol-Kelvin
 Total                  105.226             31.851             87.162
 Electronic               0.000              0.000              0.000
 Translational            0.889              2.981             40.409
 Rotational               0.889              2.981             28.640
 Vibrational            103.448             25.890             18.113
 Vibration     1          0.599              1.965              3.980
 Vibration     2          0.635              1.850              2.203
 Vibration     3          0.661              1.767              1.750
 Vibration     4          0.674              1.729              1.597
 Vibration     5          0.694              1.670              1.406
 Vibration     6          0.703              1.642              1.328
 Vibration     7          0.746              1.522              1.057
 Vibration     8          0.783              1.425              0.889
 Vibration     9          0.805              1.370              0.808
 Vibration    10          0.960              1.029              0.447

 Optimization completed.
    -- Stationary point found.
 Normal termination of Gaussian 09 at Mon Jan 27 22:48:49 2020.
