 Gaussian 09, Revision D.01,
 Gaussian 09:  ES64L-G09RevD.01 24-Apr-2013

 -----------------------------
 # b3lyp 6-31G(2df,p) opt Freq
 -----------------------------

 -----
 titel
 -----
 Symbolic Z-matrix:
 Charge =  0 Multiplicity = 1

 SCF Done:  E(RB3LYP) =  -423.193163980     A.U. after   14 cycles
 Optimization completed.
    -- Stationary point found.
 Normal termination of Gaussian 09 at Mon Jan 27 13:15:57 2020.

 ----------------------------------------------------------------------
 #N Geom=AllCheck Guess=TCheck SCRF=Check GenChk RB3LYP/6-31G(2df,p) Fr
 eq
 ----------------------------------------------------------------------

 Structure from the checkpoint file:  "/scratch/puck/g09_941f36fc-82f1-47b3-adaf-00e44870085f/Gau-169429.chk"
 -----
 titel
 -----
 Charge =  0 Multiplicity = 1

                         Standard orientation:
 ---------------------------------------------------------------------
 Center     Atomic      Atomic             Coordinates (Angstroms)
 Number     Number       Type             X           Y           Z
 ---------------------------------------------------------------------
      1          8           0        2.509121   -0.471035    0.819442
      2          6           0        1.887667   -0.473825   -0.213563
      3          6           0        0.443317   -0.089950   -0.351050
      4          6           0        0.182151    1.279133   -1.037056
      5          8           0       -0.560772    1.753219    0.097623
      6          6           0       -0.293563    0.544354    0.858005
      7          6           0       -1.548798   -0.284618    1.101277
      8          6           0       -1.851504   -0.915758   -0.272089
      9          6           0       -0.457135   -1.244331   -0.849038
     10          1           0        2.375602   -0.778161   -1.169963
     11          1           0        1.078996    1.884865   -1.224589
     12          1           0       -0.423161    1.244228   -1.951911
     13          1           0        0.300383    0.755359    1.750497
     14          1           0       -1.320709   -1.061452    1.841846
     15          1           0       -2.368420    0.323490    1.493512
     16          1           0       -2.494917   -1.796905   -0.210136
     17          1           0       -2.358823   -0.184049   -0.909108
     18          1           0       -0.096226   -2.194658   -0.436472
     19          1           0       -0.452330   -1.340225   -1.939112
 ---------------------------------------------------------------------

 SCF Done:  E(RB3LYP) =  -423.193163980     A.U. after    1 cycles

 The electronic state is 1-A.
 Alpha  occ. eigenvalues --  -19.14567 -19.13751 -10.27553 -10.24172 -10.23342
 Alpha  occ. eigenvalues --  -10.20661 -10.20044 -10.19124 -10.18559  -1.05381
 Alpha  occ. eigenvalues --   -1.04209  -0.83720  -0.76190  -0.70999  -0.66684
 Alpha  occ. eigenvalues --   -0.61966  -0.58798  -0.53297  -0.51712  -0.48789
 Alpha  occ. eigenvalues --   -0.47440  -0.44949  -0.43751  -0.42908  -0.41181
 Alpha  occ. eigenvalues --   -0.39771  -0.37648  -0.35694  -0.35129  -0.34118
 Alpha  occ. eigenvalues --   -0.31686  -0.30786  -0.25569  -0.25336
 Alpha virt. eigenvalues --   -0.02798   0.07095   0.08117   0.10734   0.12213
 Alpha virt. eigenvalues --    0.12448   0.13681   0.15067   0.15296   0.15942
 Alpha virt. eigenvalues --    0.16190   0.17968   0.19023   0.20250   0.21798

 Mulliken charges:
               1
     1  O   -0.247441
     2  C    0.067027
     3  C    0.193342
     4  C   -0.122303
     5  O   -0.295910
     6  C    0.101693
     7  C   -0.229235
     8  C   -0.217063
     9  C   -0.288517
    10  H    0.075060
    11  H    0.107326
    12  H    0.103623
    13  H    0.094326
    14  H    0.105843
    15  H    0.113255
    16  H    0.102874
    17  H    0.117715
    18  H    0.112304
    19  H    0.106082
 Sum of Mulliken charges =   0.00000

 Dipole moment (field-independent basis, Debye):
    X=             -1.3292    Y=             -1.3818    Z=             -1.9815  Tot=              2.7573
 Quadrupole moment (field-independent basis, Debye-Ang):
   XX=            -58.2769   YY=            -55.5734   ZZ=            -51.4914
   XY=              3.0938   XZ=             -4.6046   YZ=             -0.3539

  Exact polarizability:  80.178   1.073  68.493  -1.043  -0.808  75.510
 Approx polarizability: 110.241  -2.196 101.626   4.960  -1.831 117.704

                      1                      2                      3
                      A                      A                      A
 Frequencies --     35.2864               116.5743               176.6566
 Red. masses --      4.3200                 2.7632                 5.0609
 Frc consts  --      0.0032                 0.0221                 0.0931
 IR Inten    --      5.2564                 2.6923                 4.6890

                      4                      5                      6
                      A                      A                      A
 Frequencies --    217.0881               279.8513               331.2003
 Red. masses --      2.1930                 2.1525                 2.0862
 Frc consts  --      0.0609                 0.0993                 0.1348
 IR Inten    --      0.8934                 0.7872                 1.9879

                      7                      8                      9
                      A                      A                      A
 Frequencies --    375.0235               487.0815               588.4332
 Red. masses --      2.3711                 3.6809                 3.0024
 Frc consts  --      0.1965                 0.5145                 0.6125
 IR Inten    --      6.5805                 0.5034                 1.4891

                     10                     11                     12
                      A                      A                      A
 Frequencies --    619.7564               696.5786               828.8230
 Red. masses --      2.4256                 4.0241                 2.3542
 Frc consts  --      0.5489                 1.1504                 0.9528
 IR Inten    --      1.2190                22.2387                 4.7504

                     13                     14                     15
                      A                      A                      A
 Frequencies --    835.0667               872.2949               900.9515
 Red. masses --      2.1949                 3.0975                 2.0456
 Frc consts  --      0.9018                 1.3887                 0.9783
 IR Inten    --     11.3649                 4.6363                 7.4789

                     16                     17                     18
                      A                      A                      A
 Frequencies --    911.7819               942.7171               953.2644
 Red. masses --      1.8784                 2.0991                 2.1178
 Frc consts  --      0.9201                 1.0991                 1.1339
 IR Inten    --      2.2335                14.1117                 1.5043

                     19                     20                     21
                      A                      A                      A
 Frequencies --    989.9935              1020.2970              1031.9765
 Red. masses --      1.8438                 2.6007                 3.1327
 Frc consts  --      1.0647                 1.5951                 1.9656
 IR Inten    --      5.5952                25.8506                42.9262

                     22                     23                     24
                      A                      A                      A
 Frequencies --   1046.6803              1104.3498              1142.5359
 Red. masses --      1.8485                 1.8564                 1.7319
 Frc consts  --      1.1931                 1.3339                 1.3320
 IR Inten    --     20.2189                13.2369                 3.2385

                     25                     26                     27
                      A                      A                      A
 Frequencies --   1160.2349              1182.0891              1194.8971
 Red. masses --      1.4700                 1.7898                 2.5191
 Frc consts  --      1.1659                 1.4735                 2.1191
 IR Inten    --      0.1088                 8.1538                 0.7875

                     28                     29                     30
                      A                      A                      A
 Frequencies --   1231.7846              1260.3518              1289.5538
 Red. masses --      1.5031                 1.8196                 1.5052
 Frc consts  --      1.3437                 1.7030                 1.4748
 IR Inten    --      2.3128                 6.8432                 1.3279

                     31                     32                     33
                      A                      A                      A
 Frequencies --   1310.9291              1331.8737              1338.2661
 Red. masses --      1.2982                 1.5052                 1.2947
 Frc consts  --      1.3145                 1.5732                 1.3661
 IR Inten    --      0.2338                 2.5723                 1.1717

                     34                     35                     36
                      A                      A                      A
 Frequencies --   1367.6642              1374.4914              1427.6120
 Red. masses --      1.3315                 1.7467                 1.2284
 Frc consts  --      1.4674                 1.9443                 1.4750
 IR Inten    --      6.8248                10.3263                 7.0442

                     37                     38                     39
                      A                      A                      A
 Frequencies --   1469.1175              1485.7275              1498.0504
 Red. masses --      1.0942                 1.0838                 1.1043
 Frc consts  --      1.3914                 1.4096                 1.4602
 IR Inten    --      4.8525                 3.7552                 1.9273

                     40                     41                     42
                      A                      A                      A
 Frequencies --   1522.2576              1821.2179              2849.4963
 Red. masses --      1.0956                10.7603                 1.0814
 Frc consts  --      1.4958                21.0280                 5.1733
 IR Inten    --      0.0949               158.6583               119.3872

                     43                     44                     45
                      A                      A                      A
 Frequencies --   3000.3913              3030.1904              3036.1846
 Red. masses --      1.0545                 1.0639                 1.0660
 Frc consts  --      5.5931                 5.7557                 5.7898
 IR Inten    --     69.8411                23.6754                15.7977

                     46                     47                     48
                      A                      A                      A
 Frequencies --   3045.1160              3055.3589              3084.7423
 Red. masses --      1.1105                 1.0631                 1.0966
 Frc consts  --      6.0672                 5.8474                 6.1481
 IR Inten    --     34.4745                19.8015                38.7019

                     49                     50                     51
                      A                      A                      A
 Frequencies --   3088.4683              3099.3066              3108.6802
 Red. masses --      1.0888                 1.0969                 1.1050
 Frc consts  --      6.1193                 6.2077                 6.2914
 IR Inten    --     14.7180                16.5836                33.6003

 - Thermochemistry -
 -------------------
 Temperature   298.150 Kelvin.  Pressure   1.00000 Atm.
 Atom     1 has atomic number  8 and mass  15.99491

 Molecular mass:   126.06808 amu.
 Principal axes and moments of inertia in atomic units:
                           1         2         3
     Eigenvalues --   729.669611180.048461346.24399
           X            0.99832   0.05032  -0.02877
           Y           -0.05033   0.99873   0.00018
           Z            0.02874   0.00126   0.99959
 This molecule is an asymmetric top.
 Rotational symmetry number  1.
 Warning -- assumption of classical behavior for rotation
           may cause significant error
 Rotational temperatures (Kelvin)      0.11870     0.07340     0.06434
 Rotational constants (GHZ):           2.47337     1.52938     1.34058
 Zero-point vibrational energy     419699.7 (Joules/Mol)
                                  100.31064 (Kcal/Mol)
 Warning -- explicit consideration of  10 degrees of freedom as
           vibrations may cause significant error
 Vibrational temperatures:     50.77   167.72   254.17   312.34   402.64
          (Kelvin)            476.52   539.57   700.80   846.62   891.69
                             1002.22  1192.49  1201.47  1255.04  1296.27
                             1311.85  1356.36  1371.53  1424.38  1467.98
                             1484.78  1505.94  1588.91  1643.85  1669.32
                             1700.76  1719.19  1772.26  1813.36  1855.38
                             1886.13  1916.27  1925.46  1967.76  1977.58
                             2054.01  2113.73  2137.63  2155.36  2190.19
                             2620.32  4099.78  4316.89  4359.76  4368.39
                             4381.24  4395.97  4438.25  4443.61  4459.21
                             4472.69

 Zero-point correction=                           0.159855 (Hartree/Particle)
 Thermal correction to Energy=                    0.167962
 Thermal correction to Enthalpy=                  0.168906
 Thermal correction to Gibbs Free Energy=         0.126338
 Sum of electronic and zero-point Energies=           -423.033309
 Sum of electronic and thermal Energies=              -423.025202
 Sum of electronic and thermal Enthalpies=            -423.024258
 Sum of electronic and thermal Free Energies=         -423.066826

                     E (Thermal)             CV                S
                      KCal/Mol        Cal/Mol-Kelvin    Cal/Mol-Kelvin
 Total                  105.398             30.341             89.591
 Electronic               0.000              0.000              0.000
 Translational            0.889              2.981             40.409
 Rotational               0.889              2.981             28.540
 Vibrational            103.620             24.380             20.642
 Vibration     1          0.594              1.982              5.508
 Vibration     2          0.608              1.936              3.156
 Vibration     3          0.628              1.871              2.363
 Vibration     4          0.646              1.815              1.983
 Vibration     5          0.680              1.711              1.535
 Vibration     6          0.714              1.613              1.254
 Vibration     7          0.746              1.523              1.059
 Vibration     8          0.843              1.279              0.691
 Vibration     9          0.946              1.056              0.470
 Vibration    10          0.980              0.990              0.417

 Optimization completed.
    -- Stationary point found.
 Normal termination of Gaussian 09 at Mon Jan 27 14:02:06 2020.
