 Gaussian 09, Revision D.01,
 Gaussian 09:  ES64L-G09RevD.01 24-Apr-2013

 -----------------------------
 # b3lyp 6-31G(2df,p) opt Freq
 -----------------------------

 -----
 titel
 -----
 Symbolic Z-matrix:
 Charge =  0 Multiplicity = 1

 SCF Done:  E(RB3LYP) =  -423.113362223     A.U. after   14 cycles
 Optimization completed.
    -- Stationary point found.
 Normal termination of Gaussian 09 at Tue Jan 28 13:37:42 2020.

 ----------------------------------------------------------------------
 #N Geom=AllCheck Guess=TCheck SCRF=Check GenChk RB3LYP/6-31G(2df,p) Fr
 eq
 ----------------------------------------------------------------------

 Structure from the checkpoint file:  "/scratch/puck/g09_4c633529-960f-4f77-959b-fe59b3c13199/Gau-9130.chk"
 -----
 titel
 -----
 Charge =  0 Multiplicity = 1

                         Standard orientation:
 ---------------------------------------------------------------------
 Center     Atomic      Atomic             Coordinates (Angstroms)
 Number     Number       Type             X           Y           Z
 ---------------------------------------------------------------------
      1          6           0       -3.091025   -0.138207   -0.106180
      2          8           0       -1.791467   -0.658861   -0.264643
      3          6           0       -0.818134   -0.018314    0.537462
      4          6           0       -0.342015    1.363294   -0.025405
      5          6           0        1.110730    1.034764   -0.340608
      6          6           0        1.225384   -0.430504   -0.855146
      7          8           0        2.531006   -0.594831   -0.194473
      8          6           0        1.686500    0.113983    0.775182
      9          6           0        0.475737   -0.809431    0.454874
     10          1           0       -3.157939    0.918885   -0.404979
     11          1           0       -3.755573   -0.723864   -0.745963
     12          1           0       -3.436161   -0.221878    0.936513
     13          1           0       -1.190156    0.067146    1.570438
     14          1           0       -0.915024    1.634574   -0.917229
     15          1           0       -0.438363    2.176574    0.700830
     16          1           0        1.769016    1.784338   -0.777988
     17          1           0        1.106354   -0.831082   -1.861222
     18          1           0        2.124058    0.375464    1.739681
     19          1           0        0.494411   -1.844133    0.791778
 ---------------------------------------------------------------------

 SCF Done:  E(RB3LYP) =  -423.113362223     A.U. after    1 cycles

 The electronic state is 1-A.
 Alpha  occ. eigenvalues --  -19.14268 -19.12595 -10.24480 -10.24239 -10.23583
 Alpha  occ. eigenvalues --  -10.22676 -10.19652 -10.19260 -10.18565  -1.05541
 Alpha  occ. eigenvalues --   -1.03485  -0.84582  -0.72084  -0.70918  -0.66175
 Alpha  occ. eigenvalues --   -0.64782  -0.57496  -0.52844  -0.52060  -0.49726
 Alpha  occ. eigenvalues --   -0.48834  -0.44596  -0.43352  -0.42146  -0.39017
 Alpha  occ. eigenvalues --   -0.38713  -0.36765  -0.35194  -0.33009  -0.32044
 Alpha  occ. eigenvalues --   -0.31004  -0.30581  -0.25638  -0.22791
 Alpha virt. eigenvalues --    0.07894   0.09828   0.10963   0.11964   0.12959
 Alpha virt. eigenvalues --    0.13299   0.14181   0.14687   0.15389   0.15878
 Alpha virt. eigenvalues --    0.16365   0.17490   0.17909   0.18743   0.20194

 Mulliken charges:
               1
     1  C   -0.235901
     2  O   -0.250529
     3  C    0.114886
     4  C   -0.282956
     5  C   -0.033765
     6  C    0.063788
     7  O   -0.320297
     8  C    0.042412
     9  C   -0.060390
    10  H    0.105884
    11  H    0.128621
    12  H    0.105016
    13  H    0.063981
    14  H    0.111057
    15  H    0.100865
    16  H    0.079158
    17  H    0.095885
    18  H    0.089317
    19  H    0.082970
 Sum of Mulliken charges =   0.00000

 Dipole moment (field-independent basis, Debye):
    X=             -2.1461    Y=              1.5735    Z=              0.8163  Tot=              2.7835
 Quadrupole moment (field-independent basis, Debye-Ang):
   XX=            -56.9598   YY=            -53.4558   ZZ=            -50.4478
   XY=              1.3456   XZ=              0.7499   YZ=             -0.1176

  Exact polarizability:  87.030   0.467  69.453   0.944   0.321  68.539
 Approx polarizability: 114.053  -0.916 105.001   1.578   2.692 108.134

                      1                      2                      3
                      A                      A                      A
 Frequencies --     97.1856               120.4804               188.3458
 Red. masses --      3.3981                 2.4128                 1.3052
 Frc consts  --      0.0189                 0.0206                 0.0273
 IR Inten    --      0.1191                 2.0186                 0.2057

                      4                      5                      6
                      A                      A                      A
 Frequencies --    258.0240               346.7601               406.8949
 Red. masses --      2.3458                 2.8832                 3.5496
 Frc consts  --      0.0920                 0.2043                 0.3463
 IR Inten    --      2.6784                 1.2418                 3.1960

                      7                      8                      9
                      A                      A                      A
 Frequencies --    465.6231               521.8227               674.1957
 Red. masses --      4.3510                 3.5956                 4.5273
 Frc consts  --      0.5558                 0.5768                 1.2124
 IR Inten    --      9.7173                 0.7202                 2.8300

                     10                     11                     12
                      A                      A                      A
 Frequencies --    738.6266               772.2179               797.0021
 Red. masses --      3.9070                 3.4738                 2.9542
 Frc consts  --      1.2559                 1.2205                 1.1056
 IR Inten    --      1.0624                 6.9821                 1.2901

                     13                     14                     15
                      A                      A                      A
 Frequencies --    842.2274               887.8548               897.8434
 Red. masses --      2.7843                 3.2630                 2.1611
 Frc consts  --      1.1637                 1.5155                 1.0264
 IR Inten    --      2.5857                11.3472                 8.5080

                     16                     17                     18
                      A                      A                      A
 Frequencies --    905.3305               960.9385               973.6694
 Red. masses --      2.7407                 3.4434                 1.5741
 Frc consts  --      1.3235                 1.8734                 0.8792
 IR Inten    --     36.1376                 7.5941                 1.3843

                     19                     20                     21
                      A                      A                      A
 Frequencies --    989.2151               994.5975              1052.6950
 Red. masses --      1.4127                 2.0444                 1.5663
 Frc consts  --      0.8145                 1.1915                 1.0227
 IR Inten    --      7.5241                 5.0015                 4.8080

                     22                     23                     24
                      A                      A                      A
 Frequencies --   1061.3193              1119.4342              1128.2598
 Red. masses --      2.4643                 1.8208                 3.0126
 Frc consts  --      1.6354                 1.3443                 2.2595
 IR Inten    --      7.4603                69.0433                 0.1847

                     25                     26                     27
                      A                      A                      A
 Frequencies --   1158.1394              1165.2790              1182.6762
 Red. masses --      1.9501                 1.3431                 1.4528
 Frc consts  --      1.5411                 1.0745                 1.1973
 IR Inten    --     77.2928                 0.1453                 9.8879

                     28                     29                     30
                      A                      A                      A
 Frequencies --   1184.5768              1216.2539              1232.3257
 Red. masses --      1.4696                 1.4612                 1.7330
 Frc consts  --      1.2150                 1.2735                 1.5506
 IR Inten    --     19.6236                10.6716                 2.3792

                     31                     32                     33
                      A                      A                      A
 Frequencies --   1244.2399              1249.0293              1271.7854
 Red. masses --      1.5978                 1.8968                 1.7577
 Frc consts  --      1.4574                 1.7435                 1.6750
 IR Inten    --     41.3655                14.5327                 0.5987

                     34                     35                     36
                      A                      A                      A
 Frequencies --   1281.1022              1326.9828              1368.4143
 Red. masses --      1.6954                 1.5156                 1.6735
 Frc consts  --      1.6395                 1.5724                 1.8463
 IR Inten    --      6.3628                 0.4691                 5.0837

                     37                     38                     39
                      A                      A                      A
 Frequencies --   1395.7021              1479.8573              1483.8722
 Red. masses --      1.4782                 1.1268                 1.0827
 Frc consts  --      1.6966                 1.4539                 1.4046
 IR Inten    --     33.4913                 0.5256                 4.7926

                     40                     41                     42
                      A                      A                      A
 Frequencies --   1489.6361              1509.3796              2971.4148
 Red. masses --      1.0857                 1.0610                 1.0505
 Frc consts  --      1.4194                 1.4241                 5.4646
 IR Inten    --      1.3537                 5.9707                30.2551

                     43                     44                     45
                      A                      A                      A
 Frequencies --   2979.7586              3020.8601              3050.1917
 Red. masses --      1.0698                 1.1020                 1.0598
 Frc consts  --      5.5965                 5.9250                 5.8094
 IR Inten    --     77.1155                48.1293                33.8407

                     46                     47                     48
                      A                      A                      A
 Frequencies --   3095.9054              3106.4576              3114.3843
 Red. masses --      1.1051                 1.0903                 1.0961
 Frc consts  --      6.2406                 6.1994                 6.2639
 IR Inten    --     18.0742                53.5313                28.8425

                     49                     50                     51
                      A                      A                      A
 Frequencies --   3123.8489              3136.1327              3149.2849
 Red. masses --      1.0894                 1.0911                 1.0936
 Frc consts  --      6.2635                 6.3229                 6.3907
 IR Inten    --     34.1628                40.1151                14.0816

 - Thermochemistry -
 -------------------
 Temperature   298.150 Kelvin.  Pressure   1.00000 Atm.
 Atom     1 has atomic number  6 and mass  12.00000

 Molecular mass:   126.06808 amu.
 Principal axes and moments of inertia in atomic units:
                           1         2         3
     Eigenvalues --   403.270561547.491291676.49224
           X            1.00000  -0.00007   0.00033
           Y            0.00007   0.99989  -0.01451
           Z           -0.00032   0.01451   0.99989
 This molecule is an asymmetric top.
 Rotational symmetry number  1.
 Rotational temperatures (Kelvin)      0.21478     0.05597     0.05166
 Rotational constants (GHZ):           4.47526     1.16624     1.07650
 Zero-point vibrational energy     419817.8 (Joules/Mol)
                                  100.33886 (Kcal/Mol)
 Warning -- explicit consideration of   8 degrees of freedom as
           vibrations may cause significant error
 Vibrational temperatures:    139.83   173.34   270.99   371.24   498.91
          (Kelvin)            585.43   669.93   750.79   970.02  1062.72
                             1111.05  1146.71  1211.78  1277.42  1291.79
                             1302.57  1382.57  1400.89  1423.26  1431.00
                             1514.59  1527.00  1610.61  1623.31  1666.30
                             1676.57  1701.61  1704.34  1749.92  1773.04
                             1790.18  1797.07  1829.81  1843.22  1909.23
                             1968.84  2008.10  2129.18  2134.96  2143.25
                             2171.66  4275.20  4287.20  4346.34  4388.54
                             4454.31  4469.49  4480.90  4494.52  4512.19
                             4531.11

 Zero-point correction=                           0.159900 (Hartree/Particle)
 Thermal correction to Energy=                    0.167437
 Thermal correction to Enthalpy=                  0.168381
 Thermal correction to Gibbs Free Energy=         0.127684
 Sum of electronic and zero-point Energies=           -422.953462
 Sum of electronic and thermal Energies=              -422.945925
 Sum of electronic and thermal Enthalpies=            -422.944981
 Sum of electronic and thermal Free Energies=         -422.985678

                     E (Thermal)             CV                S
                      KCal/Mol        Cal/Mol-Kelvin    Cal/Mol-Kelvin
 Total                  105.068             29.479             85.655
 Electronic               0.000              0.000              0.000
 Translational            0.889              2.981             40.409
 Rotational               0.889              2.981             28.439
 Vibrational            103.291             23.517             16.808
 Vibration     1          0.603              1.951              3.510
 Vibration     2          0.609              1.932              3.093
 Vibration     3          0.633              1.856              2.244
 Vibration     4          0.667              1.749              1.675
 Vibration     5          0.725              1.582              1.181
 Vibration     6          0.772              1.455              0.938
 Vibration     7          0.823              1.326              0.750
 Vibration     8          0.877              1.202              0.606

 Optimization completed.
    -- Stationary point found.
 Normal termination of Gaussian 09 at Tue Jan 28 14:28:50 2020.
