 Gaussian 09, Revision D.01,
 Gaussian 09:  ES64L-G09RevD.01 24-Apr-2013

 -----------------------------
 # b3lyp 6-31G(2df,p) opt Freq
 -----------------------------

 -----
 titel
 -----
 Symbolic Z-matrix:
 Charge =  0 Multiplicity = 1

 SCF Done:  E(RB3LYP) =  -423.093568091     A.U. after   14 cycles
 Optimization completed.
    -- Stationary point found.
 Normal termination of Gaussian 09 at Tue Jan 28 14:05:58 2020.

 ----------------------------------------------------------------------
 #N Geom=AllCheck Guess=TCheck SCRF=Check GenChk RB3LYP/6-31G(2df,p) Fr
 eq
 ----------------------------------------------------------------------

 Structure from the checkpoint file:  "/scratch/puck/g09_64756ff9-b083-4797-9de5-9b0e5fef9556/Gau-98230.chk"
 -----
 titel
 -----
 Charge =  0 Multiplicity = 1

                         Standard orientation:
 ---------------------------------------------------------------------
 Center     Atomic      Atomic             Coordinates (Angstroms)
 Number     Number       Type             X           Y           Z
 ---------------------------------------------------------------------
      1          8           0       -3.058076   -0.782778   -0.359954
      2          6           0       -2.253897    0.059709    0.456838
      3          6           0       -0.780711   -0.300225    0.348955
      4          6           0        0.076151    0.138487   -0.895243
      5          6           0        0.123198    1.582760   -0.296994
      6          6           0        0.336368    0.633982    0.930373
      7          6           0        1.286385   -0.144168    0.007007
      8          6           0        2.261088   -1.211039    0.157738
      9          8           0        2.633874    0.130603   -0.261071
     10          1           0       -2.804636   -0.627244   -1.275442
     11          1           0       -2.444311    1.118874    0.238977
     12          1           0       -2.592906   -0.120809    1.482967
     13          1           0       -0.661556   -1.357677    0.609609
     14          1           0       -0.056674   -0.150411   -1.938673
     15          1           0        0.981963    2.190836   -0.586000
     16          1           0       -0.797213    2.165242   -0.323041
     17          1           0        0.493174    0.913044    1.972310
     18          1           0        2.617765   -1.496256    1.146220
     19          1           0        2.366521   -1.975231   -0.610770
 ---------------------------------------------------------------------

 SCF Done:  E(RB3LYP) =  -423.093568092     A.U. after    1 cycles

 The electronic state is 1-A.
 Alpha  occ. eigenvalues --  -19.15058 -19.13541 -10.24872 -10.23384 -10.22832
 Alpha  occ. eigenvalues --  -10.20784 -10.20740 -10.20061 -10.19518  -1.07336
 Alpha  occ. eigenvalues --   -1.01600  -0.91506  -0.72161  -0.68202  -0.64478
 Alpha  occ. eigenvalues --   -0.64131  -0.59945  -0.53056  -0.51123  -0.50719
 Alpha  occ. eigenvalues --   -0.48123  -0.47199  -0.43944  -0.43146  -0.39760
 Alpha  occ. eigenvalues --   -0.36018  -0.34427  -0.34110  -0.33558  -0.32234
 Alpha  occ. eigenvalues --   -0.31554  -0.29226  -0.26742  -0.25890
 Alpha virt. eigenvalues --    0.06927   0.09523   0.10197   0.11463   0.12550
 Alpha virt. eigenvalues --    0.13114   0.13495   0.13908   0.14472   0.15465
 Alpha virt. eigenvalues --    0.16853   0.17257   0.18957   0.19961   0.20809

 Mulliken charges:
               1
     1  O   -0.416308
     2  C   -0.122016
     3  C    0.031307
     4  C   -0.179468
     5  C   -0.246280
     6  C   -0.181935
     7  C    0.564624
     8  C   -0.321100
     9  O   -0.306386
    10  H    0.282840
    11  H    0.091603
    12  H    0.112490
    13  H    0.076492
    14  H    0.076215
    15  H    0.117846
    16  H    0.097604
    17  H    0.081022
    18  H    0.120846
    19  H    0.120602
 Sum of Mulliken charges =   0.00000

 Dipole moment (field-independent basis, Debye):
    X=             -0.2292    Y=             -0.0903    Z=             -0.0529  Tot=              0.2520
 Quadrupole moment (field-independent basis, Debye-Ang):
   XX=            -64.4898   YY=            -52.3597   ZZ=            -49.1086
   XY=             -6.4376   XZ=              3.0383   YZ=              0.4386

  Exact polarizability:  85.805  -4.896  73.951   0.511  -0.335  68.615
 Approx polarizability: 114.136  -1.252 112.301  -0.080  -1.261 106.782

                      1                      2                      3
                      A                      A                      A
 Frequencies --     82.1366               132.3596               185.2671
 Red. masses --      3.3035                 5.0224                 2.7458
 Frc consts  --      0.0131                 0.0518                 0.0555
 IR Inten    --      4.0812                 1.9260                 6.3380

                      4                      5                      6
                      A                      A                      A
 Frequencies --    283.8776               298.9394               345.0764
 Red. masses --      2.6356                 1.2547                 3.8265
 Frc consts  --      0.1251                 0.0661                 0.2685
 IR Inten    --      7.2417                86.4875                 0.2823

                      7                      8                      9
                      A                      A                      A
 Frequencies --    365.7621               425.8761               490.3758
 Red. masses --      2.6540                 3.9458                 2.9884
 Frc consts  --      0.2092                 0.4217                 0.4234
 IR Inten    --     22.5097                 1.0138                 4.5830

                     10                     11                     12
                      A                      A                      A
 Frequencies --    618.7402               643.1178               736.3836
 Red. masses --      3.8369                 2.7379                 2.5920
 Frc consts  --      0.8655                 0.6672                 0.8281
 IR Inten    --     19.9668                 2.4199                 0.9238

                     13                     14                     15
                      A                      A                      A
 Frequencies --    793.8413               832.7373               879.7298
 Red. masses --      2.5936                 2.1419                 4.1943
 Frc consts  --      0.9630                 0.8751                 1.9125
 IR Inten    --      1.4165                 6.1206                32.2919

                     16                     17                     18
                      A                      A                      A
 Frequencies --    897.4319               907.0081               984.9820
 Red. masses --      2.3002                 2.0708                 1.9377
 Frc consts  --      1.0915                 1.0037                 1.1076
 IR Inten    --      5.5450                 1.2086                15.5606

                     19                     20                     21
                      A                      A                      A
 Frequencies --   1001.2477              1015.4618              1057.0312
 Red. masses --      2.2047                 1.1230                 1.4921
 Frc consts  --      1.3022                 0.6823                 0.9822
 IR Inten    --     58.1456                 7.4446                12.1127

                     22                     23                     24
                      A                      A                      A
 Frequencies --   1059.8178              1075.7149              1108.1541
 Red. masses --      3.1327                 2.3771                 1.2406
 Frc consts  --      2.0731                 1.6207                 0.8976
 IR Inten    --     44.9887                 9.0309                 1.6952

                     25                     26                     27
                      A                      A                      A
 Frequencies --   1117.2270              1119.8049              1124.2124
 Red. masses --      2.5634                 2.3289                 1.7787
 Frc consts  --      1.8852                 1.7206                 1.3245
 IR Inten    --     25.2264                 1.7447                 1.1845

                     28                     29                     30
                      A                      A                      A
 Frequencies --   1151.1010              1167.2118              1189.7336
 Red. masses --      1.4312                 1.6724                 1.3297
 Frc consts  --      1.1173                 1.3425                 1.1089
 IR Inten    --      0.8289                 9.5157                 8.2986

                     31                     32                     33
                      A                      A                      A
 Frequencies --   1206.9840              1219.2514              1245.2168
 Red. masses --      1.3845                 1.6071                 1.7297
 Frc consts  --      1.1884                 1.4076                 1.5802
 IR Inten    --      2.9717                 3.7025                 2.2340

                     34                     35                     36
                      A                      A                      A
 Frequencies --   1254.6287              1356.8617              1407.4073
 Red. masses --      1.6329                 1.2940                 1.1872
 Frc consts  --      1.5144                 1.4036                 1.3855
 IR Inten    --      1.9581                 1.5750                51.0326

                     37                     38                     39
                      A                      A                      A
 Frequencies --   1433.0757              1460.4090              1499.0316
 Red. masses --      1.4219                 1.5163                 1.0915
 Frc consts  --      1.7205                 1.9054                 1.4450
 IR Inten    --     13.6026                36.0944                 1.3012

                     40                     41                     42
                      A                      A                      A
 Frequencies --   1526.3662              1563.2092              3013.8965
 Red. masses --      1.1314                 2.3059                 1.0648
 Frc consts  --      1.5531                 3.3199                 5.6987
 IR Inten    --      2.2896                35.6478                30.0878

                     43                     44                     45
                      A                      A                      A
 Frequencies --   3048.3432              3070.7240              3084.6265
 Red. masses --      1.0829                 1.0966                 1.0575
 Frc consts  --      5.9287                 6.0922                 5.9282
 IR Inten    --     24.8997                34.3630                55.7417

                     46                     47                     48
                      A                      A                      A
 Frequencies --   3085.8364              3106.6527              3118.9744
 Red. masses --      1.0512                 1.0907                 1.0927
 Frc consts  --      5.8978                 6.2022                 6.2630
 IR Inten    --     16.7831                55.5157                24.0263

                     49                     50                     51
                      A                      A                      A
 Frequencies --   3149.2873              3171.5213              3815.8304
 Red. masses --      1.1101                 1.1189                 1.0662
 Frc consts  --      6.4871                 6.6310                 9.1464
 IR Inten    --     30.0809                18.7729                12.2182

 - Thermochemistry -
 -------------------
 Temperature   298.150 Kelvin.  Pressure   1.00000 Atm.
 Atom     1 has atomic number  8 and mass  15.99491

 Molecular mass:   126.06808 amu.
 Principal axes and moments of inertia in atomic units:
                           1         2         3
     Eigenvalues --   452.748931749.568001897.85861
           X            0.99979  -0.02040   0.00273
           Y            0.02042   0.99976  -0.00844
           Z           -0.00256   0.00849   0.99996
 This molecule is an asymmetric top.
 Rotational symmetry number  1.
 Warning -- assumption of classical behavior for rotation
           may cause significant error
 Rotational temperatures (Kelvin)      0.19131     0.04951     0.04564
 Rotational constants (GHZ):           3.98619     1.03154     0.95094
 Zero-point vibrational energy     418265.3 (Joules/Mol)
                                   99.96780 (Kcal/Mol)
 Warning -- explicit consideration of  10 degrees of freedom as
           vibrations may cause significant error
 Vibrational temperatures:    118.18   190.44   266.56   408.44   430.11
          (Kelvin)            496.49   526.25   612.74   705.54   890.23
                              925.30  1059.49  1142.16  1198.12  1265.73
                             1291.20  1304.98  1417.17  1440.57  1461.02
                             1520.83  1524.84  1547.71  1594.38  1607.44
                             1611.15  1617.49  1656.18  1679.36  1711.76
                             1736.58  1754.23  1791.59  1805.13  1952.22
                             2024.94  2061.87  2101.20  2156.77  2196.10
                             2249.11  4336.32  4385.88  4418.08  4438.08
                             4439.82  4469.77  4487.50  4531.12  4563.11
                             5490.12

 Zero-point correction=                           0.159309 (Hartree/Particle)
 Thermal correction to Energy=                    0.167408
 Thermal correction to Enthalpy=                  0.168352
 Thermal correction to Gibbs Free Energy=         0.126535
 Sum of electronic and zero-point Energies=           -422.934259
 Sum of electronic and thermal Energies=              -422.926160
 Sum of electronic and thermal Enthalpies=            -422.925216
 Sum of electronic and thermal Free Energies=         -422.967033

                     E (Thermal)             CV                S
                      KCal/Mol        Cal/Mol-Kelvin    Cal/Mol-Kelvin
 Total                  105.050             31.533             88.011
 Electronic               0.000              0.000              0.000
 Translational            0.889              2.981             40.409
 Rotational               0.889              2.981             28.799
 Vibrational            103.273             25.572             18.803
 Vibration     1          0.600              1.961              3.839
 Vibration     2          0.612              1.921              2.911
 Vibration     3          0.631              1.860              2.275
 Vibration     4          0.682              1.704              1.510
 Vibration     5          0.692              1.676              1.423
 Vibration     6          0.723              1.585              1.189
 Vibration     7          0.739              1.543              1.098
 Vibration     8          0.788              1.414              0.872
 Vibration     9          0.846              1.271              0.683
 Vibration    10          0.979              0.992              0.419

 Optimization completed.
    -- Stationary point found.
 Normal termination of Gaussian 09 at Tue Jan 28 14:53:10 2020.
