 Gaussian 09, Revision D.01,
 Gaussian 09:  ES64L-G09RevD.01 24-Apr-2013

 -----------------------------
 # b3lyp 6-31G(2df,p) opt Freq
 -----------------------------

 -----
 titel
 -----
 Symbolic Z-matrix:
 Charge =  0 Multiplicity = 1

 SCF Done:  E(RB3LYP) =  -423.174203508     A.U. after   14 cycles
 Optimization completed.
    -- Stationary point found.
 Normal termination of Gaussian 09 at Tue Jan 28 13:47:38 2020.

 ----------------------------------------------------------------------
 #N Geom=AllCheck Guess=TCheck SCRF=Check GenChk RB3LYP/6-31G(2df,p) Fr
 eq
 ----------------------------------------------------------------------

 Structure from the checkpoint file:  "/scratch/puck/g09_25ce72a5-72a3-42ac-bd8f-0d088f6d6335/Gau-119775.chk"
 -----
 titel
 -----
 Charge =  0 Multiplicity = 1

                         Standard orientation:
 ---------------------------------------------------------------------
 Center     Atomic      Atomic             Coordinates (Angstroms)
 Number     Number       Type             X           Y           Z
 ---------------------------------------------------------------------
      1          6           0        2.976033    0.351990   -0.448651
      2          6           0        1.599904    0.822606    0.033140
      3          6           0        0.804446   -0.303583    0.666213
      4          8           0        0.483909   -1.384645   -0.252994
      5          6           0       -0.905886   -1.366584    0.119889
      6          6           0       -1.771966   -0.554856   -0.872498
      7          6           0       -1.491961    0.695559   -0.008824
      8          8           0       -1.818053    1.843893   -0.081682
      9          6           0       -0.694383   -0.115537    1.028674
     10          1           0        3.529171    1.170924   -0.917047
     11          1           0        3.579127   -0.027491    0.383654
     12          1           0        2.871219   -0.453319   -1.181216
     13          1           0        1.706504    1.623473    0.776254
     14          1           0        1.032318    1.244863   -0.803406
     15          1           0        1.356079   -0.712812    1.525068
     16          1           0       -1.270780   -2.335461    0.464400
     17          1           0       -1.429334   -0.533379   -1.909543
     18          1           0       -2.836118   -0.817452   -0.847501
     19          1           0       -0.962149   -0.010889    2.079090
 ---------------------------------------------------------------------

 SCF Done:  E(RB3LYP) =  -423.174203508     A.U. after    1 cycles

 The electronic state is 1-A.
 Alpha  occ. eigenvalues --  -19.14272 -19.14172 -10.27610 -10.24826 -10.24811
 Alpha  occ. eigenvalues --  -10.20155 -10.19535 -10.18724 -10.17665  -1.05617
 Alpha  occ. eigenvalues --   -1.04531  -0.82852  -0.78788  -0.71743  -0.65441
 Alpha  occ. eigenvalues --   -0.61150  -0.58605  -0.52097  -0.50931  -0.48084
 Alpha  occ. eigenvalues --   -0.46724  -0.45780  -0.42719  -0.41350  -0.40671
 Alpha  occ. eigenvalues --   -0.39883  -0.38703  -0.36692  -0.35744  -0.34525
 Alpha  occ. eigenvalues --   -0.31636  -0.30357  -0.25815  -0.24626
 Alpha virt. eigenvalues --   -0.02930   0.07557   0.09617   0.10092   0.11459
 Alpha virt. eigenvalues --    0.13515   0.14456   0.15060   0.15709   0.16747
 Alpha virt. eigenvalues --    0.17176   0.18029   0.18194   0.19045   0.21508

 Mulliken charges:
               1
     1  C   -0.384177
     2  C   -0.195439
     3  C    0.146320
     4  O   -0.311428
     5  C    0.117536
     6  C   -0.363977
     7  C    0.413439
     8  O   -0.299869
     9  C   -0.251977
    10  H    0.116397
    11  H    0.114723
    12  H    0.137587
    13  H    0.107473
    14  H    0.110149
    15  H    0.083220
    16  H    0.088276
    17  H    0.138898
    18  H    0.133122
    19  H    0.099725
 Sum of Mulliken charges =   0.00000

 Dipole moment (field-independent basis, Debye):
    X=              0.2113    Y=             -1.4808    Z=              1.0060  Tot=              1.8026
 Quadrupole moment (field-independent basis, Debye-Ang):
   XX=            -52.3769   YY=            -59.5166   ZZ=            -50.7366
   XY=              7.6404   XZ=              0.6198   YZ=             -0.7953

  Exact polarizability:  85.237   1.928  74.230   3.931   0.330  67.577
 Approx polarizability: 109.440  -2.967 117.730   5.432   2.032 102.637

                      1                      2                      3
                      A                      A                      A
 Frequencies --     75.8819                92.6310               107.1842
 Red. masses --      3.7521                 2.4357                 3.6470
 Frc consts  --      0.0127                 0.0123                 0.0247
 IR Inten    --      4.6555                 1.5550                 1.2780

                      4                      5                      6
                      A                      A                      A
 Frequencies --    198.6138               242.9670               361.0887
 Red. masses --      1.7635                 1.5051                 2.6113
 Frc consts  --      0.0410                 0.0524                 0.2006
 IR Inten    --      2.6516                 0.4438                 3.9043

                      7                      8                      9
                      A                      A                      A
 Frequencies --    394.5225               420.9345               455.0070
 Red. masses --      3.1958                 3.8224                 2.9470
 Frc consts  --      0.2931                 0.3990                 0.3595
 IR Inten    --      0.3433                 3.1211                 1.9979

                     10                     11                     12
                      A                      A                      A
 Frequencies --    548.9079               612.8765               700.1538
 Red. masses --      2.7155                 3.3831                 2.9561
 Frc consts  --      0.4821                 0.7487                 0.8538
 IR Inten    --      2.9415                 4.4990                 0.5266

                     13                     14                     15
                      A                      A                      A
 Frequencies --    776.1402               803.0908               841.9919
 Red. masses --      1.3539                 2.6479                 1.8511
 Frc consts  --      0.4805                 1.0062                 0.7732
 IR Inten    --      0.0985                 2.2892                 5.6302

                     16                     17                     18
                      A                      A                      A
 Frequencies --    888.2882               933.8021               952.6363
 Red. masses --      1.9472                 2.6702                 3.0458
 Frc consts  --      0.9052                 1.3718                 1.6286
 IR Inten    --      3.7395                19.3816                27.1433

                     19                     20                     21
                      A                      A                      A
 Frequencies --    970.0410               985.6333              1017.3637
 Red. masses --      2.9293                 1.8062                 3.6494
 Frc consts  --      1.6241                 1.0338                 2.2255
 IR Inten    --     13.8018                 4.1769                19.2069

                     22                     23                     24
                      A                      A                      A
 Frequencies --   1042.4938              1080.3417              1103.6710
 Red. masses --      2.9378                 2.0927                 1.7657
 Frc consts  --      1.8811                 1.4391                 1.2672
 IR Inten    --     63.8857                10.7761                22.7806

                     25                     26                     27
                      A                      A                      A
 Frequencies --   1118.3411              1149.7485              1174.2126
 Red. masses --      1.7112                 2.1426                 2.0001
 Frc consts  --      1.2609                 1.6688                 1.6248
 IR Inten    --      9.6670                49.8763                 1.3671

                     28                     29                     30
                      A                      A                      A
 Frequencies --   1201.4947              1217.4286              1248.7465
 Red. masses --      1.7236                 1.6000                 1.7910
 Frc consts  --      1.4660                 1.3972                 1.6455
 IR Inten    --      5.5627                25.6684                 9.0147

                     31                     32                     33
                      A                      A                      A
 Frequencies --   1281.9314              1308.5940              1317.1481
 Red. masses --      1.2339                 1.2640                 1.4323
 Frc consts  --      1.1948                 1.2753                 1.4641
 IR Inten    --      0.9135                18.9880                 4.0897

                     34                     35                     36
                      A                      A                      A
 Frequencies --   1356.4805              1405.8502              1412.6542
 Red. masses --      1.3762                 1.3354                 1.3510
 Frc consts  --      1.4920                 1.5550                 1.5885
 IR Inten    --      2.8873                 1.3429                 4.7230

                     37                     38                     39
                      A                      A                      A
 Frequencies --   1415.7330              1471.8612              1497.2327
 Red. masses --      1.1176                 1.0797                 1.0418
 Frc consts  --      1.3198                 1.3781                 1.3760
 IR Inten    --     13.8497                 1.2542                 5.0388

                     40                     41                     42
                      A                      A                      A
 Frequencies --   1508.0858              1889.0311              2992.7961
 Red. masses --      1.0614                12.6876                 1.0845
 Frc consts  --      1.4222                26.6753                 5.7234
 IR Inten    --      4.9424               238.6613                44.5138

                     43                     44                     45
                      A                      A                      A
 Frequencies --   3030.5746              3037.4508              3048.9804
 Red. masses --      1.0616                 1.0367                 1.0621
 Frc consts  --      5.7444                 5.6353                 5.8171
 IR Inten    --     15.1490                26.9129                 5.6010

                     46                     47                     48
                      A                      A                      A
 Frequencies --   3072.5413              3099.5656              3106.2945
 Red. masses --      1.0991                 1.0896                 1.1005
 Frc consts  --      6.1136                 6.1674                 6.2564
 IR Inten    --     14.9124                42.5715                35.0554

                     49                     50                     51
                      A                      A                      A
 Frequencies --   3119.9937              3120.6177              3129.7488
 Red. masses --      1.1022                 1.1019                 1.0904
 Frc consts  --      6.3216                 6.3220                 6.2929
 IR Inten    --     22.5716                 6.0423                13.3422

 - Thermochemistry -
 -------------------
 Temperature   298.150 Kelvin.  Pressure   1.00000 Atm.
 Atom     1 has atomic number  6 and mass  12.00000

 Molecular mass:   126.06808 amu.
 Principal axes and moments of inertia in atomic units:
                           1         2         3
     Eigenvalues --   663.361191356.585601692.40630
           X            0.99817   0.06046  -0.00093
           Y           -0.06046   0.99814  -0.00816
           Z            0.00044   0.00820   0.99997
 This molecule is an asymmetric top.
 Rotational symmetry number  1.
 Warning -- assumption of classical behavior for rotation
           may cause significant error
 Rotational temperatures (Kelvin)      0.13057     0.06385     0.05118
 Rotational constants (GHZ):           2.72060     1.33036     1.06638
 Zero-point vibrational energy     414741.7 (Joules/Mol)
                                   99.12565 (Kcal/Mol)
 Warning -- explicit consideration of  11 degrees of freedom as
           vibrations may cause significant error
 Vibrational temperatures:    109.18   133.28   154.21   285.76   349.57
          (Kelvin)            519.53   567.63   605.63   654.65   789.76
                              881.79  1007.36  1116.69  1155.47  1211.44
                             1278.05  1343.53  1370.63  1395.67  1418.10
                             1463.76  1499.91  1554.37  1587.93  1609.04
                             1654.23  1689.43  1728.68  1751.61  1796.67
                             1844.41  1882.77  1895.08  1951.67  2022.70
                             2032.49  2036.92  2117.68  2154.18  2169.80
                             2717.89  4305.96  4360.32  4370.21  4386.80
                             4420.70  4459.58  4469.26  4488.97  4489.87
                             4503.00

 Zero-point correction=                           0.157967 (Hartree/Particle)
 Thermal correction to Energy=                    0.166543
 Thermal correction to Enthalpy=                  0.167487
 Thermal correction to Gibbs Free Energy=         0.124219
 Sum of electronic and zero-point Energies=           -423.016237
 Sum of electronic and thermal Energies=              -423.007660
 Sum of electronic and thermal Enthalpies=            -423.006716
 Sum of electronic and thermal Free Energies=         -423.049984

                     E (Thermal)             CV                S
                      KCal/Mol        Cal/Mol-Kelvin    Cal/Mol-Kelvin
 Total                  104.507             32.039             91.065
 Electronic               0.000              0.000              0.000
 Translational            0.889              2.981             40.409
 Rotational               0.889              2.981             28.812
 Vibrational            102.730             26.078             21.845
 Vibration     1          0.599              1.965              3.995
 Vibration     2          0.602              1.954              3.604
 Vibration     3          0.606              1.943              3.319
 Vibration     4          0.637              1.842              2.146
 Vibration     5          0.659              1.774              1.781
 Vibration     6          0.735              1.552              1.117
 Vibration     7          0.761              1.482              0.983
 Vibration     8          0.783              1.425              0.889
 Vibration     9          0.813              1.350              0.781
 Vibration    10          0.904              1.142              0.546
 Vibration    11          0.972              1.005              0.428

 Optimization completed.
    -- Stationary point found.
 Normal termination of Gaussian 09 at Tue Jan 28 14:28:51 2020.
