 Gaussian 09, Revision D.01,
 Gaussian 09:  ES64L-G09RevD.01 24-Apr-2013

 -----------------------------
 # b3lyp 6-31G(2df,p) opt Freq
 -----------------------------

 -----
 titel
 -----
 Symbolic Z-matrix:
 Charge =  0 Multiplicity = 1

 SCF Done:  E(RB3LYP) =  -423.100236107     A.U. after   13 cycles
 Optimization completed.
    -- Stationary point found.
 Normal termination of Gaussian 09 at Tue Jan 28 12:49:14 2020.

 ----------------------------------------------------------------------
 #N Geom=AllCheck Guess=TCheck SCRF=Check GenChk RB3LYP/6-31G(2df,p) Fr
 eq
 ----------------------------------------------------------------------

 Structure from the checkpoint file:  "/scratch/puck/g09_c3528aee-8385-4216-b6e4-c8612833aeeb/Gau-10930.chk"
 -----
 titel
 -----
 Charge =  0 Multiplicity = 1

                         Standard orientation:
 ---------------------------------------------------------------------
 Center     Atomic      Atomic             Coordinates (Angstroms)
 Number     Number       Type             X           Y           Z
 ---------------------------------------------------------------------
      1          6           0        2.884942    0.028777    0.359420
      2          8           0        1.751325    0.188140   -0.469270
      3          6           0        0.754123   -0.789563   -0.247247
      4          6           0       -0.543041   -0.510767   -1.007545
      5          6           0       -1.413374   -1.209793    0.090677
      6          6           0       -2.354566    0.010917    0.236506
      7          6           0       -0.962137    0.607743    0.026300
      8          8           0       -0.663369    1.947099   -0.020763
      9          6           0       -0.257055   -0.519339    0.887185
     10          1           0        3.356630   -0.953601    0.207218
     11          1           0        3.600323    0.808792    0.088424
     12          1           0        2.633644    0.130210    1.425236
     13          1           0        1.182486   -1.800976   -0.312592
     14          1           0       -0.727311   -0.510796   -2.082104
     15          1           0       -1.659220   -2.268261    0.122323
     16          1           0       -3.083134    0.168361   -0.564963
     17          1           0       -2.813135    0.163540    1.218398
     18          1           0        0.280400    2.003458   -0.223442
     19          1           0       -0.127686   -0.530489    1.969995
 ---------------------------------------------------------------------

 SCF Done:  E(RB3LYP) =  -423.100236107     A.U. after    1 cycles

 The electronic state is 1-A.
 Alpha  occ. eigenvalues --  -19.14920 -19.13788 -10.24462 -10.23426 -10.22989
 Alpha  occ. eigenvalues --  -10.20251 -10.19071 -10.18993 -10.18129  -1.04404
 Alpha  occ. eigenvalues --   -1.02544  -0.92875  -0.74919  -0.68496  -0.63705
 Alpha  occ. eigenvalues --   -0.61856  -0.59766  -0.53835  -0.50706  -0.49110
 Alpha  occ. eigenvalues --   -0.48542  -0.46136  -0.43156  -0.42468  -0.41147
 Alpha  occ. eigenvalues --   -0.36650  -0.35977  -0.33030  -0.32435  -0.31920
 Alpha  occ. eigenvalues --   -0.30614  -0.28826  -0.25434  -0.24406
 Alpha virt. eigenvalues --    0.08226   0.10301   0.11465   0.12643   0.13062
 Alpha virt. eigenvalues --    0.13485   0.14430   0.15157   0.16288   0.16951
 Alpha virt. eigenvalues --    0.17579   0.18360   0.18954   0.19328   0.19931

 Mulliken charges:
               1
     1  C   -0.243126
     2  O   -0.268334
     3  C    0.121703
     4  C   -0.159433
     5  C   -0.066633
     6  C   -0.304242
     7  C    0.432933
     8  O   -0.476699
     9  C   -0.157107
    10  H    0.110795
    11  H    0.128654
    12  H    0.112048
    13  H    0.062026
    14  H    0.074698
    15  H    0.080735
    16  H    0.097221
    17  H    0.096644
    18  H    0.287422
    19  H    0.070693
 Sum of Mulliken charges =   0.00000

 Dipole moment (field-independent basis, Debye):
    X=              1.2705    Y=             -1.5966    Z=              0.5642  Tot=              2.1170
 Quadrupole moment (field-independent basis, Debye-Ang):
   XX=            -49.7669   YY=            -55.2406   ZZ=            -52.8812
   XY=              2.7414   XZ=              1.8787   YZ=             -0.1491

  Exact polarizability:  90.898   0.716  70.724   0.682   0.429  66.693
 Approx polarizability: 115.875   0.891 109.994   0.413  -0.462 105.602

                      1                      2                      3
                      A                      A                      A
 Frequencies --     88.9914               144.2541               173.9987
 Red. masses --      2.9272                 3.0872                 1.3082
 Frc consts  --      0.0137                 0.0379                 0.0233
 IR Inten    --      1.2066                 2.1481                 0.4322

                      4                      5                      6
                      A                      A                      A
 Frequencies --    248.2589               330.0146               380.6619
 Red. masses --      2.8629                 2.8430                 3.8361
 Frc consts  --      0.1040                 0.1824                 0.3275
 IR Inten    --      5.2691                 3.3218                 6.3061

                      7                      8                      9
                      A                      A                      A
 Frequencies --    408.7648               469.4966               496.5365
 Red. masses --      2.1164                 2.5393                 1.3260
 Frc consts  --      0.2083                 0.3298                 0.1926
 IR Inten    --     11.6251                 0.4515                68.7881

                     10                     11                     12
                      A                      A                      A
 Frequencies --    532.6083               670.7942               714.8584
 Red. masses --      3.7897                 4.5849                 4.1146
 Frc consts  --      0.6334                 1.2155                 1.2388
 IR Inten    --      8.4251                 9.3634                 2.5700

                     13                     14                     15
                      A                      A                      A
 Frequencies --    802.2192               854.0971               872.8817
 Red. masses --      3.4126                 2.1517                 1.7469
 Frc consts  --      1.2940                 0.9248                 0.7842
 IR Inten    --      1.8025                 1.5151                 2.5111

                     16                     17                     18
                      A                      A                      A
 Frequencies --    898.8751               921.9022               931.3927
 Red. masses --      1.9382                 2.4183                 1.7057
 Frc consts  --      0.9227                 1.2110                 0.8718
 IR Inten    --      5.6770                 5.2174                 1.4616

                     19                     20                     21
                      A                      A                      A
 Frequencies --    987.1733              1003.7642              1025.0077
 Red. masses --      1.4388                 3.1041                 2.8323
 Frc consts  --      0.8261                 1.8427                 1.7532
 IR Inten    --      0.3681                17.6261                29.1942

                     22                     23                     24
                      A                      A                      A
 Frequencies --   1055.7289              1070.1005              1101.3393
 Red. masses --      1.3263                 2.5495                 1.7105
 Frc consts  --      0.8710                 1.7201                 1.2224
 IR Inten    --      1.4665                11.3809                 1.3060

                     25                     26                     27
                      A                      A                      A
 Frequencies --   1117.7333              1133.2014              1148.0696
 Red. masses --      3.5602                 1.4431                 2.1850
 Frc consts  --      2.6206                 1.0918                 1.6968
 IR Inten    --    122.4595                 1.2662                59.9752

                     28                     29                     30
                      A                      A                      A
 Frequencies --   1182.0181              1184.5612              1192.6433
 Red. masses --      1.7114                 1.3131                 1.6266
 Frc consts  --      1.4088                 1.0856                 1.3632
 IR Inten    --      4.2104                 3.1146                 6.2059

                     31                     32                     33
                      A                      A                      A
 Frequencies --   1217.2040              1241.7953              1254.3793
 Red. masses --      1.6035                 1.8566                 1.8145
 Frc consts  --      1.3998                 1.6869                 1.6821
 IR Inten    --      4.9669                26.0754                15.7374

                     34                     35                     36
                      A                      A                      A
 Frequencies --   1267.4133              1348.0141              1386.3515
 Red. masses --      1.8689                 2.8972                 1.4055
 Frc consts  --      1.7688                 3.1018                 1.5916
 IR Inten    --    109.2524               198.7357                52.9246

                     37                     38                     39
                      A                      A                      A
 Frequencies --   1408.2279              1482.8721              1488.3222
 Red. masses --      1.8395                 1.1462                 1.0597
 Frc consts  --      2.1492                 1.4850                 1.3830
 IR Inten    --     20.2040                 2.6561                 4.1254

                     40                     41                     42
                      A                      A                      A
 Frequencies --   1509.6543              1515.8707              2982.3895
 Red. masses --      1.0615                 1.2354                 1.0412
 Frc consts  --      1.4253                 1.6726                 5.4564
 IR Inten    --      6.6281                 8.2339                38.4242

                     43                     44                     45
                      A                      A                      A
 Frequencies --   2994.7549              3033.8940              3042.2148
 Red. masses --      1.0781                 1.1035                 1.0549
 Frc consts  --      5.6969                 5.9842                 5.7523
 IR Inten    --     92.1726                45.4868                52.4907

                     46                     47                     48
                      A                      A                      A
 Frequencies --   3102.1870              3108.7741              3115.6431
 Red. masses --      1.1101                 1.0901                 1.0908
 Frc consts  --      6.2942                 6.2073                 6.2386
 IR Inten    --     30.7839                56.9343                18.3525

                     49                     50                     51
                      A                      A                      A
 Frequencies --   3116.9822              3149.5966              3764.9145
 Red. masses --      1.0974                 1.0937                 1.0646
 Frc consts  --      6.2818                 6.3922                 8.8912
 IR Inten    --     29.6790                32.0157                54.5930

 - Thermochemistry -
 -------------------
 Temperature   298.150 Kelvin.  Pressure   1.00000 Atm.
 Atom     1 has atomic number  6 and mass  12.00000

 Molecular mass:   126.06808 amu.
 Principal axes and moments of inertia in atomic units:
                           1         2         3
     Eigenvalues --   543.463001296.379081550.56502
           X            0.99988   0.00775   0.01317
           Y           -0.00775   0.99997   0.00001
           Z           -0.01317  -0.00011   0.99991
 This molecule is an asymmetric top.
 Rotational symmetry number  1.
 Warning -- assumption of classical behavior for rotation
           may cause significant error
 Rotational temperatures (Kelvin)      0.15937     0.06681     0.05586
 Rotational constants (GHZ):           3.32082     1.39214     1.16392
 Zero-point vibrational energy     416739.5 (Joules/Mol)
                                   99.60313 (Kcal/Mol)
 Warning -- explicit consideration of  10 degrees of freedom as
           vibrations may cause significant error
 Vibrational temperatures:    128.04   207.55   250.35   357.19   474.82
          (Kelvin)            547.69   588.12   675.50   714.40   766.30
                              965.12  1028.52  1154.21  1228.85  1255.88
                             1293.28  1326.41  1340.06  1420.32  1444.19
                             1474.76  1518.96  1539.63  1584.58  1608.17
                             1630.42  1651.81  1700.66  1704.32  1715.95
                             1751.28  1786.66  1804.77  1823.52  1939.49
                             1994.65  2026.12  2133.52  2141.36  2172.05
                             2181.00  4290.99  4308.78  4365.09  4377.06
                             4463.35  4472.83  4482.71  4484.64  4531.56
                             5416.87

 Zero-point correction=                           0.158728 (Hartree/Particle)
 Thermal correction to Energy=                    0.166745
 Thermal correction to Enthalpy=                  0.167690
 Thermal correction to Gibbs Free Energy=         0.126239
 Sum of electronic and zero-point Energies=           -422.941508
 Sum of electronic and thermal Energies=              -422.933491
 Sum of electronic and thermal Enthalpies=            -422.932547
 Sum of electronic and thermal Free Energies=         -422.973998

                     E (Thermal)             CV                S
                      KCal/Mol        Cal/Mol-Kelvin    Cal/Mol-Kelvin
 Total                  104.634             31.442             87.241
 Electronic               0.000              0.000              0.000
 Translational            0.889              2.981             40.409
 Rotational               0.889              2.981             28.481
 Vibrational            102.857             25.480             18.351
 Vibration     1          0.602              1.957              3.682
 Vibration     2          0.616              1.909              2.747
 Vibration     3          0.627              1.874              2.392
 Vibration     4          0.662              1.766              1.743
 Vibration     5          0.713              1.616              1.260
 Vibration     6          0.750              1.511              1.037
 Vibration     7          0.773              1.451              0.931
 Vibration     8          0.827              1.318              0.739
 Vibration     9          0.852              1.258              0.667
 Vibration    10          0.888              1.178              0.581

 Optimization completed.
    -- Stationary point found.
 Normal termination of Gaussian 09 at Tue Jan 28 14:49:05 2020.
