 Gaussian 09, Revision D.01,
 Gaussian 09:  ES64L-G09RevD.01 24-Apr-2013

 -----------------------------
 # b3lyp 6-31G(2df,p) opt Freq
 -----------------------------

 -----
 titel
 -----
 Symbolic Z-matrix:
 Charge =  0 Multiplicity = 1

 SCF Done:  E(RB3LYP) =  -423.223179730     A.U. after   14 cycles
 Optimization completed.
    -- Stationary point found.
 Normal termination of Gaussian 09 at Mon Jan 27 12:54:30 2020.

 ----------------------------------------------------------------------
 #N Geom=AllCheck Guess=TCheck SCRF=Check GenChk RB3LYP/6-31G(2df,p) Fr
 eq
 ----------------------------------------------------------------------

 Structure from the checkpoint file:  "/scratch/puck/g09_6a9bd403-dc9a-4b35-96ac-813fd6d44cc6/Gau-167033.chk"
 -----
 titel
 -----
 Charge =  0 Multiplicity = 1

                         Standard orientation:
 ---------------------------------------------------------------------
 Center     Atomic      Atomic             Coordinates (Angstroms)
 Number     Number       Type             X           Y           Z
 ---------------------------------------------------------------------
      1          8           0        2.157767   -1.029120    0.000001
      2          6           0        1.151441   -0.368871    0.000000
      3          6           0        0.335484    0.124008   -1.190156
      4          6           0       -0.006669    1.573439   -0.784113
      5          6           0       -0.006668    1.573441    0.784109
      6          6           0        0.335485    0.124011    1.190156
      7          6           0       -0.941624   -0.761009    1.183175
      8          8           0       -1.695771   -0.563120    0.000001
      9          6           0       -0.941625   -0.761013   -1.183173
     10          1           0        0.860889    0.016782   -2.140694
     11          1           0        0.748148    2.262376   -1.172215
     12          1           0       -0.974294    1.884627   -1.185119
     13          1           0        0.748151    2.262377    1.172208
     14          1           0       -0.974291    1.884632    1.185117
     15          1           0        0.860890    0.016787    2.140693
     16          1           0       -0.659743   -1.820049    1.298054
     17          1           0       -1.600458   -0.486793    2.012616
     18          1           0       -0.659743   -1.820052   -1.298049
     19          1           0       -1.600458   -0.486798   -2.012615
 ---------------------------------------------------------------------

 SCF Done:  E(RB3LYP) =  -423.223179730     A.U. after    1 cycles

 The electronic state is 1-A.
 Alpha  occ. eigenvalues --  -19.15341 -19.13045 -10.26193 -10.24177 -10.24176
 Alpha  occ. eigenvalues --  -10.19496 -10.19494 -10.19219 -10.19202  -1.05038
 Alpha  occ. eigenvalues --   -1.03771  -0.84445  -0.78137  -0.71002  -0.67501
 Alpha  occ. eigenvalues --   -0.62302  -0.58303  -0.52935  -0.50790  -0.47347
 Alpha  occ. eigenvalues --   -0.47118  -0.46262  -0.44100  -0.41344  -0.40961
 Alpha  occ. eigenvalues --   -0.40126  -0.37639  -0.36649  -0.35168  -0.35110
 Alpha  occ. eigenvalues --   -0.32581  -0.30946  -0.26794  -0.23423
 Alpha virt. eigenvalues --   -0.01322   0.08248   0.10183   0.12182   0.12215
 Alpha virt. eigenvalues --    0.12777   0.15311   0.15386   0.16043   0.16467
 Alpha virt. eigenvalues --    0.17055   0.17573   0.19254   0.20797   0.20974

 Mulliken charges:
               1
     1  O   -0.336742
     2  C    0.405544
     3  C   -0.125137
     4  C   -0.217750
     5  C   -0.217750
     6  C   -0.125137
     7  C   -0.100308
     8  O   -0.238958
     9  C   -0.100308
    10  H    0.087337
    11  H    0.107348
    12  H    0.110769
    13  H    0.107348
    14  H    0.110769
    15  H    0.087337
    16  H    0.105557
    17  H    0.117262
    18  H    0.105557
    19  H    0.117262
 Sum of Mulliken charges =   0.00000

 Dipole moment (field-independent basis, Debye):
    X=             -1.4167    Y=              1.3375    Z=              0.0000  Tot=              1.9483
 Quadrupole moment (field-independent basis, Debye-Ang):
   XX=            -62.4324   YY=            -52.9934   ZZ=            -48.5107
   XY=              3.7156   XZ=              0.0000   YZ=              0.0000

  Exact polarizability:  72.933  -2.059  72.606   0.000   0.000  76.288
 Approx polarizability: 117.194  -9.059 104.652   0.000   0.000 108.002

                      1                      2                      3
                      A                      A                      A
 Frequencies --    132.0752               145.5984               268.0676
 Red. masses --      6.9659                 1.8923                 3.9619
 Frc consts  --      0.0716                 0.0236                 0.1677
 IR Inten    --      4.5690                 0.2254                 5.1587

                      4                      5                      6
                      A                      A                      A
 Frequencies --    287.1565               385.6275               441.3338
 Red. masses --      2.1802                 1.8339                 4.6786
 Frc consts  --      0.1059                 0.1607                 0.5369
 IR Inten    --      1.7441                 2.1162                 1.7297

                      7                      8                      9
                      A                      A                      A
 Frequencies --    467.4346               494.9534               701.8406
 Red. masses --      3.6042                 8.2974                 3.8160
 Frc consts  --      0.4640                 1.1976                 1.1075
 IR Inten    --      5.8602                 3.2527                 2.9858

                     10                     11                     12
                      A                      A                      A
 Frequencies --    706.6013               762.3414               795.6620
 Red. masses --      4.3825                 1.9525                 3.8132
 Frc consts  --      1.2892                 0.6686                 1.4223
 IR Inten    --      5.8132                 0.6676                 3.4867

                     13                     14                     15
                      A                      A                      A
 Frequencies --    837.7764               845.8353               864.6970
 Red. masses --      2.4351                 2.8985                 2.0397
 Frc consts  --      1.0070                 1.2218                 0.8986
 IR Inten    --      0.6385                23.4796                 2.8514

                     16                     17                     18
                      A                      A                      A
 Frequencies --    906.5216               959.6364               979.7406
 Red. masses --      3.2270                 1.7227                 2.7122
 Frc consts  --      1.5624                 0.9347                 1.5339
 IR Inten    --      3.5561                 0.2229                21.2284

                     19                     20                     21
                      A                      A                      A
 Frequencies --    983.2145              1029.5880              1048.5368
 Red. masses --      1.7243                 2.6240                 2.3838
 Frc consts  --      0.9821                 1.6389                 1.5442
 IR Inten    --      6.5278                 0.1514                 7.4349

                     22                     23                     24
                      A                      A                      A
 Frequencies --   1097.1382              1117.4800              1165.6388
 Red. masses --      1.7282                 2.9065                 1.1177
 Frc consts  --      1.2257                 2.1385                 0.8948
 IR Inten    --      0.5083                27.6358                 3.1984

                     25                     26                     27
                      A                      A                      A
 Frequencies --   1188.7374              1204.0901              1213.3898
 Red. masses --      2.8662                 1.5487                 1.5885
 Frc consts  --      2.3863                 1.3229                 1.3779
 IR Inten    --     79.4437                25.4020                 2.5761

                     28                     29                     30
                      A                      A                      A
 Frequencies --   1236.0993              1285.3081              1286.0544
 Red. masses --      1.1827                 1.4890                 1.6329
 Frc consts  --      1.0647                 1.4493                 1.5912
 IR Inten    --      0.1375                10.8220                18.0251

                     31                     32                     33
                      A                      A                      A
 Frequencies --   1293.7393              1310.6112              1326.3943
 Red. masses --      1.3346                 1.2472                 1.3606
 Frc consts  --      1.3162                 1.2622                 1.4104
 IR Inten    --      0.0680                 2.6077                 2.5968

                     34                     35                     36
                      A                      A                      A
 Frequencies --   1345.6616              1384.9770              1408.0485
 Red. masses --      1.3769                 1.3468                 1.2959
 Frc consts  --      1.4690                 1.5221                 1.5138
 IR Inten    --      0.7869                 8.2118                 8.7507

                     37                     38                     39
                      A                      A                      A
 Frequencies --   1481.7029              1498.2910              1503.3678
 Red. masses --      1.0799                 1.0787                 1.1002
 Frc consts  --      1.3969                 1.4268                 1.4650
 IR Inten    --      1.2189                 0.8623                 3.7004

                     40                     41                     42
                      A                      A                      A
 Frequencies --   1510.3504              1854.1521              2978.2655
 Red. masses --      1.0975                11.9161                 1.0683
 Frc consts  --      1.4751                24.1365                 5.5830
 IR Inten    --      1.4551               235.7894                33.0617

                     43                     44                     45
                      A                      A                      A
 Frequencies --   2982.3109              3055.9071              3065.9753
 Red. masses --      1.0689                 1.0595                 1.0600
 Frc consts  --      5.6012                 5.8297                 5.8710
 IR Inten    --     80.7043                19.7368                39.6260

                     46                     47                     48
                      A                      A                      A
 Frequencies --   3081.2134              3083.3340              3093.5195
 Red. masses --      1.0946                 1.0960                 1.1052
 Frc consts  --      6.1227                 6.1388                 6.2318
 IR Inten    --     22.0259                24.2557                 4.6813

                     49                     50                     51
                      A                      A                      A
 Frequencies --   3105.4624              3105.4941              3115.6160
 Red. masses --      1.0897                 1.0874                 1.1045
 Frc consts  --      6.1916                 6.1788                 6.3171
 IR Inten    --      0.3493                32.2437                35.3340

 - Thermochemistry -
 -------------------
 Temperature   298.150 Kelvin.  Pressure   1.00000 Atm.
 Atom     1 has atomic number  8 and mass  15.99491

 Molecular mass:   126.06808 amu.
 Principal axes and moments of inertia in atomic units:
                           1         2         3
     Eigenvalues --   822.56857 999.393841045.27538
           X            0.99738   0.07233   0.00000
           Y           -0.07233   0.99738   0.00000
           Z            0.00000   0.00000   1.00000
 This molecule is an asymmetric top.
 Rotational symmetry number  1.
 Warning -- assumption of classical behavior for rotation
           may cause significant error
 Rotational temperatures (Kelvin)      0.10530     0.08667     0.08286
 Rotational constants (GHZ):           2.19403     1.80584     1.72657
 Zero-point vibrational energy     427201.8 (Joules/Mol)
                                  102.10369 (Kcal/Mol)
 Warning -- explicit consideration of   8 degrees of freedom as
           vibrations may cause significant error
 Vibrational temperatures:    190.03   209.48   385.69   413.15   554.83
          (Kelvin)            634.98   672.53   712.13  1009.79  1016.64
                             1096.84  1144.78  1205.37  1216.97  1244.10
                             1304.28  1380.70  1409.63  1414.62  1481.35
                             1508.61  1578.54  1607.80  1677.09  1710.33
                             1732.41  1745.80  1778.47  1849.27  1850.34
                             1861.40  1885.67  1908.38  1936.10  1992.67
                             2025.87  2131.84  2155.70  2163.01  2173.05
                             2667.71  4285.05  4290.87  4396.76  4411.25
                             4433.17  4436.22  4450.88  4468.06  4468.11
                             4482.67

 Zero-point correction=                           0.162713 (Hartree/Particle)
 Thermal correction to Energy=                    0.169901
 Thermal correction to Enthalpy=                  0.170845
 Thermal correction to Gibbs Free Energy=         0.131220
 Sum of electronic and zero-point Energies=           -423.060467
 Sum of electronic and thermal Energies=              -423.053279
 Sum of electronic and thermal Enthalpies=            -423.052335
 Sum of electronic and thermal Free Energies=         -423.091960

                     E (Thermal)             CV                S
                      KCal/Mol        Cal/Mol-Kelvin    Cal/Mol-Kelvin
 Total                  106.614             28.776             83.397
 Electronic               0.000              0.000              0.000
 Translational            0.889              2.981             40.409
 Rotational               0.889              2.981             28.243
 Vibrational            104.837             22.815             14.746
 Vibration     1          0.612              1.921              2.916
 Vibration     2          0.617              1.907              2.729
 Vibration     3          0.673              1.732              1.609
 Vibration     4          0.684              1.698              1.491
 Vibration     5          0.754              1.501              1.017
 Vibration     6          0.801              1.380              0.822
 Vibration     7          0.825              1.322              0.745
 Vibration     8          0.851              1.261              0.671

 Optimization completed.
    -- Stationary point found.
 Normal termination of Gaussian 09 at Mon Jan 27 13:40:06 2020.
