 Gaussian 09, Revision D.01,
 Gaussian 09:  ES64L-G09RevD.01 24-Apr-2013

 -----------------------------
 # b3lyp 6-31G(2df,p) opt Freq
 -----------------------------

 -----
 titel
 -----
 Symbolic Z-matrix:
 Charge =  0 Multiplicity = 1

 SCF Done:  E(RB3LYP) =  -423.098360761     A.U. after   14 cycles
 Optimization completed.
    -- Stationary point found.
 Normal termination of Gaussian 09 at Tue Jan 28 04:02:47 2020.

 ----------------------------------------------------------------------
 #N Geom=AllCheck Guess=TCheck SCRF=Check GenChk RB3LYP/6-31G(2df,p) Fr
 eq
 ----------------------------------------------------------------------

 Structure from the checkpoint file:  "/scratch/puck/g09_a18d9ccb-f70e-4c85-aac6-6b282441b304/Gau-93618.chk"
 -----
 titel
 -----
 Charge =  0 Multiplicity = 1

                         Standard orientation:
 ---------------------------------------------------------------------
 Center     Atomic      Atomic             Coordinates (Angstroms)
 Number     Number       Type             X           Y           Z
 ---------------------------------------------------------------------
      1          8           0        1.433675   -1.685149   -0.226755
      2          6           0        1.296135   -0.444476    0.415803
      3          6           0        2.081259    0.738191   -0.200133
      4          6           0        0.836173    1.646231    0.037184
      5          6           0        0.001745    0.355869    0.179534
      6          6           0       -1.345049    0.073991    0.880550
      7          6           0       -2.098602    0.767386   -0.276036
      8          6           0       -1.015158   -0.160656   -0.869594
      9          8           0       -1.414851   -1.207202    0.114661
     10          1           0        0.606867   -2.154813   -0.052564
     11          1           0        1.505034   -0.523869    1.495719
     12          1           0        3.020935    1.026376    0.273692
     13          1           0        2.251846    0.556500   -1.264115
     14          1           0        0.900969    2.203502    0.976388
     15          1           0        0.562158    2.341396   -0.759446
     16          1           0       -1.584004    0.030049    1.943887
     17          1           0       -3.126337    0.435083   -0.427396
     18          1           0       -1.972831    1.845855   -0.394550
     19          1           0       -0.854250   -0.480483   -1.898709
 ---------------------------------------------------------------------

 SCF Done:  E(RB3LYP) =  -423.098360761     A.U. after    1 cycles

 The electronic state is 1-A.
 Alpha  occ. eigenvalues --  -19.14240 -19.12338 -10.25150 -10.25122 -10.22567
 Alpha  occ. eigenvalues --  -10.20121 -10.19776 -10.18972 -10.18141  -1.06085
 Alpha  occ. eigenvalues --   -1.00827  -0.84374  -0.77847  -0.66623  -0.65696
 Alpha  occ. eigenvalues --   -0.64975  -0.58628  -0.52711  -0.52506  -0.49822
 Alpha  occ. eigenvalues --   -0.47777  -0.44027  -0.42688  -0.40201  -0.38634
 Alpha  occ. eigenvalues --   -0.37725  -0.36394  -0.34654  -0.33355  -0.32185
 Alpha  occ. eigenvalues --   -0.31591  -0.29730  -0.25261  -0.24214
 Alpha virt. eigenvalues --    0.07019   0.08206   0.10241   0.11443   0.11896
 Alpha virt. eigenvalues --    0.12981   0.13618   0.14845   0.15512   0.16592
 Alpha virt. eigenvalues --    0.17461   0.17701   0.19235   0.19478   0.21319

 Mulliken charges:
               1
     1  O   -0.442729
     2  C    0.077516
     3  C   -0.241623
     4  C   -0.349244
     5  C    0.391735
     6  C   -0.050487
     7  C   -0.236147
     8  C   -0.012645
     9  O   -0.332335
    10  H    0.289055
    11  H    0.061998
    12  H    0.101375
    13  H    0.114384
    14  H    0.109048
    15  H    0.106256
    16  H    0.094250
    17  H    0.110486
    18  H    0.104496
    19  H    0.104612
 Sum of Mulliken charges =   0.00000

 Dipole moment (field-independent basis, Debye):
    X=             -0.9184    Y=              2.3527    Z=              0.4139  Tot=              2.5593
 Quadrupole moment (field-independent basis, Debye-Ang):
   XX=            -55.9055   YY=            -55.5387   ZZ=            -50.0989
   XY=              0.8896   XZ=              1.1047   YZ=             -0.3968

  Exact polarizability:  83.871   0.715  73.076   0.637   0.307  68.024
 Approx polarizability: 110.206   1.852 112.360  -0.829   1.535 108.081

                      1                      2                      3
                      A                      A                      A
 Frequencies --    108.6276               179.7270               201.0428
 Red. masses --      2.9558                 4.0182                 3.6554
 Frc consts  --      0.0205                 0.0765                 0.0870
 IR Inten    --      3.3598                 0.2808                 7.9714

                      4                      5                      6
                      A                      A                      A
 Frequencies --    280.2491               350.0475               457.3947
 Red. masses --      2.5138                 2.8099                 3.7004
 Frc consts  --      0.1163                 0.2029                 0.4561
 IR Inten    --      1.6859                15.7840                 4.7034

                      7                      8                      9
                      A                      A                      A
 Frequencies --    471.8141               496.4972               569.2050
 Red. masses --      2.9191                 1.2000                 2.3297
 Frc consts  --      0.3829                 0.1743                 0.4447
 IR Inten    --     21.9065                81.9566                16.1983

                     10                     11                     12
                      A                      A                      A
 Frequencies --    663.1994               692.2261               743.8176
 Red. masses --      3.1970                 2.6608                 4.0462
 Frc consts  --      0.8285                 0.7512                 1.3190
 IR Inten    --      3.7040                 6.7402                 8.5623

                     13                     14                     15
                      A                      A                      A
 Frequencies --    780.4108               817.9953               864.8667
 Red. masses --      2.0124                 1.8028                 2.3616
 Frc consts  --      0.7221                 0.7107                 1.0408
 IR Inten    --      4.6671                 1.4887                12.0238

                     16                     17                     18
                      A                      A                      A
 Frequencies --    874.2829               915.5028               927.3790
 Red. masses --      2.7978                 2.4942                 2.7180
 Frc consts  --      1.2600                 1.2317                 1.3772
 IR Inten    --     24.5658                 7.8922                 4.2634

                     19                     20                     21
                      A                      A                      A
 Frequencies --    953.2924              1002.0979              1024.2191
 Red. masses --      2.2278                 1.9640                 1.1072
 Frc consts  --      1.1928                 1.1620                 0.6843
 IR Inten    --      0.4109                 2.8707                 2.4284

                     22                     23                     24
                      A                      A                      A
 Frequencies --   1072.2154              1089.0157              1097.5396
 Red. masses --      1.9537                 2.4309                 2.4033
 Frc consts  --      1.3233                 1.6985                 1.7056
 IR Inten    --     47.9666                 3.2344                 6.6916

                     25                     26                     27
                      A                      A                      A
 Frequencies --   1125.3544              1144.6872              1169.1009
 Red. masses --      1.5264                 2.4028                 2.6960
 Frc consts  --      1.1389                 1.8550                 2.1711
 IR Inten    --      8.3619                 6.5596                26.1221

                     28                     29                     30
                      A                      A                      A
 Frequencies --   1172.4865              1191.3527              1206.6951
 Red. masses --      1.3644                 1.7905                 1.5182
 Frc consts  --      1.1051                 1.4973                 1.3025
 IR Inten    --      2.9417                 7.8539                18.4190

                     31                     32                     33
                      A                      A                      A
 Frequencies --   1231.3815              1243.3791              1261.2531
 Red. masses --      1.5097                 1.2342                 1.3866
 Frc consts  --      1.3487                 1.1242                 1.2996
 IR Inten    --      4.4386                11.4087                 4.8880

                     34                     35                     36
                      A                      A                      A
 Frequencies --   1272.3704              1274.1118              1337.8656
 Red. masses --      1.4146                 1.5056                 2.3924
 Frc consts  --      1.3493                 1.4400                 2.5230
 IR Inten    --     14.7362                 0.5001                 8.5118

                     37                     38                     39
                      A                      A                      A
 Frequencies --   1367.0891              1420.6859              1478.6692
 Red. masses --      1.6384                 1.5117                 1.0870
 Frc consts  --      1.8042                 1.7976                 1.4002
 IR Inten    --     69.8616                15.5975                 1.9999

                     40                     41                     42
                      A                      A                      A
 Frequencies --   1483.5302              1495.8192              2958.2438
 Red. masses --      1.1637                 1.1457                 1.0830
 Frc consts  --      1.5089                 1.5104                 5.5838
 IR Inten    --      1.9300                 3.4888                58.8684

                     43                     44                     45
                      A                      A                      A
 Frequencies --   3057.5956              3070.0545              3072.7921
 Red. masses --      1.0590                 1.0549                 1.0590
 Frc consts  --      5.8332                 5.8581                 5.8916
 IR Inten    --     22.9224                32.1735                28.3652

                     46                     47                     48
                      A                      A                      A
 Frequencies --   3107.5091              3113.0562              3127.7731
 Red. masses --      1.1063                 1.0919                 1.0944
 Frc consts  --      6.2941                 6.2347                 6.3082
 IR Inten    --     12.9147                54.9840                15.9867

                     49                     50                     51
                      A                      A                      A
 Frequencies --   3133.3584              3149.9660              3760.5405
 Red. masses --      1.1085                 1.1109                 1.0651
 Frc consts  --      6.4121                 6.4945                 8.8748
 IR Inten    --     37.9774                22.6105                51.4862

 - Thermochemistry -
 -------------------
 Temperature   298.150 Kelvin.  Pressure   1.00000 Atm.
 Atom     1 has atomic number  8 and mass  15.99491

 Molecular mass:   126.06808 amu.
 Principal axes and moments of inertia in atomic units:
                           1         2         3
     Eigenvalues --   628.692191085.705251453.41626
           X            0.99996   0.00759   0.00558
           Y           -0.00756   0.99995  -0.00637
           Z           -0.00563   0.00633   0.99996
 This molecule is an asymmetric top.
 Rotational symmetry number  1.
 Warning -- assumption of classical behavior for rotation
           may cause significant error
 Rotational temperatures (Kelvin)      0.13777     0.07978     0.05959
 Rotational constants (GHZ):           2.87063     1.66228     1.24172
 Zero-point vibrational energy     419048.2 (Joules/Mol)
                                  100.15492 (Kcal/Mol)
 Warning -- explicit consideration of   9 degrees of freedom as
           vibrations may cause significant error
 Vibrational temperatures:    156.29   258.59   289.26   403.22   503.64
          (Kelvin)            658.09   678.83   714.35   818.96   954.19
                              995.96  1070.19  1122.84  1176.91  1244.35
                             1257.90  1317.20  1334.29  1371.57  1441.79
                             1473.62  1542.68  1566.85  1579.11  1619.13
                             1646.95  1682.07  1686.94  1714.09  1736.16
                             1771.68  1788.94  1814.66  1830.65  1833.16
                             1924.89  1966.93  2044.05  2127.47  2134.47
                             2152.15  4256.25  4399.19  4417.12  4421.06
                             4471.01  4478.99  4500.16  4508.20  4532.09
                             5410.57

 Zero-point correction=                           0.159607 (Hartree/Particle)
 Thermal correction to Energy=                    0.167159
 Thermal correction to Enthalpy=                  0.168103
 Thermal correction to Gibbs Free Energy=         0.127779
 Sum of electronic and zero-point Energies=           -422.938754
 Sum of electronic and thermal Energies=              -422.931202
 Sum of electronic and thermal Enthalpies=            -422.930258
 Sum of electronic and thermal Free Energies=         -422.970582

                     E (Thermal)             CV                S
                      KCal/Mol        Cal/Mol-Kelvin    Cal/Mol-Kelvin
 Total                  104.894             30.572             84.869
 Electronic               0.000              0.000              0.000
 Translational            0.889              2.981             40.409
 Rotational               0.889              2.981             28.386
 Vibrational            103.116             24.610             16.075
 Vibration     1          0.606              1.942              3.293
 Vibration     2          0.629              1.867              2.331
 Vibration     3          0.638              1.838              2.124
 Vibration     4          0.680              1.710              1.532
 Vibration     5          0.727              1.575              1.166
 Vibration     6          0.816              1.345              0.774
 Vibration     7          0.829              1.313              0.732
 Vibration     8          0.852              1.258              0.667
 Vibration     9          0.925              1.098              0.506

 Optimization completed.
    -- Stationary point found.
 Normal termination of Gaussian 09 at Tue Jan 28 04:47:45 2020.
