 Gaussian 09, Revision D.01,
 Gaussian 09:  ES64L-G09RevD.01 24-Apr-2013

 -----------------------------
 # b3lyp 6-31G(2df,p) opt Freq
 -----------------------------

 -----
 titel
 -----
 Symbolic Z-matrix:
 Charge =  0 Multiplicity = 1

 SCF Done:  E(RB3LYP) =  -423.161268112     A.U. after   13 cycles
 Optimization completed.
    -- Stationary point found.
 Normal termination of Gaussian 09 at Tue Jan 28 03:28:52 2020.

 ----------------------------------------------------------------------
 #N Geom=AllCheck Guess=TCheck SCRF=Check GenChk RB3LYP/6-31G(2df,p) Fr
 eq
 ----------------------------------------------------------------------

 Structure from the checkpoint file:  "/scratch/puck/g09_23e06dd8-2685-43e9-9865-f1a70f3e216e/Gau-46707.chk"
 -----
 titel
 -----
 Charge =  0 Multiplicity = 1

                         Standard orientation:
 ---------------------------------------------------------------------
 Center     Atomic      Atomic             Coordinates (Angstroms)
 Number     Number       Type             X           Y           Z
 ---------------------------------------------------------------------
      1          8           0        2.548246   -0.574488   -0.243547
      2          6           0        1.254572   -0.311708    0.284437
      3          6           0        0.283634   -1.481340    0.031463
      4          6           0       -1.131462   -1.125987    0.460833
      5          8           0       -2.060506   -0.826398   -0.582274
      6          6           0       -1.623411    0.253065    0.251519
      7          6           0       -0.721590    1.252622   -0.394801
      8          6           0        0.203604    2.092412    0.452120
      9          6           0        0.765616    0.968867   -0.379590
     10          1           0        2.872813   -1.387804    0.156427
     11          1           0        1.319423   -0.153207    1.373527
     12          1           0        0.285323   -1.713962   -1.037759
     13          1           0        0.629161   -2.373637    0.567198
     14          1           0       -1.560335   -1.705990    1.277591
     15          1           0       -2.401374    0.639899    0.911047
     16          1           0       -1.131517    1.722066   -1.284378
     17          1           0        0.386482    3.115856    0.144203
     18          1           0        0.177808    1.949077    1.528796
     19          1           0        1.334526    1.227201   -1.265962
 ---------------------------------------------------------------------

 SCF Done:  E(RB3LYP) =  -423.161268112     A.U. after    1 cycles

 The electronic state is 1-A.
 Alpha  occ. eigenvalues --  -19.14510 -19.13754 -10.23767 -10.23666 -10.23495
 Alpha  occ. eigenvalues --  -10.19339 -10.19040 -10.18895 -10.18489  -1.06717
 Alpha  occ. eigenvalues --   -1.02034  -0.86744  -0.76901  -0.68915  -0.65785
 Alpha  occ. eigenvalues --   -0.61295  -0.58870  -0.52831  -0.52207  -0.50823
 Alpha  occ. eigenvalues --   -0.48027  -0.46530  -0.43495  -0.41064  -0.40609
 Alpha  occ. eigenvalues --   -0.38838  -0.36467  -0.35902  -0.32593  -0.30461
 Alpha  occ. eigenvalues --   -0.29432  -0.28289  -0.26723  -0.25685
 Alpha virt. eigenvalues --    0.06874   0.08777   0.09279   0.10391   0.11053
 Alpha virt. eigenvalues --    0.12391   0.15113   0.15342   0.17074   0.17616
 Alpha virt. eigenvalues --    0.18193   0.18640   0.19897   0.21656   0.23660

 Mulliken charges:
               1
     1  O   -0.439973
     2  C    0.105840
     3  C   -0.263563
     4  C    0.034273
     5  O   -0.253547
     6  C    0.032656
     7  C   -0.065760
     8  C   -0.310558
     9  C   -0.004806
    10  H    0.280801
    11  H    0.064933
    12  H    0.126157
    13  H    0.086523
    14  H    0.089894
    15  H    0.090828
    16  H    0.099943
    17  H    0.115090
    18  H    0.109812
    19  H    0.101456
 Sum of Mulliken charges =   0.00000

 Dipole moment (field-independent basis, Debye):
    X=              0.6823    Y=             -0.1824    Z=              1.9082  Tot=              2.0347
 Quadrupole moment (field-independent basis, Debye-Ang):
   XX=            -58.2876   YY=            -48.7515   ZZ=            -52.3669
   XY=             -5.2354   XZ=             -0.5973   YZ=             -3.2149

  Exact polarizability:  77.027  -3.166  82.048  -1.297  -1.840  63.037
 Approx polarizability: 108.879  -4.269 113.939   1.094  -0.667 101.513

                      1                      2                      3
                      A                      A                      A
 Frequencies --     98.0381               183.4643               274.9032
 Red. masses --      3.6459                 2.8909                 1.2255
 Frc consts  --      0.0206                 0.0573                 0.0546
 IR Inten    --      1.3078                 2.0024                73.6098

                      4                      5                      6
                      A                      A                      A
 Frequencies --    308.2971               340.3233               390.2218
 Red. masses --      2.2453                 3.8029                 3.0214
 Frc consts  --      0.1257                 0.2595                 0.2711
 IR Inten    --     27.1659                17.6492                 1.5083

                      7                      8                      9
                      A                      A                      A
 Frequencies --    409.3993               441.3215               508.2921
 Red. masses --      4.4595                 5.2140                 3.4984
 Frc consts  --      0.4404                 0.5983                 0.5325
 IR Inten    --      1.2554                 6.7386                 1.0581

                     10                     11                     12
                      A                      A                      A
 Frequencies --    537.9625               719.7373               759.0002
 Red. masses --      3.8624                 2.7226                 1.9081
 Frc consts  --      0.6586                 0.8310                 0.6476
 IR Inten    --     12.3066                 0.0209                 3.4807

                     13                     14                     15
                      A                      A                      A
 Frequencies --    815.6416               833.1038               839.0953
 Red. masses --      3.2820                 1.5368                 2.7523
 Frc consts  --      1.2864                 0.6284                 1.1417
 IR Inten    --     14.7996                 3.5279                 1.7572

                     16                     17                     18
                      A                      A                      A
 Frequencies --    890.4333               953.5838               979.0577
 Red. masses --      2.3859                 2.5684                 3.1817
 Frc consts  --      1.1146                 1.3761                 1.7969
 IR Inten    --     22.6569                 5.5224                 2.1891

                     19                     20                     21
                      A                      A                      A
 Frequencies --    996.4651              1018.8048              1053.3650
 Red. masses --      2.6133                 2.0428                 1.5785
 Frc consts  --      1.5289                 1.2493                 1.0320
 IR Inten    --     13.9090                 7.4899                23.1731

                     22                     23                     24
                      A                      A                      A
 Frequencies --   1072.1245              1078.3963              1101.3832
 Red. masses --      1.4036                 2.3748                 1.6428
 Frc consts  --      0.9506                 1.6272                 1.1741
 IR Inten    --     12.3600                52.3132                17.5139

                     25                     26                     27
                      A                      A                      A
 Frequencies --   1104.7223              1128.6371              1143.1962
 Red. masses --      2.4552                 1.2089                 1.6001
 Frc consts  --      1.7654                 0.9073                 1.2321
 IR Inten    --     16.1272                 1.5720                 0.9771

                     28                     29                     30
                      A                      A                      A
 Frequencies --   1176.0400              1207.0074              1211.7412
 Red. masses --      1.6068                 1.2909                 1.4299
 Frc consts  --      1.3094                 1.1081                 1.2370
 IR Inten    --      1.7844                10.6524                 1.4592

                     31                     32                     33
                      A                      A                      A
 Frequencies --   1273.7184              1283.5115              1308.4326
 Red. masses --      1.2270                 1.3783                 1.3396
 Frc consts  --      1.1728                 1.3378                 1.3513
 IR Inten    --     53.3635                 3.5951                 3.4559

                     34                     35                     36
                      A                      A                      A
 Frequencies --   1334.1106              1365.3909              1384.0308
 Red. masses --      1.3457                 1.3736                 1.3234
 Frc consts  --      1.4112                 1.5088                 1.4936
 IR Inten    --      8.5463                 1.8380                24.4304

                     37                     38                     39
                      A                      A                      A
 Frequencies --   1401.0079              1449.3179              1452.2667
 Red. masses --      1.8145                 1.9763                 2.4974
 Frc consts  --      2.0984                 2.4459                 3.1034
 IR Inten    --      1.4851                13.9626                12.4441

                     40                     41                     42
                      A                      A                      A
 Frequencies --   1483.1843              1492.0667              2953.7956
 Red. masses --      1.1174                 1.3580                 1.0832
 Frc consts  --      1.4483                 1.7812                 5.5684
 IR Inten    --      0.5712                 5.3739                46.9737

                     43                     44                     45
                      A                      A                      A
 Frequencies --   3032.7683              3092.0040              3095.8036
 Red. masses --      1.0634                 1.0965                 1.0874
 Frc consts  --      5.7626                 6.1765                 6.1404
 IR Inten    --     33.2388                 5.5774                24.4064

                     46                     47                     48
                      A                      A                      A
 Frequencies --   3113.9886              3123.0595              3148.7355
 Red. masses --      1.0919                 1.0551                 1.0882
 Frc consts  --      6.2381                 6.0634                 6.3568
 IR Inten    --     57.2688                16.1473                10.8051

                     49                     50                     51
                      A                      A                      A
 Frequencies --   3172.9083              3211.1499              3814.3370
 Red. masses --      1.0901                 1.1149                 1.0660
 Frc consts  --      6.4659                 6.7733                 9.1382
 IR Inten    --      4.2930                12.6892                15.7027

 - Thermochemistry -
 -------------------
 Temperature   298.150 Kelvin.  Pressure   1.00000 Atm.
 Atom     1 has atomic number  8 and mass  15.99491

 Molecular mass:   126.06808 amu.
 Principal axes and moments of inertia in atomic units:
                           1         2         3
     Eigenvalues --   722.636651081.002221602.89927
           X            0.99927  -0.03767  -0.00677
           Y            0.03758   0.99921  -0.01272
           Z            0.00724   0.01245   0.99990
 This molecule is an asymmetric top.
 Rotational symmetry number  1.
 Warning -- assumption of classical behavior for rotation
           may cause significant error
 Rotational temperatures (Kelvin)      0.11986     0.08012     0.05404
 Rotational constants (GHZ):           2.49744     1.66951     1.12592
 Zero-point vibrational energy     422038.6 (Joules/Mol)
                                  100.86965 (Kcal/Mol)
 Warning -- explicit consideration of  10 degrees of freedom as
           vibrations may cause significant error
 Vibrational temperatures:    141.05   263.96   395.52   443.57   489.65
          (Kelvin)            561.44   589.03   634.96   731.32   774.01
                             1035.54  1092.03  1173.52  1198.65  1207.27
                             1281.13  1371.99  1408.64  1433.69  1465.83
                             1515.56  1542.55  1551.57  1584.64  1589.45
                             1623.86  1644.80  1692.06  1736.61  1743.42
                             1832.59  1846.68  1882.54  1919.49  1964.49
                             1991.31  2015.74  2085.24  2089.49  2133.97
                             2146.75  4249.85  4363.47  4448.70  4454.17
                             4480.33  4493.38  4530.32  4565.10  4620.12
                             5487.97

 Zero-point correction=                           0.160746 (Hartree/Particle)
 Thermal correction to Energy=                    0.168383
 Thermal correction to Enthalpy=                  0.169327
 Thermal correction to Gibbs Free Energy=         0.128784
 Sum of electronic and zero-point Energies=           -423.000522
 Sum of electronic and thermal Energies=              -422.992885
 Sum of electronic and thermal Enthalpies=            -422.991941
 Sum of electronic and thermal Free Energies=         -423.032484

                     E (Thermal)             CV                S
                      KCal/Mol        Cal/Mol-Kelvin    Cal/Mol-Kelvin
 Total                  105.662             30.739             85.330
 Electronic               0.000              0.000              0.000
 Translational            0.889              2.981             40.409
 Rotational               0.889              2.981             28.617
 Vibrational            103.885             24.778             16.305
 Vibration     1          0.603              1.951              3.493
 Vibration     2          0.631              1.862              2.293
 Vibration     3          0.677              1.720              1.565
 Vibration     4          0.698              1.658              1.371
 Vibration     5          0.720              1.595              1.211
 Vibration     6          0.758              1.491              0.999
 Vibration     7          0.774              1.450              0.929
 Vibration     8          0.801              1.380              0.822
 Vibration     9          0.863              1.232              0.638
 Vibration    10          0.893              1.166              0.570

 Optimization completed.
    -- Stationary point found.
 Normal termination of Gaussian 09 at Tue Jan 28 05:18:37 2020.
