 Gaussian 09, Revision D.01,
 Gaussian 09:  ES64L-G09RevD.01 24-Apr-2013

 -----------------------------
 # b3lyp 6-31G(2df,p) opt Freq
 -----------------------------

 -----
 titel
 -----
 Symbolic Z-matrix:
 Charge =  0 Multiplicity = 1

 SCF Done:  E(RB3LYP) =  -423.193022632     A.U. after   12 cycles
 Optimization completed.
    -- Stationary point found.
 Normal termination of Gaussian 09 at Mon Jan 27 18:09:04 2020.

 ----------------------------------------------------------------------
 #N Geom=AllCheck Guess=TCheck SCRF=Check GenChk RB3LYP/6-31G(2df,p) Fr
 eq
 ----------------------------------------------------------------------

 Structure from the checkpoint file:  "/scratch/puck/g09_ff1e4f7b-20fc-4c62-ab3c-50857c8ae597/Gau-81466.chk"
 -----
 titel
 -----
 Charge =  0 Multiplicity = 1

                         Standard orientation:
 ---------------------------------------------------------------------
 Center     Atomic      Atomic             Coordinates (Angstroms)
 Number     Number       Type             X           Y           Z
 ---------------------------------------------------------------------
      1          8           0       -2.388177    0.103511   -0.389347
      2          6           0       -1.020525    0.012945   -0.083636
      3          6           0       -0.260679    1.265983   -0.569637
      4          6           0        1.149006    1.007504   -0.002566
      5          8           0        1.819674    0.006192   -0.805493
      6          6           0        1.138416   -1.018934   -0.046384
      7          6           0       -0.273595   -1.234255   -0.627242
      8          6           0        0.892306   -0.028914    1.138540
      9          6           0       -0.606936   -0.023069    1.411997
     10          1           0       -2.814527   -0.712565   -0.106095
     11          1           0       -0.242153    1.368980   -1.656929
     12          1           0       -0.717580    2.162858   -0.137589
     13          1           0        1.767066    1.893345    0.154033
     14          1           0        1.745465   -1.918248    0.074482
     15          1           0       -0.254856   -1.291060   -1.718018
     16          1           0       -0.732037   -2.150957   -0.233033
     17          1           0        1.598924   -0.052429    1.965046
     18          1           0       -0.957462   -0.923073    1.929786
     19          1           0       -0.952778    0.857967    1.960610
 ---------------------------------------------------------------------

 SCF Done:  E(RB3LYP) =  -423.193022632     A.U. after    1 cycles

 The electronic state is 1-A.
 Alpha  occ. eigenvalues --  -19.13876 -19.12744 -10.23770 -10.23323 -10.23185
 Alpha  occ. eigenvalues --  -10.19075 -10.18093 -10.17977 -10.17623  -1.04198
 Alpha  occ. eigenvalues --   -1.02262  -0.84391  -0.74654  -0.71857  -0.67073
 Alpha  occ. eigenvalues --   -0.61437  -0.57446  -0.53704  -0.51961  -0.48116
 Alpha  occ. eigenvalues --   -0.46216  -0.44097  -0.43458  -0.40903  -0.39415
 Alpha  occ. eigenvalues --   -0.38575  -0.36976  -0.35961  -0.35369  -0.31450
 Alpha  occ. eigenvalues --   -0.30024  -0.29238  -0.26339  -0.23842
 Alpha virt. eigenvalues --    0.07176   0.08759   0.09246   0.12524   0.13895
 Alpha virt. eigenvalues --    0.14141   0.15461   0.16212   0.16978   0.18298
 Alpha virt. eigenvalues --    0.18638   0.18772   0.19783   0.20780   0.22308

 Mulliken charges:
               1
     1  O   -0.499325
     2  C    0.392724
     3  C   -0.244489
     4  C    0.092819
     5  O   -0.298412
     6  C    0.098569
     7  C   -0.282857
     8  C   -0.069588
     9  C   -0.288351
    10  H    0.273692
    11  H    0.110796
    12  H    0.101189
    13  H    0.077377
    14  H    0.076565
    15  H    0.112143
    16  H    0.081905
    17  H    0.075423
    18  H    0.087302
    19  H    0.102519
 Sum of Mulliken charges =   0.00000

 Dipole moment (field-independent basis, Debye):
    X=             -0.6631    Y=             -1.0916    Z=              1.7904  Tot=              2.1993
 Quadrupole moment (field-independent basis, Debye-Ang):
   XX=            -57.1020   YY=            -49.1510   ZZ=            -53.9115
   XY=              3.7775   XZ=              1.0235   YZ=              0.1608

  Exact polarizability:  75.403   1.576  75.100   0.326  -0.199  68.017
 Approx polarizability: 109.106   1.747 111.659  -1.950  -0.996 102.792

                      1                      2                      3
                      A                      A                      A
 Frequencies --    256.2467               286.8407               328.9837
 Red. masses --      1.5990                 1.9711                 3.0539
 Frc consts  --      0.0619                 0.0956                 0.1947
 IR Inten    --     26.6346                54.1761                17.5829

                      4                      5                      6
                      A                      A                      A
 Frequencies --    372.4363               426.3581               473.7779
 Red. masses --      2.0570                 3.8615                 2.0207
 Frc consts  --      0.1681                 0.4136                 0.2672
 IR Inten    --      0.8995                 7.9768                 0.2241

                      7                      8                      9
                      A                      A                      A
 Frequencies --    475.9676               585.1490               614.3421
 Red. masses --      1.9811                 4.5504                 4.6891
 Frc consts  --      0.2644                 0.9180                 1.0427
 IR Inten    --      4.1068                 0.2428                 8.6645

                     10                     11                     12
                      A                      A                      A
 Frequencies --    639.2345               773.7678               844.8407
 Red. masses --      4.7595                 3.6272                 2.5453
 Frc consts  --      1.1459                 1.2795                 1.0704
 IR Inten    --      5.6429                 1.3097                15.0948

                     13                     14                     15
                      A                      A                      A
 Frequencies --    846.7494               865.1205               872.1116
 Red. masses --      2.2396                 2.3885                 2.2879
 Frc consts  --      0.9461                 1.0532                 1.0252
 IR Inten    --      3.7135                 1.7854                 4.2533

                     16                     17                     18
                      A                      A                      A
 Frequencies --    904.8704               931.9205               945.7511
 Red. masses --      4.3583                 1.8720                 1.7662
 Frc consts  --      2.1025                 0.9579                 0.9308
 IR Inten    --      6.5976                 5.5868                 2.9108

                     19                     20                     21
                      A                      A                      A
 Frequencies --    968.5215               990.2974              1017.9780
 Red. masses --      1.6999                 2.5751                 2.2878
 Frc consts  --      0.9395                 1.4879                 1.3968
 IR Inten    --      2.6978                46.3128                33.4976

                     22                     23                     24
                      A                      A                      A
 Frequencies --   1032.4764              1064.9419              1092.0338
 Red. masses --      1.8595                 1.2638                 2.1300
 Frc consts  --      1.1679                 0.8444                 1.4966
 IR Inten    --      1.0335                13.0495                11.3011

                     25                     26                     27
                      A                      A                      A
 Frequencies --   1104.7853              1137.7846              1158.6382
 Red. masses --      1.3308                 1.8228                 3.0437
 Frc consts  --      0.9570                 1.3903                 2.4074
 IR Inten    --     16.1787                26.5392                17.9947

                     28                     29                     30
                      A                      A                      A
 Frequencies --   1194.3203              1235.2723              1243.4890
 Red. masses --      1.3557                 1.5374                 1.4307
 Frc consts  --      1.1394                 1.3822                 1.3034
 IR Inten    --     17.0300                 5.5436                 6.0748

                     31                     32                     33
                      A                      A                      A
 Frequencies --   1259.7740              1277.3630              1284.1721
 Red. masses --      1.8716                 1.6174                 1.9930
 Frc consts  --      1.7500                 1.5549                 1.9364
 IR Inten    --      6.5875                 6.8136                52.7808

                     34                     35                     36
                      A                      A                      A
 Frequencies --   1303.4204              1304.8654              1353.2925
 Red. masses --      1.8952                 1.3364                 1.7382
 Frc consts  --      1.8970                 1.3406                 1.8756
 IR Inten    --     12.5078                 2.7957                47.5648

                     37                     38                     39
                      A                      A                      A
 Frequencies --   1355.3606              1399.9525              1469.7621
 Red. masses --      1.5069                 1.7760                 1.0936
 Frc consts  --      1.6310                 2.0508                 1.3919
 IR Inten    --     19.8877                13.9975                 3.7831

                     40                     41                     42
                      A                      A                      A
 Frequencies --   1475.6051              1504.5712              3021.5355
 Red. masses --      1.1055                 1.1248                 1.0670
 Frc consts  --      1.4182                 1.5003                 5.7397
 IR Inten    --      4.0551                 0.7668                26.8692

                     43                     44                     45
                      A                      A                      A
 Frequencies --   3042.0731              3052.0151              3090.1180
 Red. masses --      1.0600                 1.0633                 1.0891
 Frc consts  --      5.7798                 5.8355                 6.1271
 IR Inten    --     37.0516                18.3370                58.9786

                     46                     47                     48
                      A                      A                      A
 Frequencies --   3095.1828              3096.4061              3108.8348
 Red. masses --      1.0929                 1.1009                 1.0976
 Frc consts  --      6.1690                 6.2189                 6.2501
 IR Inten    --     19.9988                48.3806                 9.9708

                     49                     50                     51
                      A                      A                      A
 Frequencies --   3115.3935              3142.0883              3803.3659
 Red. masses --      1.1017                 1.0909                 1.0658
 Frc consts  --      6.3003                 6.3455                 9.0840
 IR Inten    --     23.0206                31.3281                12.2771

 - Thermochemistry -
 -------------------
 Temperature   298.150 Kelvin.  Pressure   1.00000 Atm.
 Atom     1 has atomic number  8 and mass  15.99491

 Molecular mass:   126.06808 amu.
 Principal axes and moments of inertia in atomic units:
                           1         2         3
     Eigenvalues --   582.177361078.165761100.90636
           X            0.99986   0.01414   0.00861
           Y           -0.01438   0.99951   0.02782
           Z           -0.00822  -0.02794   0.99958
 This molecule is an asymmetric top.
 Rotational symmetry number  1.
 Warning -- assumption of classical behavior for rotation
           may cause significant error
 Rotational temperatures (Kelvin)      0.14878     0.08033     0.07868
 Rotational constants (GHZ):           3.09999     1.67390     1.63932
 Zero-point vibrational energy     426110.8 (Joules/Mol)
                                  101.84292 (Kcal/Mol)
 Warning -- explicit consideration of   9 degrees of freedom as
           vibrations may cause significant error
 Vibrational temperatures:    368.68   412.70   473.33   535.85   613.43
          (Kelvin)            681.66   684.81   841.90   883.90   919.71
                             1113.28  1215.54  1218.28  1244.71  1254.77
                             1301.91  1340.82  1360.72  1393.48  1424.82
                             1464.64  1485.50  1532.21  1571.19  1589.54
                             1637.02  1667.02  1718.36  1777.28  1789.10
                             1812.53  1837.84  1847.63  1875.33  1877.41
                             1947.08  1950.06  2014.22  2114.66  2123.06
                             2164.74  4347.31  4376.86  4391.16  4445.99
                             4453.27  4455.03  4472.91  4482.35  4520.76
                             5472.19

 Zero-point correction=                           0.162297 (Hartree/Particle)
 Thermal correction to Energy=                    0.168898
 Thermal correction to Enthalpy=                  0.169842
 Thermal correction to Gibbs Free Energy=         0.131900
 Sum of electronic and zero-point Energies=           -423.030726
 Sum of electronic and thermal Energies=              -423.024125
 Sum of electronic and thermal Enthalpies=            -423.023181
 Sum of electronic and thermal Free Energies=         -423.061123

                     E (Thermal)             CV                S
                      KCal/Mol        Cal/Mol-Kelvin    Cal/Mol-Kelvin
 Total                  105.985             28.727             79.855
 Electronic               0.000              0.000              0.000
 Translational            0.889              2.981             40.409
 Rotational               0.889              2.981             28.026
 Vibrational            104.207             22.765             11.420
 Vibration     1          0.666              1.752              1.687
 Vibration     2          0.684              1.698              1.493
 Vibration     3          0.712              1.618              1.265
 Vibration     4          0.744              1.529              1.070
 Vibration     5          0.788              1.413              0.871
 Vibration     6          0.831              1.308              0.727
 Vibration     7          0.833              1.303              0.721
 Vibration     8          0.942              1.063              0.476
 Vibration     9          0.974              1.002              0.426

 Optimization completed.
    -- Stationary point found.
 Normal termination of Gaussian 09 at Mon Jan 27 19:05:52 2020.
