 Gaussian 09, Revision D.01,
 Gaussian 09:  ES64L-G09RevD.01 24-Apr-2013

 -----------------------------
 # b3lyp 6-31G(2df,p) opt Freq
 -----------------------------

 -----
 titel
 -----
 Symbolic Z-matrix:
 Charge =  0 Multiplicity = 1

 SCF Done:  E(RB3LYP) =  -423.192403594     A.U. after   14 cycles
 Optimization completed.
    -- Stationary point found.
 Normal termination of Gaussian 09 at Tue Jan 28 03:58:25 2020.

 ----------------------------------------------------------------------
 #N Geom=AllCheck Guess=TCheck SCRF=Check GenChk RB3LYP/6-31G(2df,p) Fr
 eq
 ----------------------------------------------------------------------

 Structure from the checkpoint file:  "/scratch/puck/g09_8c8e5316-213d-49b4-8e42-9770166d77ca/Gau-95030.chk"
 -----
 titel
 -----
 Charge =  0 Multiplicity = 1

                         Standard orientation:
 ---------------------------------------------------------------------
 Center     Atomic      Atomic             Coordinates (Angstroms)
 Number     Number       Type             X           Y           Z
 ---------------------------------------------------------------------
      1          8           0       -2.983539    0.133734    0.508902
      2          6           0       -1.856614    0.066574   -0.349345
      3          6           0       -0.982615   -1.211938   -0.157243
      4          6           0        0.445949   -0.755161   -0.498734
      5          6           0        1.667856   -1.119793    0.351837
      6          8           0        2.551284   -0.001605    0.208661
      7          6           0        1.787079    1.201353    0.038529
      8          6           0        0.391644    0.733811   -0.239521
      9          6           0       -0.852335    1.192595   -0.149938
     10          1           0       -2.653535    0.172848    1.413948
     11          1           0       -2.291651    0.093283   -1.357215
     12          1           0       -1.039978   -1.499018    0.900837
     13          1           0       -1.336019   -2.059579   -0.748739
     14          1           0        0.680197   -0.951193   -1.554390
     15          1           0        1.375669   -1.258989    1.406095
     16          1           0        2.215421   -2.006230    0.021473
     17          1           0        1.837590    1.825489    0.942487
     18          1           0        2.233525    1.771119   -0.786456
     19          1           0       -1.168963    2.210595    0.047936
 ---------------------------------------------------------------------

 SCF Done:  E(RB3LYP) =  -423.192403594     A.U. after    1 cycles

 The electronic state is 1-A.
 Alpha  occ. eigenvalues --  -19.13657 -19.13552 -10.23611 -10.23459 -10.22870
 Alpha  occ. eigenvalues --  -10.19273 -10.19216 -10.18701 -10.18127  -1.03097
 Alpha  occ. eigenvalues --   -1.01817  -0.84670  -0.75262  -0.71880  -0.69035
 Alpha  occ. eigenvalues --   -0.61146  -0.58710  -0.53753  -0.50597  -0.49510
 Alpha  occ. eigenvalues --   -0.47226  -0.45852  -0.44200  -0.41407  -0.39599
 Alpha  occ. eigenvalues --   -0.38398  -0.37227  -0.36033  -0.34535  -0.33488
 Alpha  occ. eigenvalues --   -0.30138  -0.27113  -0.25388  -0.24474
 Alpha virt. eigenvalues --    0.00381   0.08750   0.10098   0.11232   0.11303
 Alpha virt. eigenvalues --    0.13102   0.13736   0.14676   0.15537   0.15906
 Alpha virt. eigenvalues --    0.17649   0.18442   0.19569   0.21640   0.23555

 Mulliken charges:
               1
     1  O   -0.431369
     2  C    0.131045
     3  C   -0.285971
     4  C   -0.071893
     5  C   -0.094892
     6  O   -0.268115
     7  C   -0.175048
     8  C    0.333410
     9  C   -0.320017
    10  H    0.272911
    11  H    0.096262
    12  H    0.093741
    13  H    0.104783
    14  H    0.089960
    15  H    0.085695
    16  H    0.109432
    17  H    0.111320
    18  H    0.118810
    19  H    0.099933
 Sum of Mulliken charges =   0.00000

 Dipole moment (field-independent basis, Debye):
    X=              0.1457    Y=             -0.0089    Z=              0.2813  Tot=              0.3169
 Quadrupole moment (field-independent basis, Debye-Ang):
   XX=            -66.1458   YY=            -49.8221   ZZ=            -49.8578
   XY=              0.4502   XZ=             -1.6993   YZ=              0.6418

  Exact polarizability:  93.118  -1.738  77.250  -1.128   1.511  61.943
 Approx polarizability: 134.433  -6.412 109.911  -4.154   2.920  97.095

                      1                      2                      3
                      A                      A                      A
 Frequencies --     85.4021               157.8364               183.4180
 Red. masses --      4.0587                 2.5456                 2.5731
 Frc consts  --      0.0174                 0.0374                 0.0510
 IR Inten    --      3.8959                 2.1285                 3.3321

                      4                      5                      6
                      A                      A                      A
 Frequencies --    295.7061               329.7865               354.8805
 Red. masses --      2.3440                 3.0302                 1.2460
 Frc consts  --      0.1208                 0.1942                 0.0925
 IR Inten    --      3.4041                 5.0696                75.5755

                      7                      8                      9
                      A                      A                      A
 Frequencies --    434.9563               465.9531               554.0556
 Red. masses --      3.4164                 3.6912                 2.5374
 Frc consts  --      0.3808                 0.4722                 0.4589
 IR Inten    --      7.8472                 2.3275                 2.4078

                     10                     11                     12
                      A                      A                      A
 Frequencies --    619.9797               644.7335               723.3360
 Red. masses --      3.2725                 3.1327                 4.8689
 Frc consts  --      0.7411                 0.7672                 1.5009
 IR Inten    --      1.4520                 2.7276                 8.8312

                     13                     14                     15
                      A                      A                      A
 Frequencies --    829.7361               845.0221               870.3492
 Red. masses --      2.6910                 1.5862                 2.3071
 Frc consts  --      1.0915                 0.6673                 1.0297
 IR Inten    --      7.1196                 6.4163                12.6504

                     16                     17                     18
                      A                      A                      A
 Frequencies --    920.4521               935.8918               993.3026
 Red. masses --      4.2173                 1.7748                 2.3568
 Frc consts  --      2.1052                 0.9159                 1.3700
 IR Inten    --     28.9261                10.1507                10.3044

                     19                     20                     21
                      A                      A                      A
 Frequencies --   1014.5648              1030.7040              1050.0941
 Red. masses --      1.7218                 1.9704                 3.5398
 Frc consts  --      1.0442                 1.2333                 2.2998
 IR Inten    --      2.7316                22.4147                54.1630

                     22                     23                     24
                      A                      A                      A
 Frequencies --   1069.5894              1084.1384              1112.2301
 Red. masses --      2.9470                 3.3985                 2.5264
 Frc consts  --      1.9864                 2.3535                 1.8414
 IR Inten    --     75.6051                19.2891                28.7134

                     25                     26                     27
                      A                      A                      A
 Frequencies --   1155.3023              1188.9113              1204.1229
 Red. masses --      1.8042                 1.7757                 1.1742
 Frc consts  --      1.4188                 1.4788                 1.0030
 IR Inten    --     30.1834                 2.5932                10.7901

                     28                     29                     30
                      A                      A                      A
 Frequencies --   1220.2419              1245.6527              1258.0718
 Red. masses --      1.3161                 1.4215                 1.3348
 Frc consts  --      1.1546                 1.2995                 1.2447
 IR Inten    --      7.7087                 2.1337                 1.8668

                     31                     32                     33
                      A                      A                      A
 Frequencies --   1285.5333              1310.9271              1318.7697
 Red. masses --      1.4187                 1.5052                 1.3854
 Frc consts  --      1.3814                 1.5240                 1.4196
 IR Inten    --      3.4452                 0.0324                 5.0421

                     34                     35                     36
                      A                      A                      A
 Frequencies --   1329.6506              1357.7507              1393.2899
 Red. masses --      1.3411                 1.4428                 1.4384
 Frc consts  --      1.3969                 1.5671                 1.6452
 IR Inten    --      0.8564                 9.3998                10.4956

                     37                     38                     39
                      A                      A                      A
 Frequencies --   1430.0871              1483.6855              1502.7402
 Red. masses --      1.2243                 1.0943                 1.0840
 Frc consts  --      1.4752                 1.4193                 1.4422
 IR Inten    --     92.7907                 2.8228                 0.4673

                     40                     41                     42
                      A                      A                      A
 Frequencies --   1517.7622              1740.7297              2964.9920
 Red. masses --      1.0925                 8.8391                 1.0709
 Frc consts  --      1.4827                15.7804                 5.5466
 IR Inten    --      1.5548                 4.5315                57.5888

                     43                     44                     45
                      A                      A                      A
 Frequencies --   2998.5523              3007.5393              3019.8185
 Red. masses --      1.0628                 1.0817                 1.0824
 Frc consts  --      5.6300                 5.7648                 5.8157
 IR Inten    --     50.4198                22.8445                22.4940

                     46                     47                     48
                      A                      A                      A
 Frequencies --   3030.9664              3033.8631              3092.1319
 Red. masses --      1.0685                 1.0998                 1.0933
 Frc consts  --      5.7833                 5.9645                 6.1591
 IR Inten    --     34.8823                39.5241                36.0111

                     49                     50                     51
                      A                      A                      A
 Frequencies --   3106.4486              3196.3977              3790.8624
 Red. masses --      1.0973                 1.0952                 1.0658
 Frc consts  --      6.2388                 6.5924                 9.0239
 IR Inten    --     39.0725                 8.4416                 9.6073

 - Thermochemistry -
 -------------------
 Temperature   298.150 Kelvin.  Pressure   1.00000 Atm.
 Atom     1 has atomic number  8 and mass  15.99491

 Molecular mass:   126.06808 amu.
 Principal axes and moments of inertia in atomic units:
                           1         2         3
     Eigenvalues --   458.921841570.378971863.26986
           X            0.99999   0.00491   0.00068
           Y           -0.00491   0.99998   0.00491
           Z           -0.00065  -0.00491   0.99999
 This molecule is an asymmetric top.
 Rotational symmetry number  1.
 Warning -- assumption of classical behavior for rotation
           may cause significant error
 Rotational temperatures (Kelvin)      0.18873     0.05515     0.04648
 Rotational constants (GHZ):           3.93257     1.14924     0.96859
 Zero-point vibrational energy     423423.7 (Joules/Mol)
                                  101.20070 (Kcal/Mol)
 Warning -- explicit consideration of  10 degrees of freedom as
           vibrations may cause significant error
 Vibrational temperatures:    122.87   227.09   263.90   425.45   474.49
          (Kelvin)            510.59   625.80   670.40   797.16   892.01
                              927.63  1040.72  1193.80  1215.80  1252.24
                             1324.32  1346.54  1429.14  1459.73  1482.95
                             1510.85  1538.90  1559.83  1600.25  1662.22
                             1710.58  1732.46  1755.65  1792.21  1810.08
                             1849.59  1886.13  1897.41  1913.07  1953.50
                             2004.63  2057.57  2134.69  2162.11  2183.72
                             2504.52  4265.96  4314.24  4327.17  4344.84
                             4360.88  4365.05  4448.88  4469.48  4598.90
                             5454.20

 Zero-point correction=                           0.161274 (Hartree/Particle)
 Thermal correction to Energy=                    0.169043
 Thermal correction to Enthalpy=                  0.169988
 Thermal correction to Gibbs Free Energy=         0.128880
 Sum of electronic and zero-point Energies=           -423.031130
 Sum of electronic and thermal Energies=              -423.023360
 Sum of electronic and thermal Enthalpies=            -423.022416
 Sum of electronic and thermal Free Energies=         -423.063524

                     E (Thermal)             CV                S
                      KCal/Mol        Cal/Mol-Kelvin    Cal/Mol-Kelvin
 Total                  106.076             30.384             86.518
 Electronic               0.000              0.000              0.000
 Translational            0.889              2.981             40.409
 Rotational               0.889              2.981             28.687
 Vibrational            104.299             24.423             17.423
 Vibration     1          0.601              1.959              3.763
 Vibration     2          0.621              1.894              2.576
 Vibration     3          0.631              1.862              2.293
 Vibration     4          0.690              1.682              1.441
 Vibration     5          0.713              1.616              1.261
 Vibration     6          0.731              1.565              1.144
 Vibration     7          0.796              1.394              0.843
 Vibration     8          0.823              1.326              0.749
 Vibration     9          0.909              1.131              0.536
 Vibration    10          0.980              0.990              0.417

 Normal termination of Gaussian 09 at Tue Jan 28 04:44:59 2020.
