 Gaussian 09, Revision D.01,
 Gaussian 09:  ES64L-G09RevD.01 24-Apr-2013

 -----------------------------
 # b3lyp 6-31G(2df,p) opt Freq
 -----------------------------

 -----
 titel
 -----
 Symbolic Z-matrix:
 Charge =  0 Multiplicity = 1

 SCF Done:  E(RB3LYP) =  -423.120162135     A.U. after   14 cycles
 Optimization completed.
    -- Stationary point found.
 Normal termination of Gaussian 09 at Tue Jan 28 11:54:02 2020.

 ----------------------------------------------------------------------
 #N Geom=AllCheck Guess=TCheck SCRF=Check GenChk RB3LYP/6-31G(2df,p) Fr
 eq
 ----------------------------------------------------------------------

 Structure from the checkpoint file:  "/scratch/puck/g09_f633d1f6-2851-412f-9832-1da4c21f8af6/Gau-26552.chk"
 -----
 titel
 -----
 Charge =  0 Multiplicity = 1

                         Standard orientation:
 ---------------------------------------------------------------------
 Center     Atomic      Atomic             Coordinates (Angstroms)
 Number     Number       Type             X           Y           Z
 ---------------------------------------------------------------------
      1          6           0        2.806407    0.640836    0.175842
      2          8           0        1.405763    0.807614    0.195953
      3          6           0        0.705547   -0.396836    0.222608
      4          6           0        0.539760   -1.240863   -1.072233
      5          6           0       -0.921313   -1.519004   -0.633799
      6          6           0       -0.839200   -0.276836    0.324462
      7          8           0       -1.308392   -0.447072    1.647858
      8          6           0       -1.380650    0.930942   -0.286510
      9          6           0       -1.897352    1.903425   -0.769081
     10          1           0        3.145223    0.109791   -0.726146
     11          1           0        3.250824    1.638689    0.184020
     12          1           0        3.161175    0.085131    1.057929
     13          1           0        1.038700   -1.032782    1.057843
     14          1           0        0.583264   -0.597972   -1.955001
     15          1           0        1.200006   -2.098031   -1.211009
     16          1           0       -1.697869   -1.503174   -1.398738
     17          1           0       -1.011890   -2.425804   -0.031452
     18          1           0       -2.199389   -0.085930    1.699395
     19          1           0       -2.328206    2.775769   -1.195055
 ---------------------------------------------------------------------

 SCF Done:  E(RB3LYP) =  -423.120162135     A.U. after    1 cycles

 The electronic state is 1-A.
 Alpha  occ. eigenvalues --  -19.14190 -19.14026 -10.25689 -10.23264 -10.22374
 Alpha  occ. eigenvalues --  -10.18499 -10.18259 -10.18194 -10.17785  -1.03961
 Alpha  occ. eigenvalues --   -1.02432  -0.84336  -0.74885  -0.70284  -0.66349
 Alpha  occ. eigenvalues --   -0.63292  -0.58638  -0.53732  -0.51429  -0.49994
 Alpha  occ. eigenvalues --   -0.47604  -0.45491  -0.43700  -0.41735  -0.39822
 Alpha  occ. eigenvalues --   -0.37209  -0.36022  -0.35083  -0.32949  -0.30761
 Alpha  occ. eigenvalues --   -0.28535  -0.27323  -0.25450  -0.24933
 Alpha virt. eigenvalues --    0.03136   0.05075   0.09658   0.09821   0.11488
 Alpha virt. eigenvalues --    0.12265   0.12726   0.14603   0.15160   0.16191
 Alpha virt. eigenvalues --    0.17878   0.18689   0.19046   0.19703   0.21690

 Mulliken charges:
               1
     1  C   -0.239990
     2  O   -0.239478
     3  C    0.136981
     4  C   -0.270339
     5  C   -0.280740
     6  C    0.191002
     7  O   -0.468617
     8  C    0.315924
     9  C   -0.500786
    10  H    0.108562
    11  H    0.129609
    12  H    0.106759
    13  H    0.080792
    14  H    0.119263
    15  H    0.101184
    16  H    0.110381
    17  H    0.114535
    18  H    0.284507
    19  H    0.200451
 Sum of Mulliken charges =   0.00000

 Dipole moment (field-independent basis, Debye):
    X=             -0.0011    Y=             -0.4757    Z=             -0.9237  Tot=              1.0390
 Quadrupole moment (field-independent basis, Debye-Ang):
   XX=            -44.9741   YY=            -51.1474   ZZ=            -54.8550
   XY=             -2.6976   XZ=              0.0216   YZ=             -0.7298

  Exact polarizability:  84.056  -7.536  83.109   2.819  -5.526  67.536
 Approx polarizability: 108.570 -16.134 125.892   5.837 -15.541 102.845

                      1                      2                      3
                      A                      A                      A
 Frequencies --     73.7860               102.2184               120.3944
 Red. masses --      2.9929                 3.0444                 3.3648
 Frc consts  --      0.0096                 0.0187                 0.0287
 IR Inten    --      2.8878                 2.1356                 1.0921

                      4                      5                      6
                      A                      A                      A
 Frequencies --    176.9336               196.7084               219.1701
 Red. masses --      1.5604                 1.2965                 1.8117
 Frc consts  --      0.0288                 0.0296                 0.0513
 IR Inten    --     40.6795                 9.7016                34.1842

                      7                      8                      9
                      A                      A                      A
 Frequencies --    238.1826               289.6911               357.6992
 Red. masses --      2.7646                 3.0388                 4.0642
 Frc consts  --      0.0924                 0.1503                 0.3064
 IR Inten    --      5.6201                 4.0729                 2.4891

                     10                     11                     12
                      A                      A                      A
 Frequencies --    409.6514               475.2429               510.8258
 Red. masses --      3.8347                 3.1895                 4.1351
 Frc consts  --      0.3791                 0.4244                 0.6357
 IR Inten    --      0.8910                 3.6737                20.2967

                     13                     14                     15
                      A                      A                      A
 Frequencies --    613.4183               623.1241               648.0205
 Red. masses --      2.2164                 1.7053                 4.4849
 Frc consts  --      0.4914                 0.3901                 1.1096
 IR Inten    --     10.4656                38.7617                 1.5533

                     16                     17                     18
                      A                      A                      A
 Frequencies --    674.2845               729.1001               799.1401
 Red. masses --      1.2564                 2.3772                 1.5259
 Frc consts  --      0.3366                 0.7446                 0.5742
 IR Inten    --     33.6321                 4.0390                 4.9053

                     19                     20                     21
                      A                      A                      A
 Frequencies --    886.9416               933.8531               970.8722
 Red. masses --      1.8891                 3.1170                 1.9273
 Frc consts  --      0.8756                 1.6016                 1.0703
 IR Inten    --      0.8020                 6.2144                 5.8229

                     22                     23                     24
                      A                      A                      A
 Frequencies --   1002.4828              1050.0448              1095.8461
 Red. masses --      3.2086                 4.5268                 2.1842
 Frc consts  --      1.8998                 2.9408                 1.5454
 IR Inten    --     16.9494                25.0328                69.8104

                     25                     26                     27
                      A                      A                      A
 Frequencies --   1114.7393              1166.7722              1178.7918
 Red. masses --      2.5960                 1.9163                 2.3035
 Frc consts  --      1.9006                 1.5371                 1.8859
 IR Inten    --    106.6083                24.0336                68.1860

                     28                     29                     30
                      A                      A                      A
 Frequencies --   1184.7406              1209.0171              1232.5652
 Red. masses --      1.3555                 1.5992                 1.4082
 Frc consts  --      1.1210                 1.3773                 1.2605
 IR Inten    --      7.3446                31.0404                16.9622

                     31                     32                     33
                      A                      A                      A
 Frequencies --   1249.5009              1261.7691              1297.6142
 Red. masses --      1.5060                 1.6709                 1.6061
 Frc consts  --      1.3853                 1.5673                 1.5933
 IR Inten    --     11.9439                42.1798                16.2792

                     34                     35                     36
                      A                      A                      A
 Frequencies --   1371.1607              1397.4699              1477.4675
 Red. masses --      1.6090                 1.3449                 1.0860
 Frc consts  --      1.7823                 1.5475                 1.3968
 IR Inten    --     76.3292                36.8689                 2.4998

                     37                     38                     39
                      A                      A                      A
 Frequencies --   1482.5448              1488.2509              1496.7526
 Red. masses --      1.1327                 1.0581                 1.1486
 Frc consts  --      1.4668                 1.3808                 1.5161
 IR Inten    --      0.2309                 7.2456                 6.9412

                     40                     41                     42
                      A                      A                      A
 Frequencies --   1509.4250              2231.2062              2975.6792
 Red. masses --      1.0738                 5.9390                 1.0408
 Frc consts  --      1.4414                17.4197                 5.4301
 IR Inten    --      4.5378                 1.6358                51.1732

                     43                     44                     45
                      A                      A                      A
 Frequencies --   2987.5973              3025.3836              3072.1609
 Red. masses --      1.0789                 1.1025                 1.0572
 Frc consts  --      5.6740                 5.9457                 5.8791
 IR Inten    --     44.3970                47.3584                25.5891

                     46                     47                     48
                      A                      A                      A
 Frequencies --   3077.1552              3117.8780              3128.0203
 Red. masses --      1.0599                 1.0965                 1.1082
 Frc consts  --      5.9134                 6.2801                 6.3888
 IR Inten    --     17.8645                26.0073                16.5150

                     49                     50                     51
                      A                      A                      A
 Frequencies --   3144.3586              3500.7962              3819.3873
 Red. masses --      1.1088                 1.1617                 1.0663
 Frc consts  --      6.4591                 8.3882                 9.1650
 IR Inten    --     23.6732                65.7740                29.2407

 - Thermochemistry -
 -------------------
 Temperature   298.150 Kelvin.  Pressure   1.00000 Atm.
 Atom     1 has atomic number  6 and mass  12.00000

 Molecular mass:   126.06808 amu.
 Principal axes and moments of inertia in atomic units:
                           1         2         3
     Eigenvalues --   833.118731366.565881575.88499
           X            0.99997   0.00381   0.00726
           Y           -0.00402   0.99957   0.02892
           Z           -0.00714  -0.02895   0.99956
 This molecule is an asymmetric top.
 Rotational symmetry number  1.
 Warning -- assumption of classical behavior for rotation
           may cause significant error
 Rotational temperatures (Kelvin)      0.10396     0.06338     0.05496
 Rotational constants (GHZ):           2.16625     1.32064     1.14522
 Zero-point vibrational energy     409097.9 (Joules/Mol)
                                   97.77676 (Kcal/Mol)
 Warning -- explicit consideration of  13 degrees of freedom as
           vibrations may cause significant error
 Vibrational temperatures:    106.16   147.07   173.22   254.57   283.02
          (Kelvin)            315.34   342.69   416.80   514.65   589.40
                              683.77   734.96   882.57   896.54   932.36
                              970.14  1049.01  1149.78  1276.11  1343.60
                             1396.87  1442.35  1510.78  1576.68  1603.86
                             1678.72  1696.02  1704.58  1739.50  1773.38
                             1797.75  1815.40  1866.98  1972.79  2010.64
                             2125.74  2133.05  2141.26  2153.49  2171.72
                             3210.20  4281.33  4298.48  4352.85  4420.15
                             4427.33  4485.93  4500.52  4524.03  5036.86
                             5495.24

 Zero-point correction=                           0.155817 (Hartree/Particle)
 Thermal correction to Energy=                    0.165773
 Thermal correction to Enthalpy=                  0.166717
 Thermal correction to Gibbs Free Energy=         0.120990
 Sum of electronic and zero-point Energies=           -422.964345
 Sum of electronic and thermal Energies=              -422.954390
 Sum of electronic and thermal Enthalpies=            -422.953445
 Sum of electronic and thermal Free Energies=         -422.999172

                     E (Thermal)             CV                S
                      KCal/Mol        Cal/Mol-Kelvin    Cal/Mol-Kelvin
 Total                  104.024             36.363             96.239
 Electronic               0.000              0.000              0.000
 Translational            0.889              2.981             40.409
 Rotational               0.889              2.981             28.974
 Vibrational            102.246             30.401             26.856
 Vibration     1          0.599              1.966              4.050
 Vibration     2          0.604              1.947              3.412
 Vibration     3          0.609              1.932              3.094
 Vibration     4          0.628              1.871              2.361
 Vibration     5          0.636              1.844              2.164
 Vibration     6          0.647              1.812              1.966
 Vibration     7          0.656              1.782              1.816
 Vibration     8          0.686              1.693              1.476
 Vibration     9          0.733              1.559              1.132
 Vibration    10          0.774              1.449              0.928
 Vibration    11          0.832              1.305              0.723
 Vibration    12          0.866              1.226              0.632
 Vibration    13          0.973              1.003              0.427

 Normal termination of Gaussian 09 at Tue Jan 28 12:33:44 2020.
