 Gaussian 09, Revision D.01,
 Gaussian 09:  ES64L-G09RevD.01 24-Apr-2013

 -----------------------------
 # b3lyp 6-31G(2df,p) opt Freq
 -----------------------------

 -----
 titel
 -----
 Symbolic Z-matrix:
 Charge =  0 Multiplicity = 1

 SCF Done:  E(RB3LYP) =  -423.171101931     A.U. after   14 cycles
 Optimization completed.
    -- Stationary point found.
 Normal termination of Gaussian 09 at Tue Jan 28 14:08:18 2020.

 ----------------------------------------------------------------------
 #N Geom=AllCheck Guess=TCheck SCRF=Check GenChk RB3LYP/6-31G(2df,p) Fr
 eq
 ----------------------------------------------------------------------

 Structure from the checkpoint file:  "/scratch/puck/g09_004126fe-ce4b-43af-ade7-780819db8bee/Gau-144657.chk"
 -----
 titel
 -----
 Charge =  0 Multiplicity = 1

                         Standard orientation:
 ---------------------------------------------------------------------
 Center     Atomic      Atomic             Coordinates (Angstroms)
 Number     Number       Type             X           Y           Z
 ---------------------------------------------------------------------
      1          6           0       -2.475265   -0.853719   -0.845351
      2          6           0       -1.405247   -0.132966   -0.075964
      3          8           0       -1.193778   -0.572329    1.292186
      4          6           0       -0.113297   -0.696407    0.365145
      5          6           0        0.916809    0.429059    0.433961
      6          6           0        2.076834    0.206918   -0.537118
      7          8           0        2.791115   -0.940379   -0.100918
      8          6           0        0.089297    1.653334    0.087802
      9          6           0       -1.170950    1.341231   -0.222674
     10          1           0       -2.357716   -0.690668   -1.921998
     11          1           0       -2.433450   -1.927012   -0.645474
     12          1           0       -3.469555   -0.493508   -0.558317
     13          1           0        0.211612   -1.709829    0.147245
     14          1           0        1.336981    0.503654    1.445382
     15          1           0        1.680069    0.071215   -1.555799
     16          1           0        2.720674    1.100380   -0.550989
     17          1           0        3.475766   -1.134595   -0.747437
     18          1           0        0.497801    2.657567    0.127864
     19          1           0       -1.949956    2.039759   -0.505427
 ---------------------------------------------------------------------

 SCF Done:  E(RB3LYP) =  -423.171101931     A.U. after    1 cycles

 The electronic state is 1-A.
 Alpha  occ. eigenvalues --  -19.13995 -19.13594 -10.23436 -10.23286 -10.22243
 Alpha  occ. eigenvalues --  -10.19097 -10.18645 -10.18268 -10.18108  -1.05777
 Alpha  occ. eigenvalues --   -1.02068  -0.82278  -0.75521  -0.71966  -0.65247
 Alpha  occ. eigenvalues --   -0.62248  -0.55978  -0.54766  -0.51023  -0.49443
 Alpha  occ. eigenvalues --   -0.46536  -0.43239  -0.42753  -0.41725  -0.40633
 Alpha  occ. eigenvalues --   -0.37654  -0.36978  -0.36133  -0.35569  -0.33465
 Alpha  occ. eigenvalues --   -0.29357  -0.27358  -0.25125  -0.24225
 Alpha virt. eigenvalues --    0.00358   0.07228   0.10628   0.11338   0.12597
 Alpha virt. eigenvalues --    0.13490   0.14464   0.15030   0.16414   0.16948
 Alpha virt. eigenvalues --    0.17953   0.18434   0.20558   0.20872   0.21649

 Mulliken charges:
               1
     1  C   -0.492197
     2  C    0.387736
     3  O   -0.304597
     4  C   -0.023682
     5  C   -0.070374
     6  C   -0.090175
     7  O   -0.419352
     8  C   -0.103828
     9  C   -0.138922
    10  H    0.122209
    11  H    0.132453
    12  H    0.127372
    13  H    0.100435
    14  H    0.105932
    15  H    0.089359
    16  H    0.089301
    17  H    0.289205
    18  H    0.099860
    19  H    0.099267
 Sum of Mulliken charges =   0.00000

 Dipole moment (field-independent basis, Debye):
    X=              1.1415    Y=              0.8356    Z=             -2.8182  Tot=              3.1533
 Quadrupole moment (field-independent basis, Debye-Ang):
   XX=            -47.1940   YY=            -51.3278   ZZ=            -55.3634
   XY=             -0.2240   XZ=             -0.8024   YZ=              2.4525

  Exact polarizability:  94.783   1.104  74.519   4.816  -0.745  59.574
 Approx polarizability: 133.495   1.561 107.243   7.106  -4.315  96.714

                      1                      2                      3
                      A                      A                      A
 Frequencies --     88.6456               132.6397               177.9145
 Red. masses --      4.1692                 2.8105                 2.0580
 Frc consts  --      0.0193                 0.0291                 0.0384
 IR Inten    --      0.7656                 4.7890                 3.2254

                      4                      5                      6
                      A                      A                      A
 Frequencies --    191.9370               259.0869               287.3680
 Red. masses --      1.2772                 1.1876                 2.5677
 Frc consts  --      0.0277                 0.0470                 0.1249
 IR Inten    --      0.1892                81.4452                11.2019

                      7                      8                      9
                      A                      A                      A
 Frequencies --    301.6594               401.2123               417.5804
 Red. masses --      2.6750                 3.0895                 4.1722
 Frc consts  --      0.1434                 0.2930                 0.4286
 IR Inten    --      4.6225                 4.5052                10.5313

                     10                     11                     12
                      A                      A                      A
 Frequencies --    488.0204               577.4208               604.6673
 Red. masses --      4.1163                 3.2683                 3.8303
 Frc consts  --      0.5776                 0.6420                 0.8251
 IR Inten    --     14.3526                11.2335                 3.7331

                     13                     14                     15
                      A                      A                      A
 Frequencies --    715.5317               773.7968               797.3162
 Red. masses --      3.5221                 1.7830                 4.0748
 Frc consts  --      1.0625                 0.6290                 1.5262
 IR Inten    --      5.9891                14.6825                 4.9842

                     16                     17                     18
                      A                      A                      A
 Frequencies --    837.5181               883.3526               921.8552
 Red. masses --      2.8457                 2.5955                 2.1646
 Frc consts  --      1.1761                 1.1933                 1.0838
 IR Inten    --     28.5964                 2.1239                10.4335

                     19                     20                     21
                      A                      A                      A
 Frequencies --    961.0026               975.9831              1026.1812
 Red. masses --      1.3392                 1.7330                 1.4704
 Frc consts  --      0.7287                 0.9726                 0.9123
 IR Inten    --      1.4562                 3.7120                17.8704

                     22                     23                     24
                      A                      A                      A
 Frequencies --   1032.8258              1062.9682              1076.5940
 Red. masses --      2.3266                 3.6427                 2.0671
 Frc consts  --      1.4622                 2.4250                 1.4116
 IR Inten    --      7.7318                14.0391                57.2052

                     25                     26                     27
                      A                      A                      A
 Frequencies --   1098.6666              1112.7066              1150.7722
 Red. masses --      1.5902                 2.0112                 1.3795
 Frc consts  --      1.1309                 1.4671                 1.0763
 IR Inten    --     17.2324                17.3887                 4.6349

                     28                     29                     30
                      A                      A                      A
 Frequencies --   1217.9459              1233.9285              1244.5653
 Red. masses --      1.2666                 1.3026                 1.7340
 Frc consts  --      1.1070                 1.1686                 1.5825
 IR Inten    --     11.5036                 4.9645                16.1492

                     31                     32                     33
                      A                      A                      A
 Frequencies --   1278.4226              1297.6753              1338.8172
 Red. masses --      1.2597                 1.6356                 1.5162
 Frc consts  --      1.2130                 1.6227                 1.6012
 IR Inten    --     17.0651                27.5021                 3.4003

                     34                     35                     36
                      A                      A                      A
 Frequencies --   1361.7528              1408.5614              1442.1905
 Red. masses --      2.2127                 1.2961                 3.0587
 Frc consts  --      2.4175                 1.5151                 3.7483
 IR Inten    --      7.2588                 1.1539                14.4651

                     37                     38                     39
                      A                      A                      A
 Frequencies --   1451.1738              1483.8608              1494.5620
 Red. masses --      1.4827                 1.0817                 1.0759
 Frc consts  --      1.8397                 1.4032                 1.4159
 IR Inten    --      8.6974                 5.5325                 2.6610

                     40                     41                     42
                      A                      A                      A
 Frequencies --   1520.8058              1663.8414              2969.0561
 Red. masses --      1.0833                 6.6953                 1.0545
 Frc consts  --      1.4762                10.9205                 5.4771
 IR Inten    --      3.8734                 4.8933                51.1363

                     43                     44                     45
                      A                      A                      A
 Frequencies --   2998.3129              3034.2103              3037.2693
 Red. masses --      1.1052                 1.0367                 1.0842
 Frc consts  --      5.8538                 5.6235                 5.8930
 IR Inten    --     43.8896                21.9882                26.3005

                     46                     47                     48
                      A                      A                      A
 Frequencies --   3094.6204              3125.3832              3158.2636
 Red. masses --      1.1003                 1.1005                 1.0907
 Frc consts  --      6.2085                 6.3335                 6.4099
 IR Inten    --     18.6001                12.3308                13.6006

                     49                     50                     51
                      A                      A                      A
 Frequencies --   3181.5821              3208.8782              3832.9373
 Red. masses --      1.0854                 1.1033                 1.0664
 Frc consts  --      6.4734                 6.6937                 9.2308
 IR Inten    --      7.0204                17.6380                25.9196

 - Thermochemistry -
 -------------------
 Temperature   298.150 Kelvin.  Pressure   1.00000 Atm.
 Atom     1 has atomic number  6 and mass  12.00000

 Molecular mass:   126.06808 amu.
 Principal axes and moments of inertia in atomic units:
                           1         2         3
     Eigenvalues --   593.320961531.089961743.55163
           X            0.99975   0.01752   0.01407
           Y           -0.01816   0.99874   0.04688
           Z           -0.01323  -0.04712   0.99880
 This molecule is an asymmetric top.
 Rotational symmetry number  1.
 Warning -- assumption of classical behavior for rotation
           may cause significant error
 Rotational temperatures (Kelvin)      0.14598     0.05657     0.04968
 Rotational constants (GHZ):           3.04176     1.17873     1.03509
 Zero-point vibrational energy     415306.6 (Joules/Mol)
                                   99.26066 (Kcal/Mol)
 Warning -- explicit consideration of  12 degrees of freedom as
           vibrations may cause significant error
 Vibrational temperatures:    127.54   190.84   255.98   276.15   372.77
          (Kelvin)            413.46   434.02   577.25   600.80   702.15
                              830.78   869.98  1029.49  1113.32  1147.16
                             1205.00  1270.95  1326.34  1382.67  1404.22
                             1476.44  1486.00  1529.37  1548.98  1580.73
                             1600.93  1655.70  1752.35  1775.35  1790.65
                             1839.36  1867.06  1926.26  1959.26  2026.60
                             2074.99  2087.91  2134.94  2150.34  2188.10
                             2393.89  4271.80  4313.90  4365.55  4369.95
                             4452.46  4496.72  4544.03  4577.58  4616.85
                             5514.73

 Zero-point correction=                           0.158182 (Hartree/Particle)
 Thermal correction to Energy=                    0.166952
 Thermal correction to Enthalpy=                  0.167896
 Thermal correction to Gibbs Free Energy=         0.124833
 Sum of electronic and zero-point Energies=           -423.012920
 Sum of electronic and thermal Energies=              -423.004150
 Sum of electronic and thermal Enthalpies=            -423.003206
 Sum of electronic and thermal Free Energies=         -423.046269

                     E (Thermal)             CV                S
                      KCal/Mol        Cal/Mol-Kelvin    Cal/Mol-Kelvin
 Total                  104.764             33.275             90.634
 Electronic               0.000              0.000              0.000
 Translational            0.889              2.981             40.409
 Rotational               0.889              2.981             28.851
 Vibrational            102.986             27.313             21.375
 Vibration     1          0.601              1.957              3.690
 Vibration     2          0.613              1.921              2.907
 Vibration     3          0.628              1.870              2.350
 Vibration     4          0.634              1.851              2.209
 Vibration     5          0.668              1.747              1.668
 Vibration     6          0.685              1.697              1.489
 Vibration     7          0.694              1.671              1.408
 Vibration     8          0.767              1.468              0.958
 Vibration     9          0.781              1.432              0.900
 Vibration    10          0.844              1.277              0.689
 Vibration    11          0.934              1.080              0.490
 Vibration    12          0.963              1.022              0.442

 Optimization completed.
    -- Stationary point found.
 Normal termination of Gaussian 09 at Tue Jan 28 14:47:55 2020.
