 Gaussian 09, Revision D.01,
 Gaussian 09:  ES64L-G09RevD.01 24-Apr-2013

 -----------------------------
 # b3lyp 6-31G(2df,p) opt Freq
 -----------------------------

 -----
 titel
 -----
 Symbolic Z-matrix:
 Charge =  0 Multiplicity = 1

 SCF Done:  E(RB3LYP) =  -423.152335081     A.U. after   14 cycles
 Optimization completed.
    -- Stationary point found.
 Normal termination of Gaussian 09 at Tue Jan 28 12:05:30 2020.

 ----------------------------------------------------------------------
 #N Geom=AllCheck Guess=TCheck SCRF=Check GenChk RB3LYP/6-31G(2df,p) Fr
 eq
 ----------------------------------------------------------------------

 Structure from the checkpoint file:  "/scratch/puck/g09_825cd547-1b52-41a9-ba10-2b855de28640/Gau-103637.chk"
 -----
 titel
 -----
 Charge =  0 Multiplicity = 1

                         Standard orientation:
 ---------------------------------------------------------------------
 Center     Atomic      Atomic             Coordinates (Angstroms)
 Number     Number       Type             X           Y           Z
 ---------------------------------------------------------------------
      1          8           0        2.569440   -1.376319   -0.197351
      2          6           0        1.312880   -1.242040    0.432804
      3          6           0        0.447417   -0.207595   -0.273877
      4          8           0        1.169218    1.029266   -0.288939
      5          6           0        0.312516    2.124539    0.041060
      6          6           0       -1.116667    1.577693    0.005238
      7          6           0       -0.900309    0.103305    0.417519
      8          6           0       -1.976737   -0.803779    0.058061
      9          6           0       -2.859666   -1.558296   -0.251839
     10          1           0        2.922406   -0.481843   -0.274762
     11          1           0        0.825948   -2.222251    0.397687
     12          1           0        1.420187   -0.951124    1.491679
     13          1           0        0.269968   -0.531893   -1.309221
     14          1           0        0.570730    2.502216    1.040753
     15          1           0        0.476056    2.933548   -0.678786
     16          1           0       -1.798146    2.109362    0.672472
     17          1           0       -1.527618    1.616461   -1.007643
     18          1           0       -0.744423    0.064397    1.504837
     19          1           0       -3.640980   -2.225411   -0.520483
 ---------------------------------------------------------------------

 SCF Done:  E(RB3LYP) =  -423.152335081     A.U. after    1 cycles

 The electronic state is 1-A.
 Alpha  occ. eigenvalues --  -19.14556 -19.12783 -10.23772 -10.23684 -10.22433
 Alpha  occ. eigenvalues --  -10.22234 -10.20042 -10.18759 -10.17833  -1.04463
 Alpha  occ. eigenvalues --   -1.00805  -0.82225  -0.76703  -0.73612  -0.67267
 Alpha  occ. eigenvalues --   -0.62310  -0.58444  -0.54459  -0.52278  -0.50173
 Alpha  occ. eigenvalues --   -0.48423  -0.45299  -0.44090  -0.41500  -0.40478
 Alpha  occ. eigenvalues --   -0.39525  -0.38679  -0.35524  -0.33998  -0.32159
 Alpha  occ. eigenvalues --   -0.27662  -0.27079  -0.26438  -0.25110
 Alpha virt. eigenvalues --    0.04488   0.04693   0.08622   0.09664   0.10601
 Alpha virt. eigenvalues --    0.12371   0.12983   0.13422   0.14817   0.14992
 Alpha virt. eigenvalues --    0.16224   0.17868   0.18996   0.19934   0.23421

 Mulliken charges:
               1
     1  O   -0.423155
     2  C   -0.068955
     3  C    0.122637
     4  O   -0.296755
     5  C   -0.079150
     6  C   -0.242508
     7  C   -0.213825
     8  C    0.311324
     9  C   -0.441388
    10  H    0.291798
    11  H    0.117142
    12  H    0.080198
    13  H    0.086984
    14  H    0.099812
    15  H    0.110824
    16  H    0.116706
    17  H    0.123237
    18  H    0.106717
    19  H    0.198358
 Sum of Mulliken charges =   0.00000

 Dipole moment (field-independent basis, Debye):
    X=             -1.7847    Y=              1.7823    Z=              0.6958  Tot=              2.6164
 Quadrupole moment (field-independent basis, Debye-Ang):
   XX=            -55.7011   YY=            -51.6480   ZZ=            -52.7367
   XY=              4.9238   XZ=              1.9256   YZ=              0.4345

  Exact polarizability:  87.145  11.692  85.286   3.291   3.271  60.187
 Approx polarizability: 122.407  22.643 119.268   6.132   8.315  93.838

                      1                      2                      3
                      A                      A                      A
 Frequencies --     24.2600                97.3065               127.2787
 Red. masses --      3.9606                 3.9628                 2.6438
 Frc consts  --      0.0014                 0.0221                 0.0252
 IR Inten    --      1.0571                 2.7337                 0.3017

                      4                      5                      6
                      A                      A                      A
 Frequencies --    151.7006               189.3193               263.8970
 Red. masses --      2.8207                 3.2972                 3.0044
 Frc consts  --      0.0382                 0.0696                 0.1233
 IR Inten    --      0.5555                 0.7832                 0.0275

                      7                      8                      9
                      A                      A                      A
 Frequencies --    378.0431               429.5027               456.0720
 Red. masses --      4.4808                 3.1441                 1.2396
 Frc consts  --      0.3773                 0.3417                 0.1519
 IR Inten    --      8.0895                21.6194                94.4085

                     10                     11                     12
                      A                      A                      A
 Frequencies --    505.3725               528.0850               565.7724
 Red. masses --      4.5929                 3.5740                 3.3818
 Frc consts  --      0.6911                 0.5872                 0.6378
 IR Inten    --      6.8781                 3.6509                 5.1855

                     13                     14                     15
                      A                      A                      A
 Frequencies --    634.0148               638.6198               666.8836
 Red. masses --      1.2128                 1.2411                 3.1035
 Frc consts  --      0.2872                 0.2982                 0.8132
 IR Inten    --     40.1410                37.4816                 7.3921

                     16                     17                     18
                      A                      A                      A
 Frequencies --    830.8294               866.1285               916.2015
 Red. masses --      2.5152                 1.6343                 2.1137
 Frc consts  --      1.0229                 0.7223                 1.0454
 IR Inten    --     18.4083                 3.7071                16.7971

                     19                     20                     21
                      A                      A                      A
 Frequencies --    955.6863              1020.2441              1039.5729
 Red. masses --      2.4007                 3.0805                 2.2730
 Frc consts  --      1.2919                 1.8892                 1.4473
 IR Inten    --     10.1946                 7.9724                10.8300

                     22                     23                     24
                      A                      A                      A
 Frequencies --   1061.0704              1078.1358              1096.5913
 Red. masses --      2.9113                 3.5292                 3.0684
 Frc consts  --      1.9312                 2.4170                 2.1740
 IR Inten    --     17.3607               157.6655                20.4481

                     25                     26                     27
                      A                      A                      A
 Frequencies --   1114.1669              1137.3657              1198.7985
 Red. masses --      3.4048                 2.8450                 1.3754
 Frc consts  --      2.4902                 2.1684                 1.1646
 IR Inten    --     40.0143                25.6435                 5.2370

                     28                     29                     30
                      A                      A                      A
 Frequencies --   1216.5953              1238.9064              1270.5416
 Red. masses --      1.1724                 1.2639                 1.3011
 Frc consts  --      1.0224                 1.1430                 1.2375
 IR Inten    --      8.7307                14.9379                 0.8945

                     31                     32                     33
                      A                      A                      A
 Frequencies --   1300.7063              1334.7422              1353.6054
 Red. masses --      1.2839                 1.2644                 1.2507
 Frc consts  --      1.2798                 1.3272                 1.3502
 IR Inten    --      2.2966                 7.6276                 1.9284

                     34                     35                     36
                      A                      A                      A
 Frequencies --   1375.1722              1393.1466              1401.7480
 Red. masses --      1.4183                 1.3607                 1.2281
 Frc consts  --      1.5802                 1.5560                 1.4218
 IR Inten    --      2.7138                25.8033                 6.9914

                     37                     38                     39
                      A                      A                      A
 Frequencies --   1439.4458              1493.3808              1496.3388
 Red. masses --      1.3497                 1.0966                 1.0913
 Frc consts  --      1.6478                 1.4409                 1.4397
 IR Inten    --     55.0743                 3.4749                 0.4783

                     40                     41                     42
                      A                      A                      A
 Frequencies --   1531.6253              2239.6575              2960.3921
 Red. masses --      1.0917                 5.9534                 1.0703
 Frc consts  --      1.5088                17.5945                 5.5267
 IR Inten    --      0.7478                 3.0977                41.1911

                     43                     44                     45
                      A                      A                      A
 Frequencies --   2998.9851              3002.6621              3015.2345
 Red. masses --      1.0733                 1.0763                 1.0835
 Frc consts  --      5.6874                 5.7172                 5.8040
 IR Inten    --     62.1777                15.9559                46.1960

                     46                     47                     48
                      A                      A                      A
 Frequencies --   3059.3931              3072.5598              3079.2359
 Red. masses --      1.0831                 1.0738                 1.0919
 Frc consts  --      5.9728                 5.9728                 6.1001
 IR Inten    --     16.2565                43.5401                24.5953

                     49                     50                     51
                      A                      A                      A
 Frequencies --   3122.5782              3504.1998              3793.1851
 Red. masses --      1.1055                 1.1620                 1.0654
 Frc consts  --      6.3512                 8.4072                 9.0318
 IR Inten    --     21.3531                73.7912                29.1065

 - Thermochemistry -
 -------------------
 Temperature   298.150 Kelvin.  Pressure   1.00000 Atm.
 Atom     1 has atomic number  8 and mass  15.99491

 Molecular mass:   126.06808 amu.
 Principal axes and moments of inertia in atomic units:
                           1         2         3
     Eigenvalues --   851.877431323.841642048.72010
           X            0.99997  -0.00122   0.00784
           Y            0.00121   1.00000   0.00103
           Z           -0.00784  -0.00103   0.99997
 This molecule is an asymmetric top.
 Rotational symmetry number  1.
 Warning -- assumption of classical behavior for rotation
           may cause significant error
 Rotational temperatures (Kelvin)      0.10167     0.06543     0.04228
 Rotational constants (GHZ):           2.11855     1.36326     0.88091
 Zero-point vibrational energy     416689.0 (Joules/Mol)
                                   99.59106 (Kcal/Mol)
 Warning -- explicit consideration of  12 degrees of freedom as
           vibrations may cause significant error
 Vibrational temperatures:     34.90   140.00   183.13   218.26   272.39
          (Kelvin)            379.69   543.92   617.96   656.19   727.12
                              759.80   814.02   912.20   918.83   959.50
                             1195.38  1246.16  1318.21  1375.02  1467.90
                             1495.71  1526.64  1551.19  1577.75  1603.04
                             1636.41  1724.80  1750.41  1782.51  1828.02
                             1871.42  1920.39  1947.53  1978.56  2004.42
                             2016.80  2071.04  2148.64  2152.90  2203.66
                             3222.36  4259.34  4314.87  4320.16  4338.24
                             4401.78  4420.72  4430.33  4492.69  5041.76
                             5457.54

 Zero-point correction=                           0.158708 (Hartree/Particle)
 Thermal correction to Energy=                    0.167976
 Thermal correction to Enthalpy=                  0.168920
 Thermal correction to Gibbs Free Energy=         0.123375
 Sum of electronic and zero-point Energies=           -422.993627
 Sum of electronic and thermal Energies=              -422.984359
 Sum of electronic and thermal Enthalpies=            -422.983415
 Sum of electronic and thermal Free Energies=         -423.028960

                     E (Thermal)             CV                S
                      KCal/Mol        Cal/Mol-Kelvin    Cal/Mol-Kelvin
 Total                  105.407             33.881             95.859
 Electronic               0.000              0.000              0.000
 Translational            0.889              2.981             40.409
 Rotational               0.889              2.981             29.226
 Vibrational            103.629             27.920             26.224
 Vibration     1          0.593              1.985              6.251
 Vibration     2          0.603              1.951              3.508
 Vibration     3          0.611              1.926              2.987
 Vibration     4          0.619              1.901              2.651
 Vibration     5          0.633              1.855              2.234
 Vibration     6          0.670              1.739              1.636
 Vibration     7          0.748              1.517              1.047
 Vibration     8          0.791              1.406              0.860
 Vibration     9          0.814              1.347              0.778
 Vibration    10          0.861              1.238              0.645
 Vibration    11          0.883              1.188              0.591
 Vibration    12          0.922              1.105              0.512

 Optimization completed.
    -- Stationary point found.
 Normal termination of Gaussian 09 at Tue Jan 28 12:45:27 2020.
