 Gaussian 09, Revision D.01,
 Gaussian 09:  ES64L-G09RevD.01 24-Apr-2013

 -----------------------------
 # b3lyp 6-31G(2df,p) opt Freq
 -----------------------------

 -----
 titel
 -----
 Symbolic Z-matrix:
 Charge =  0 Multiplicity = 1

 SCF Done:  E(RB3LYP) =  -423.210494205     A.U. after   14 cycles
 Optimization completed.
    -- Stationary point found.
 Normal termination of Gaussian 09 at Mon Jan 27 17:12:32 2020.

 ----------------------------------------------------------------------
 #N Geom=AllCheck Guess=TCheck SCRF=Check GenChk RB3LYP/6-31G(2df,p) Fr
 eq
 ----------------------------------------------------------------------

 Structure from the checkpoint file:  "/scratch/puck/g09_ff1a676c-0b5b-4430-b556-2d4d1f2d49bb/Gau-168134.chk"
 -----
 titel
 -----
 Charge =  0 Multiplicity = 1

                         Standard orientation:
 ---------------------------------------------------------------------
 Center     Atomic      Atomic             Coordinates (Angstroms)
 Number     Number       Type             X           Y           Z
 ---------------------------------------------------------------------
      1          6           0        2.381018   -0.975348   -0.045221
      2          6           0        1.035694   -0.293237    0.034774
      3          6           0        0.768988    0.768419    1.130529
      4          6           0        0.071921    1.499983   -0.032318
      5          6           0       -1.382193    1.060807   -0.189630
      6          6           0       -1.491073   -0.461137   -0.028259
      7          8           0       -2.547176   -1.015370    0.153423
      8          6           0       -0.167623   -1.235984   -0.099644
      9          8           0        0.867218    0.744490   -0.986372
     10          1           0        2.476491   -1.529736   -0.984782
     11          1           0        3.186310   -0.237426    0.002179
     12          1           0        2.503467   -1.682689    0.781722
     13          1           0        0.174251    0.483175    2.002227
     14          1           0        1.686586    1.268199    1.445152
     15          1           0        0.212382    2.578248   -0.139327
     16          1           0       -2.055005    1.537370    0.531177
     17          1           0       -1.738226    1.324536   -1.192775
     18          1           0       -0.184415   -2.015421    0.669595
     19          1           0       -0.122576   -1.740231   -1.072962
 ---------------------------------------------------------------------

 SCF Done:  E(RB3LYP) =  -423.210494205     A.U. after    1 cycles

 The electronic state is 1-A.
 Alpha  occ. eigenvalues --  -19.13669 -19.12806 -10.27156 -10.25068 -10.24463
 Alpha  occ. eigenvalues --  -10.19419 -10.19249 -10.19196 -10.18487  -1.04985
 Alpha  occ. eigenvalues --   -1.03791  -0.79835  -0.77982  -0.73027  -0.70411
 Alpha  occ. eigenvalues --   -0.61607  -0.55926  -0.52859  -0.48893  -0.47474
 Alpha  occ. eigenvalues --   -0.46507  -0.46009  -0.44668  -0.41900  -0.40283
 Alpha  occ. eigenvalues --   -0.39831  -0.38797  -0.37614  -0.37124  -0.34296
 Alpha  occ. eigenvalues --   -0.31654  -0.31439  -0.25508  -0.24063
 Alpha virt. eigenvalues --   -0.01747   0.08314   0.09110   0.10533   0.12016
 Alpha virt. eigenvalues --    0.14171   0.14431   0.14777   0.15354   0.16221
 Alpha virt. eigenvalues --    0.16577   0.18005   0.19241   0.19901   0.22217

 Mulliken charges:
               1
     1  C   -0.466817
     2  C    0.392225
     3  C   -0.301275
     4  C    0.085952
     5  C   -0.311678
     6  C    0.380436
     7  O   -0.309329
     8  C   -0.337742
     9  O   -0.328422
    10  H    0.128348
    11  H    0.124871
    12  H    0.122183
    13  H    0.106016
    14  H    0.111089
    15  H    0.082739
    16  H    0.124686
    17  H    0.138390
    18  H    0.123328
    19  H    0.135000
 Sum of Mulliken charges =   0.00000

 Dipole moment (field-independent basis, Debye):
    X=              2.1018    Y=              0.8961    Z=              1.0507  Tot=              2.5148
 Quadrupole moment (field-independent basis, Debye-Ang):
   XX=            -60.4617   YY=            -51.2809   ZZ=            -53.2682
   XY=             -5.9480   XZ=              2.7483   YZ=              1.6771

  Exact polarizability:  84.098  -2.210  77.598   0.170   0.345  62.407
 Approx polarizability: 116.067   2.785 111.315  -4.006  -2.204 100.377

                      1                      2                      3
                      A                      A                      A
 Frequencies --     69.7827               197.5876               231.1048
 Red. masses --      3.7525                 1.1983                 1.6968
 Frc consts  --      0.0108                 0.0276                 0.0534
 IR Inten    --      6.6903                 0.2327                 0.3777

                      4                      5                      6
                      A                      A                      A
 Frequencies --    263.2629               372.9546               377.9496
 Red. masses --      2.7722                 1.9205                 2.1359
 Frc consts  --      0.1132                 0.1574                 0.1798
 IR Inten    --      0.3062                 2.8640                 2.1307

                      7                      8                      9
                      A                      A                      A
 Frequencies --    400.5573               467.7460               484.1935
 Red. masses --      6.5555                 4.7228                 3.6628
 Frc consts  --      0.6197                 0.6088                 0.5059
 IR Inten    --      3.2888                 9.6828                 2.1167

                     10                     11                     12
                      A                      A                      A
 Frequencies --    497.3740               636.2556               668.1806
 Red. masses --      2.2630                 3.3758                 3.8509
 Frc consts  --      0.3298                 0.8052                 1.0130
 IR Inten    --      4.0091                 6.9213                 1.7733

                     13                     14                     15
                      A                      A                      A
 Frequencies --    765.7134               799.7232               850.7631
 Red. masses --      2.7476                 2.1613                 2.3317
 Frc consts  --      0.9491                 0.8144                 0.9943
 IR Inten    --      2.0969                10.0147                12.2704

                     16                     17                     18
                      A                      A                      A
 Frequencies --    864.1989               908.4767               920.7125
 Red. masses --      1.9809                 2.8694                 3.6940
 Frc consts  --      0.8716                 1.3953                 1.8450
 IR Inten    --      0.8484                16.1282                16.5667

                     19                     20                     21
                      A                      A                      A
 Frequencies --    940.1333               971.7965              1020.0978
 Red. masses --      2.2930                 1.9821                 1.6267
 Frc consts  --      1.1941                 1.1029                 0.9973
 IR Inten    --      9.6989                 9.7795                 7.7585

                     22                     23                     24
                      A                      A                      A
 Frequencies --   1040.1978              1062.0471              1103.4675
 Red. masses --      2.1547                 1.1895                 1.6636
 Frc consts  --      1.3736                 0.7905                 1.1935
 IR Inten    --      4.2672                11.6012                24.6526

                     25                     26                     27
                      A                      A                      A
 Frequencies --   1170.3496              1176.5680              1209.5549
 Red. masses --      2.5753                 1.7213                 1.8342
 Frc consts  --      2.0783                 1.4039                 1.5811
 IR Inten    --     24.9816                30.3261                 8.4144

                     28                     29                     30
                      A                      A                      A
 Frequencies --   1223.6667              1240.9737              1266.7488
 Red. masses --      1.3959                 1.5136                 2.6076
 Frc consts  --      1.2315                 1.3734                 2.4653
 IR Inten    --      3.8715                 7.2190                34.2806

                     31                     32                     33
                      A                      A                      A
 Frequencies --   1305.7898              1319.9733              1342.7474
 Red. masses --      1.7760                 1.6898                 1.9897
 Frc consts  --      1.7841                 1.7346                 2.1136
 IR Inten    --      4.0927                 4.1844                45.3093

                     34                     35                     36
                      A                      A                      A
 Frequencies --   1369.3926              1410.3089              1436.2959
 Red. masses --      1.5359                 1.3689                 1.0918
 Frc consts  --      1.6969                 1.6041                 1.3270
 IR Inten    --      4.6444                13.6617                 6.5731

                     37                     38                     39
                      A                      A                      A
 Frequencies --   1439.2742              1480.6157              1490.6769
 Red. masses --      1.0921                 1.0574                 1.0958
 Frc consts  --      1.3330                 1.3657                 1.4347
 IR Inten    --      2.8329                 2.8543                 6.2182

                     40                     41                     42
                      A                      A                      A
 Frequencies --   1496.1314              1823.2326              3034.8148
 Red. masses --      1.0922                12.4855                 1.0436
 Frc consts  --      1.4404                24.4535                 5.6628
 IR Inten    --      1.0441               193.0776                 7.7987

                     43                     44                     45
                      A                      A                      A
 Frequencies --   3038.7423              3042.5170              3064.4297
 Red. masses --      1.0522                 1.0608                 1.0601
 Frc consts  --      5.7244                 5.7858                 5.8653
 IR Inten    --     16.7911                 8.2185                20.6096

                     46                     47                     48
                      A                      A                      A
 Frequencies --   3081.7649              3087.0695              3090.7071
 Red. masses --      1.0897                 1.1002                 1.1006
 Frc consts  --      6.0977                 6.1773                 6.1941
 IR Inten    --     45.9686                 4.2028                13.0274

                     49                     50                     51
                      A                      A                      A
 Frequencies --   3106.4559              3118.9123              3130.5146
 Red. masses --      1.1008                 1.1021                 1.1074
 Frc consts  --      6.2587                 6.3166                 6.3942
 IR Inten    --     17.6805                11.7774                26.9941

 - Thermochemistry -
 -------------------
 Temperature   298.150 Kelvin.  Pressure   1.00000 Atm.
 Atom     1 has atomic number  6 and mass  12.00000

 Molecular mass:   126.06808 amu.
 Principal axes and moments of inertia in atomic units:
                           1         2         3
     Eigenvalues --   619.744871179.070761492.83387
           X            0.99751  -0.06940   0.01258
           Y            0.06906   0.99730   0.02514
           Z           -0.01429  -0.02421   0.99960
 This molecule is an asymmetric top.
 Rotational symmetry number  1.
 Warning -- assumption of classical behavior for rotation
           may cause significant error
 Rotational temperatures (Kelvin)      0.13976     0.07346     0.05802
 Rotational constants (GHZ):           2.91207     1.53065     1.20894
 Zero-point vibrational energy     418169.6 (Joules/Mol)
                                   99.94494 (Kcal/Mol)
 Warning -- explicit consideration of  10 degrees of freedom as
           vibrations may cause significant error
 Vibrational temperatures:    100.40   284.28   332.51   378.78   536.60
          (Kelvin)            543.78   576.31   672.98   696.65   715.61
                              915.43   961.36  1101.69  1150.62  1224.06
                             1243.39  1307.09  1324.70  1352.64  1398.20
                             1467.69  1496.61  1528.05  1587.64  1683.87
                             1692.82  1740.28  1760.58  1785.48  1822.57
                             1878.74  1899.14  1931.91  1970.25  2029.12
                             2066.51  2070.79  2130.27  2144.75  2152.60
                             2623.22  4366.42  4372.07  4377.50  4409.03
                             4433.97  4441.60  4446.83  4469.49  4487.41
                             4504.11

 Zero-point correction=                           0.159272 (Hartree/Particle)
 Thermal correction to Energy=                    0.167175
 Thermal correction to Enthalpy=                  0.168119
 Thermal correction to Gibbs Free Energy=         0.126965
 Sum of electronic and zero-point Energies=           -423.051222
 Sum of electronic and thermal Energies=              -423.043319
 Sum of electronic and thermal Enthalpies=            -423.042375
 Sum of electronic and thermal Free Energies=         -423.083529

                     E (Thermal)             CV                S
                      KCal/Mol        Cal/Mol-Kelvin    Cal/Mol-Kelvin
 Total                  104.904             31.367             86.616
 Electronic               0.000              0.000              0.000
 Translational            0.889              2.981             40.409
 Rotational               0.889              2.981             28.480
 Vibrational            103.126             25.405             17.727
 Vibration     1          0.598              1.969              4.159
 Vibration     2          0.637              1.843              2.155
 Vibration     3          0.653              1.793              1.870
 Vibration     4          0.670              1.740              1.640
 Vibration     5          0.744              1.528              1.068
 Vibration     6          0.748              1.517              1.047
 Vibration     7          0.766              1.469              0.961
 Vibration     8          0.825              1.322              0.744
 Vibration     9          0.840              1.285              0.699
 Vibration    10          0.853              1.256              0.665

 Optimization completed.
    -- Stationary point found.
 Normal termination of Gaussian 09 at Mon Jan 27 17:57:00 2020.
