 Gaussian 09, Revision D.01,
 Gaussian 09:  ES64L-G09RevD.01 24-Apr-2013

 -----------------------------
 # b3lyp 6-31G(2df,p) opt Freq
 -----------------------------

 -----
 titel
 -----
 Symbolic Z-matrix:
 Charge =  0 Multiplicity = 1

 SCF Done:  E(RB3LYP) =  -423.155203506     A.U. after   12 cycles
 SCF Done:  E(RB3LYP) =  -423.155203370     A.U. after    6 cycles
 SCF Done:  E(RB3LYP) =  -423.155203447     A.U. after    6 cycles
 Optimization completed.
    -- Stationary point found.
 Normal termination of Gaussian 09 at Mon Jan 27 19:07:18 2020.

 ----------------------------------------------------------------------
 #N Geom=AllCheck Guess=TCheck SCRF=Check GenChk RB3LYP/6-31G(2df,p) Fr
 eq
 ----------------------------------------------------------------------

 Structure from the checkpoint file:  "/scratch/puck/g09_2a85ed92-6408-45e9-9b92-9f5cc93c349e/Gau-64610.chk"
 -----
 titel
 -----
 Charge =  0 Multiplicity = 1

                         Standard orientation:
 ---------------------------------------------------------------------
 Center     Atomic      Atomic             Coordinates (Angstroms)
 Number     Number       Type             X           Y           Z
 ---------------------------------------------------------------------
      1          6           0        1.460085   -1.587025   -0.779350
      2          6           0        0.392056   -0.743014   -0.158266
      3          6           0        0.126685   -0.293479    1.285452
      4          6           0       -1.352753   -0.655025    1.167227
      5          6           0       -1.143238   -0.742445   -0.380887
      6          8           0       -1.478909    0.478277   -1.032644
      7          6           0       -0.603629    1.480835   -0.508433
      8          6           0        0.509075    0.707320    0.199652
      9          8           0        1.786041    1.259754    0.244054
     10          1           0        1.355601   -2.644026   -0.511337
     11          1           0        1.430414   -1.514014   -1.872755
     12          1           0        2.446194   -1.246055   -0.450039
     13          1           0        0.768262   -0.422158    2.151044
     14          1           0       -1.560222   -1.637355    1.601517
     15          1           0       -2.107837    0.059989    1.510807
     16          1           0       -1.620097   -1.561257   -0.918322
     17          1           0       -0.187764    2.071202   -1.332944
     18          1           0       -1.155749    2.157433    0.159980
     19          1           0        1.844455    1.828996    1.018402
 ---------------------------------------------------------------------

 SCF Done:  E(RB3LYP) =  -423.155203447     A.U. after    1 cycles

 The electronic state is 1-A.
 Alpha  occ. eigenvalues --  -19.15343 -19.13223 -10.23846 -10.23093 -10.22137
 Alpha  occ. eigenvalues --  -10.19163 -10.18989 -10.18234 -10.17786  -1.04637
 Alpha  occ. eigenvalues --   -1.02641  -0.88180  -0.74248  -0.72570  -0.66258
 Alpha  occ. eigenvalues --   -0.62919  -0.57464  -0.53255  -0.52128  -0.46960
 Alpha  occ. eigenvalues --   -0.46132  -0.43447  -0.42714  -0.41309  -0.40501
 Alpha  occ. eigenvalues --   -0.39415  -0.38293  -0.36998  -0.35455  -0.31775
 Alpha  occ. eigenvalues --   -0.28994  -0.26685  -0.25081  -0.23356
 Alpha virt. eigenvalues --    0.06351   0.10100   0.10784   0.11803   0.13092
 Alpha virt. eigenvalues --    0.13793   0.14906   0.15742   0.16564   0.17469
 Alpha virt. eigenvalues --    0.17836   0.18838   0.19516   0.20986   0.23025

 Mulliken charges:
               1
     1  C   -0.525968
     2  C    0.295806
     3  C   -0.197635
     4  C   -0.257130
     5  C    0.024183
     6  O   -0.263577
     7  C   -0.151149
     8  C    0.321108
     9  O   -0.475717
    10  H    0.115779
    11  H    0.126268
    12  H    0.135683
    13  H    0.081468
    14  H    0.103089
    15  H    0.095264
    16  H    0.084579
    17  H    0.110417
    18  H    0.088911
    19  H    0.288622
 Sum of Mulliken charges =   0.00000

 Dipole moment (field-independent basis, Debye):
    X=              0.6153    Y=             -0.0480    Z=              1.8472  Tot=              1.9476
 Quadrupole moment (field-independent basis, Debye-Ang):
   XX=            -56.6970   YY=            -48.6338   ZZ=            -52.4761
   XY=              1.7857   XZ=              0.1574   YZ=              3.0355

  Exact polarizability:  74.536   0.704  78.259  -2.462   0.744  70.546
 Approx polarizability: 105.334   3.153 112.100  -0.665   1.852 107.962

                      1                      2                      3
                      A                      A                      A
 Frequencies --    186.1774               192.6963               212.1579
 Red. masses --      1.6915                 1.3452                 3.2728
 Frc consts  --      0.0345                 0.0294                 0.0868
 IR Inten    --      0.8262                 1.3618                 3.0461

                      4                      5                      6
                      A                      A                      A
 Frequencies --    222.5289               272.3456               337.2199
 Red. masses --      2.5963                 1.1777                 2.0989
 Frc consts  --      0.0757                 0.0515                 0.1406
 IR Inten    --      4.7909                70.1524                12.5902

                      7                      8                      9
                      A                      A                      A
 Frequencies --    373.4014               420.9553               502.8462
 Red. masses --      4.8367                 2.9853                 2.4845
 Frc consts  --      0.3973                 0.3117                 0.3701
 IR Inten    --     10.0018                 1.9590                 3.6882

                     10                     11                     12
                      A                      A                      A
 Frequencies --    571.4625               646.7451               673.0203
 Red. masses --      5.3743                 4.4223                 4.7548
 Frc consts  --      1.0341                 1.0898                 1.2689
 IR Inten    --      5.7848                 0.6382                 4.8688

                     13                     14                     15
                      A                      A                      A
 Frequencies --    716.1027               780.2009               846.3917
 Red. masses --      3.2050                 3.6254                 2.5107
 Frc consts  --      0.9683                 1.3002                 1.0597
 IR Inten    --      3.8374                 4.0375                10.4634

                     16                     17                     18
                      A                      A                      A
 Frequencies --    900.2738               916.3343               944.6037
 Red. masses --      2.1717                 1.9699                 1.4986
 Frc consts  --      1.0370                 0.9745                 0.7878
 IR Inten    --      2.3119                 9.2108                 8.8901

                     19                     20                     21
                      A                      A                      A
 Frequencies --    973.3335               981.1076              1043.9887
 Red. masses --      1.7877                 2.4374                 2.0227
 Frc consts  --      0.9979                 1.3824                 1.2989
 IR Inten    --     10.2999                21.5904                17.8519

                     22                     23                     24
                      A                      A                      A
 Frequencies --   1059.6569              1073.2671              1124.5913
 Red. masses --      3.4290                 1.9494                 1.6917
 Frc consts  --      2.2686                 1.3230                 1.2606
 IR Inten    --     62.7225                10.0867                16.6530

                     25                     26                     27
                      A                      A                      A
 Frequencies --   1126.0407              1144.5415              1185.5314
 Red. masses --      2.0851                 2.3203                 1.5917
 Frc consts  --      1.5577                 1.7908                 1.3180
 IR Inten    --      8.2147                 7.3177                10.1908

                     28                     29                     30
                      A                      A                      A
 Frequencies --   1196.1343              1218.2805              1235.9010
 Red. masses --      1.4327                 1.8180                 1.8549
 Frc consts  --      1.2077                 1.5898                 1.6693
 IR Inten    --     10.6117                 5.9952                27.3144

                     31                     32                     33
                      A                      A                      A
 Frequencies --   1264.3091              1289.3634              1312.0823
 Red. masses --      1.7816                 1.7133                 1.4490
 Frc consts  --      1.6779                 1.6782                 1.4697
 IR Inten    --     33.7737                 6.8759                51.8387

                     34                     35                     36
                      A                      A                      A
 Frequencies --   1349.1959              1377.9952              1414.3710
 Red. masses --      1.6102                 1.7054                 1.3602
 Frc consts  --      1.7269                 1.9079                 1.6032
 IR Inten    --     13.4332                 2.0992                 0.0760

                     37                     38                     39
                      A                      A                      A
 Frequencies --   1470.7201              1490.7252              1491.4085
 Red. masses --      2.4397                 1.0878                 1.1205
 Frc consts  --      3.1092                 1.4242                 1.4685
 IR Inten    --      0.5630                 1.1808                 6.1358

                     40                     41                     42
                      A                      A                      A
 Frequencies --   1498.0395              1527.5621              2993.7651
 Red. masses --      1.1870                 1.0999                 1.0656
 Frc consts  --      1.5694                 1.5122                 5.6271
 IR Inten    --      5.5981                 1.6955                70.0686

                     43                     44                     45
                      A                      A                      A
 Frequencies --   3026.2907              3040.1458              3056.3434
 Red. masses --      1.0359                 1.0579                 1.0981
 Frc consts  --      5.5898                 5.7606                 6.0439
 IR Inten    --     41.0177                46.2120                39.2537

                     46                     47                     48
                      A                      A                      A
 Frequencies --   3084.3673              3094.3272              3107.9521
 Red. masses --      1.1010                 1.1071                 1.0995
 Frc consts  --      6.1713                 6.2454                 6.2573
 IR Inten    --     21.6301                22.8251                11.0118

                     49                     50                     51
                      A                      A                      A
 Frequencies --   3126.4557              3167.3491              3805.2582
 Red. masses --      1.0908                 1.0920                 1.0665
 Frc consts  --      6.2822                 6.4543                 9.0983
 IR Inten    --     35.8878                19.1025                26.0531

 - Thermochemistry -
 -------------------
 Temperature   298.150 Kelvin.  Pressure   1.00000 Atm.
 Atom     1 has atomic number  6 and mass  12.00000

 Molecular mass:   126.06808 amu.
 Principal axes and moments of inertia in atomic units:
                           1         2         3
     Eigenvalues --   797.77072 957.749881155.61041
           X            0.99567  -0.07728  -0.05169
           Y            0.07947   0.99596   0.04183
           Z            0.04825  -0.04575   0.99779
 This molecule is an asymmetric top.
 Rotational symmetry number  1.
 Warning -- assumption of classical behavior for rotation
           may cause significant error
 Rotational temperatures (Kelvin)      0.10857     0.09043     0.07495
 Rotational constants (GHZ):           2.26223     1.88436     1.56172
 Zero-point vibrational energy     419086.9 (Joules/Mol)
                                  100.16418 (Kcal/Mol)
 Warning -- explicit consideration of  10 degrees of freedom as
           vibrations may cause significant error
 Vibrational temperatures:    267.87   277.25   305.25   320.17   391.84
          (Kelvin)            485.18   537.24   605.66   723.48   822.21
                              930.52   968.32  1030.31  1122.53  1217.77
                             1295.29  1318.40  1359.07  1400.41  1411.59
                             1502.07  1524.61  1544.19  1618.03  1620.12
                             1646.74  1705.71  1720.97  1752.83  1778.18
                             1819.06  1855.10  1887.79  1941.19  1982.63
                             2034.96  2116.04  2144.82  2145.80  2155.34
                             2197.82  4307.35  4354.15  4374.09  4397.39
                             4437.71  4452.04  4471.64  4498.27  4557.10
                             5474.91

 Zero-point correction=                           0.159622 (Hartree/Particle)
 Thermal correction to Energy=                    0.167584
 Thermal correction to Enthalpy=                  0.168528
 Thermal correction to Gibbs Free Energy=         0.127778
 Sum of electronic and zero-point Energies=           -422.995582
 Sum of electronic and thermal Energies=              -422.987619
 Sum of electronic and thermal Enthalpies=            -422.986675
 Sum of electronic and thermal Free Energies=         -423.027425

                     E (Thermal)             CV                S
                      KCal/Mol        Cal/Mol-Kelvin    Cal/Mol-Kelvin
 Total                  105.161             31.711             85.766
 Electronic               0.000              0.000              0.000
 Translational            0.889              2.981             40.409
 Rotational               0.889              2.981             28.270
 Vibrational            103.383             25.749             17.087
 Vibration     1          0.632              1.859              2.266
 Vibration     2          0.635              1.850              2.202
 Vibration     3          0.643              1.822              2.025
 Vibration     4          0.648              1.807              1.938
 Vibration     5          0.675              1.724              1.581
 Vibration     6          0.718              1.601              1.225
 Vibration     7          0.745              1.527              1.066
 Vibration     8          0.783              1.425              0.889
 Vibration     9          0.858              1.244              0.651
 Vibration    10          0.928              1.093              0.501

 Normal termination of Gaussian 09 at Mon Jan 27 19:50:26 2020.
