 Gaussian 09, Revision D.01,
 Gaussian 09:  ES64L-G09RevD.01 24-Apr-2013

 -----------------------------
 # b3lyp 6-31G(2df,p) opt Freq
 -----------------------------

 -----
 titel
 -----
 Symbolic Z-matrix:
 Charge =  0 Multiplicity = 1

 SCF Done:  E(RB3LYP) =  -423.181969306     A.U. after   14 cycles
 Optimization completed.
    -- Stationary point found.
 Normal termination of Gaussian 09 at Mon Jan 27 23:04:40 2020.

 ----------------------------------------------------------------------
 #N Geom=AllCheck Guess=TCheck SCRF=Check GenChk RB3LYP/6-31G(2df,p) Fr
 eq
 ----------------------------------------------------------------------

 Structure from the checkpoint file:  "/scratch/puck/g09_c671c2f2-194e-440d-905f-470abcef07d6/Gau-182270.chk"
 -----
 titel
 -----
 Charge =  0 Multiplicity = 1

                         Standard orientation:
 ---------------------------------------------------------------------
 Center     Atomic      Atomic             Coordinates (Angstroms)
 Number     Number       Type             X           Y           Z
 ---------------------------------------------------------------------
      1          8           0       -1.863810   -1.188453   -0.585048
      2          6           0       -0.558805   -0.676640   -0.692606
      3          6           0        0.435250   -1.285752    0.348306
      4          6           0       -0.128744   -0.245034    1.368230
      5          6           0       -0.403126    0.642828    0.131621
      6          8           0       -1.554756    1.453325    0.226263
      7          6           0        0.862656    1.394164   -0.294992
      8          6           0        2.024136    0.425946   -0.368717
      9          6           0        1.826384   -0.856051   -0.055389
     10          1           0       -2.434062   -0.429975   -0.395313
     11          1           0       -0.219790   -0.673585   -1.737251
     12          1           0        0.334515   -2.345995    0.575725
     13          1           0       -1.066793   -0.584365    1.808311
     14          1           0        0.545354    0.137512    2.137229
     15          1           0       -1.549896    2.080149   -0.506821
     16          1           0        0.699458    1.869486   -1.275633
     17          1           0        1.069233    2.210157    0.411865
     18          1           0        2.995235    0.806528   -0.669689
     19          1           0        2.628766   -1.585646   -0.096864
 ---------------------------------------------------------------------

 SCF Done:  E(RB3LYP) =  -423.181969306     A.U. after    1 cycles

 The electronic state is 1-A.
 Alpha  occ. eigenvalues --  -19.15620 -19.12722 -10.24026 -10.22196 -10.19472
 Alpha  occ. eigenvalues --  -10.18699 -10.18441 -10.18263 -10.17814  -1.04304
 Alpha  occ. eigenvalues --   -1.00812  -0.86589  -0.76132  -0.72553  -0.65359
 Alpha  occ. eigenvalues --   -0.61225  -0.58000  -0.53421  -0.52319  -0.48158
 Alpha  occ. eigenvalues --   -0.47087  -0.44512  -0.43201  -0.41474  -0.39910
 Alpha  occ. eigenvalues --   -0.39028  -0.36451  -0.34989  -0.34009  -0.31431
 Alpha  occ. eigenvalues --   -0.31072  -0.27197  -0.25831  -0.23670
 Alpha virt. eigenvalues --    0.01457   0.06329   0.09640   0.12068   0.12827
 Alpha virt. eigenvalues --    0.14446   0.14779   0.15712   0.16124   0.17099
 Alpha virt. eigenvalues --    0.18762   0.19419   0.20633   0.22369   0.23630

 Mulliken charges:
               1
     1  O   -0.465501
     2  C    0.124612
     3  C   -0.100474
     4  C   -0.262565
     5  C    0.367145
     6  O   -0.497431
     7  C   -0.333687
     8  C   -0.066333
     9  C   -0.064961
    10  H    0.284126
    11  H    0.057199
    12  H    0.074515
    13  H    0.113948
    14  H    0.094871
    15  H    0.280388
    16  H    0.096235
    17  H    0.113959
    18  H    0.092255
    19  H    0.091700
 Sum of Mulliken charges =   0.00000

 Dipole moment (field-independent basis, Debye):
    X=              1.1578    Y=              1.8558    Z=             -0.6320  Tot=              2.2768
 Quadrupole moment (field-independent basis, Debye-Ang):
   XX=            -53.4837   YY=            -51.8019   ZZ=            -53.5966
   XY=             -3.3337   XZ=              0.6592   YZ=             -4.1753

  Exact polarizability:  80.961   0.073  81.353  -2.197  -4.720  63.199
 Approx polarizability: 113.272   1.515 129.355  -3.230  -8.200  97.332

                      1                      2                      3
                      A                      A                      A
 Frequencies --    211.2282               243.8973               256.9446
 Red. masses --      4.9154                 3.0919                 2.5664
 Frc consts  --      0.1292                 0.1084                 0.0998
 IR Inten    --      4.0444                 3.7276                 0.7183

                      4                      5                      6
                      A                      A                      A
 Frequencies --    312.6309               360.1990               382.0366
 Red. masses --      1.3459                 2.5284                 3.7160
 Frc consts  --      0.0775                 0.1933                 0.3195
 IR Inten    --     35.9429                 7.2493                10.7190

                      7                      8                      9
                      A                      A                      A
 Frequencies --    412.5149               470.4033               490.0071
 Red. masses --      2.3782                 1.8227                 1.9599
 Frc consts  --      0.2384                 0.2376                 0.2773
 IR Inten    --     13.3788                63.6836                 1.8246

                     10                     11                     12
                      A                      A                      A
 Frequencies --    501.7504               550.6086               647.1041
 Red. masses --      1.8735                 4.4780                 4.4015
 Frc consts  --      0.2779                 0.7999                 1.0859
 IR Inten    --     29.3172                 8.8860                 2.0180

                     13                     14                     15
                      A                      A                      A
 Frequencies --    721.1588               749.0610               855.3909
 Red. masses --      1.3814                 3.0881                 2.5679
 Frc consts  --      0.4233                 1.0209                 1.1070
 IR Inten    --     29.9214                 5.0740                 7.4407

                     16                     17                     18
                      A                      A                      A
 Frequencies --    878.7492               917.3009               940.0877
 Red. masses --      2.4053                 3.9020                 2.1515
 Frc consts  --      1.0943                 1.9345                 1.1203
 IR Inten    --     14.4602                 3.3574                16.1431

                     19                     20                     21
                      A                      A                      A
 Frequencies --    951.3388               970.7040               984.0834
 Red. masses --      2.1654                 1.9008                 1.3804
 Frc consts  --      1.1547                 1.0552                 0.7876
 IR Inten    --      3.9986                 3.1456                 1.4635

                     22                     23                     24
                      A                      A                      A
 Frequencies --   1008.0818              1053.8758              1072.6270
 Red. masses --      2.5172                 1.9032                 1.4114
 Frc consts  --      1.5072                 1.2454                 0.9568
 IR Inten    --     18.9386                 3.3961                 5.7799

                     25                     26                     27
                      A                      A                      A
 Frequencies --   1114.0375              1140.2794              1150.0180
 Red. masses --      2.9574                 1.6245                 1.3122
 Frc consts  --      2.1625                 1.2445                 1.0225
 IR Inten    --     66.1708                76.2002                27.2748

                     28                     29                     30
                      A                      A                      A
 Frequencies --   1171.7082              1207.2793              1223.6533
 Red. masses --      1.1408                 2.1737                 1.5234
 Frc consts  --      0.9228                 1.8666                 1.3440
 IR Inten    --      5.4003                17.5310                28.2393

                     31                     32                     33
                      A                      A                      A
 Frequencies --   1246.4491              1257.3374              1304.1076
 Red. masses --      1.5502                 1.6597                 1.4256
 Frc consts  --      1.4190                 1.5459                 1.4285
 IR Inten    --     27.3652                10.7722                 2.9745

                     34                     35                     36
                      A                      A                      A
 Frequencies --   1339.2424              1361.1954              1369.8509
 Red. masses --      1.7172                 1.5610                 1.4652
 Frc consts  --      1.8146                 1.7040                 1.6199
 IR Inten    --     49.6081                 0.6067                35.0844

                     37                     38                     39
                      A                      A                      A
 Frequencies --   1397.9188              1401.0156              1473.9071
 Red. masses --      1.4069                 1.6326                 1.1034
 Frc consts  --      1.6199                 1.8880                 1.4123
 IR Inten    --     41.7980                 7.7106                 2.1434

                     40                     41                     42
                      A                      A                      A
 Frequencies --   1490.6289              1695.5606              2979.9699
 Red. masses --      1.1366                 6.2710                 1.0656
 Frc consts  --      1.4879                10.6221                 5.5753
 IR Inten    --      2.9552                 2.0929                42.4207

                     43                     44                     45
                      A                      A                      A
 Frequencies --   3009.7234              3022.1588              3076.4579
 Red. masses --      1.0856                 1.0939                 1.0583
 Frc consts  --      5.7941                 5.8863                 5.9014
 IR Inten    --     63.7943                26.2827                26.8765

                     46                     47                     48
                      A                      A                      A
 Frequencies --   3122.9368              3145.0968              3166.7985
 Red. masses --      1.0891                 1.1078                 1.0845
 Frc consts  --      6.2582                 6.4562                 6.4081
 IR Inten    --     22.5722                16.6163                 6.7420

                     49                     50                     51
                      A                      A                      A
 Frequencies --   3189.9773              3731.2098              3788.7104
 Red. masses --      1.0999                 1.0654                 1.0657
 Frc consts  --      6.5946                 8.7392                 9.0133
 IR Inten    --     29.9414                49.6481                15.0866

 - Thermochemistry -
 -------------------
 Temperature   298.150 Kelvin.  Pressure   1.00000 Atm.
 Atom     1 has atomic number  8 and mass  15.99491

 Molecular mass:   126.06808 amu.
 Principal axes and moments of inertia in atomic units:
                           1         2         3
     Eigenvalues --   703.714291002.793771330.11111
           X            0.99998  -0.00247  -0.00643
           Y            0.00221   0.99920  -0.03986
           Z            0.00652   0.03984   0.99918
 This molecule is an asymmetric top.
 Rotational symmetry number  1.
 Warning -- assumption of classical behavior for rotation
           may cause significant error
 Rotational temperatures (Kelvin)      0.12308     0.08637     0.06512
 Rotational constants (GHZ):           2.56459     1.79971     1.35683
 Zero-point vibrational energy     421797.4 (Joules/Mol)
                                  100.81199 (Kcal/Mol)
 Warning -- explicit consideration of  11 degrees of freedom as
           vibrations may cause significant error
 Vibrational temperatures:    303.91   350.91   369.69   449.81   518.25
          (Kelvin)            549.66   593.52   676.80   705.01   721.91
                              792.20   931.04  1037.59  1077.73  1230.72
                             1264.32  1319.79  1352.57  1368.76  1396.62
                             1415.87  1450.40  1516.29  1543.27  1602.85
                             1640.61  1654.62  1685.82  1737.00  1760.56
                             1793.36  1809.03  1876.32  1926.87  1958.45
                             1970.91  2011.29  2015.75  2120.62  2144.68
                             2439.53  4287.51  4330.32  4348.21  4426.33
                             4493.20  4525.09  4556.31  4589.66  5368.37
                             5451.10

 Zero-point correction=                           0.160654 (Hartree/Particle)
 Thermal correction to Energy=                    0.168252
 Thermal correction to Enthalpy=                  0.169196
 Thermal correction to Gibbs Free Energy=         0.129377
 Sum of electronic and zero-point Energies=           -423.021315
 Sum of electronic and thermal Energies=              -423.013717
 Sum of electronic and thermal Enthalpies=            -423.012773
 Sum of electronic and thermal Free Energies=         -423.052593

                     E (Thermal)             CV                S
                      KCal/Mol        Cal/Mol-Kelvin    Cal/Mol-Kelvin
 Total                  105.580             31.790             83.808
 Electronic               0.000              0.000              0.000
 Translational            0.889              2.981             40.409
 Rotational               0.889              2.981             28.331
 Vibrational            103.802             25.828             15.069
 Vibration     1          0.643              1.824              2.033
 Vibration     2          0.659              1.773              1.774
 Vibration     3          0.667              1.751              1.682
 Vibration     4          0.701              1.650              1.348
 Vibration     5          0.735              1.554              1.121
 Vibration     6          0.752              1.508              1.031
 Vibration     7          0.776              1.443              0.918
 Vibration     8          0.827              1.316              0.736
 Vibration     9          0.846              1.272              0.684
 Vibration    10          0.857              1.246              0.654
 Vibration    11          0.906              1.138              0.543

 Optimization completed.
    -- Stationary point found.
 Normal termination of Gaussian 09 at Mon Jan 27 23:55:01 2020.
