 Gaussian 09, Revision D.01,
 Gaussian 09:  ES64L-G09RevD.01 24-Apr-2013

 -----------------------------
 # b3lyp 6-31G(2df,p) opt Freq
 -----------------------------

 -----
 titel
 -----
 Symbolic Z-matrix:
 Charge =  0 Multiplicity = 1

 SCF Done:  E(RB3LYP) =  -423.136525128     A.U. after   12 cycles
 Optimization completed.
    -- Stationary point found.
 Normal termination of Gaussian 09 at Mon Jan 27 22:55:38 2020.

 ----------------------------------------------------------------------
 #N Geom=AllCheck Guess=TCheck SCRF=Check GenChk RB3LYP/6-31G(2df,p) Fr
 eq
 ----------------------------------------------------------------------

 Structure from the checkpoint file:  "/scratch/puck/g09_811873f4-9ec3-4b10-9688-bb87e9900a15/Gau-101367.chk"
 -----
 titel
 -----
 Charge =  0 Multiplicity = 1

                         Standard orientation:
 ---------------------------------------------------------------------
 Center     Atomic      Atomic             Coordinates (Angstroms)
 Number     Number       Type             X           Y           Z
 ---------------------------------------------------------------------
      1          8           0        1.983867   -0.952683   -0.662302
      2          6           0        0.620982   -0.586467   -0.681682
      3          6           0       -0.194750   -1.259439    0.454599
      4          6           0        0.496416   -0.233346    1.416900
      5          6           0        0.325672    0.688647    0.143429
      6          8           0        1.146665    1.782025   -0.137032
      7          6           0       -1.209383    0.833934    0.102984
      8          6           0       -2.021469    0.095135   -0.934018
      9          6           0       -1.593836   -0.619272    0.327525
     10          1           0        2.485720   -0.148096   -0.840325
     11          1           0        0.238376   -0.644748   -1.703771
     12          1           0       -0.132090   -2.334137    0.615851
     13          1           0       -0.051637    0.051741    2.318897
     14          1           0        1.536009   -0.472794    1.633355
     15          1           0        1.040251    2.442849    0.554915
     16          1           0       -1.657900    1.650029    0.660916
     17          1           0       -3.072918    0.365547   -0.965171
     18          1           0       -1.622692   -0.154025   -1.909154
     19          1           0       -2.349159   -0.906249    1.050732
 ---------------------------------------------------------------------

 SCF Done:  E(RB3LYP) =  -423.136525128     A.U. after    1 cycles

 The electronic state is 1-A.
 Alpha  occ. eigenvalues --  -19.14986 -19.13083 -10.24110 -10.22416 -10.19217
 Alpha  occ. eigenvalues --  -10.19095 -10.18829 -10.18805 -10.17594  -1.03907
 Alpha  occ. eigenvalues --   -1.01167  -0.90178  -0.79458  -0.67051  -0.65746
 Alpha  occ. eigenvalues --   -0.61144  -0.56865  -0.53775  -0.52808  -0.50037
 Alpha  occ. eigenvalues --   -0.47792  -0.46208  -0.42100  -0.40064  -0.38785
 Alpha  occ. eigenvalues --   -0.38610  -0.34605  -0.34485  -0.33506  -0.31901
 Alpha  occ. eigenvalues --   -0.28332  -0.27570  -0.25839  -0.24641
 Alpha virt. eigenvalues --    0.06342   0.09531   0.11236   0.11446   0.11792
 Alpha virt. eigenvalues --    0.14364   0.14874   0.15459   0.16382   0.17982
 Alpha virt. eigenvalues --    0.19029   0.19882   0.20435   0.22738   0.23638

 Mulliken charges:
               1
     1  O   -0.468159
     2  C    0.126272
     3  C   -0.070768
     4  C   -0.291156
     5  C    0.362915
     6  O   -0.501606
     7  C   -0.109205
     8  C   -0.317076
     9  C   -0.031575
    10  H    0.290121
    11  H    0.061589
    12  H    0.073484
    13  H    0.080078
    14  H    0.111266
    15  H    0.283633
    16  H    0.079617
    17  H    0.108573
    18  H    0.121996
    19  H    0.090000
 Sum of Mulliken charges =   0.00000

 Dipole moment (field-independent basis, Debye):
    X=             -1.1605    Y=              1.5371    Z=              1.1251  Tot=              2.2306
 Quadrupole moment (field-independent basis, Debye-Ang):
   XX=            -52.7741   YY=            -52.5319   ZZ=            -52.0241
   XY=              2.6124   XZ=              0.3550   YZ=              2.2074

  Exact polarizability:  80.709   0.136  70.325   2.600   0.404  69.808
 Approx polarizability: 112.115   2.004 109.644   2.176   0.162 106.391

                      1                      2                      3
                      A                      A                      A
 Frequencies --    168.7300               215.8352               259.6716
 Red. masses --      1.4494                 2.1491                 3.3496
 Frc consts  --      0.0243                 0.0590                 0.1331
 IR Inten    --     52.5119                35.3375                28.9088

                      4                      5                      6
                      A                      A                      A
 Frequencies --    294.5927               342.6507               390.7728
 Red. masses --      3.3296                 1.3965                 2.6514
 Frc consts  --      0.1702                 0.0966                 0.2385
 IR Inten    --      0.1140                66.9256                 5.4799

                      7                      8                      9
                      A                      A                      A
 Frequencies --    406.0029               446.0513               539.2866
 Red. masses --      2.8834                 2.9208                 2.4211
 Frc consts  --      0.2800                 0.3424                 0.4149
 IR Inten    --     10.9275                 9.0685                 1.9049

                     10                     11                     12
                      A                      A                      A
 Frequencies --    568.9554               616.6492               650.4988
 Red. masses --      3.6106                 4.6785                 3.6309
 Frc consts  --      0.6886                 1.0482                 0.9052
 IR Inten    --      1.8252                 1.2957                11.7484

                     13                     14                     15
                      A                      A                      A
 Frequencies --    800.0656               814.2785               824.5811
 Red. masses --      1.6659                 1.8662                 2.5876
 Frc consts  --      0.6283                 0.7290                 1.0366
 IR Inten    --      7.8204                 7.4915                 0.7319

                     16                     17                     18
                      A                      A                      A
 Frequencies --    855.4941               918.5496               926.2312
 Red. masses --      2.7914                 2.0772                 2.8320
 Frc consts  --      1.2037                 1.0326                 1.4315
 IR Inten    --      6.1894                 9.1353                 7.8621

                     19                     20                     21
                      A                      A                      A
 Frequencies --    959.4976               966.1585              1009.9920
 Red. masses --      2.3489                 2.1428                 1.8171
 Frc consts  --      1.2741                 1.1785                 1.0921
 IR Inten    --      5.6867                 4.2025                 7.3128

                     22                     23                     24
                      A                      A                      A
 Frequencies --   1029.2433              1043.7742              1077.6931
 Red. masses --      1.6581                 1.4118                 1.3447
 Frc consts  --      1.0349                 0.9062                 0.9201
 IR Inten    --     11.5224                 3.2662                 3.9710

                     25                     26                     27
                      A                      A                      A
 Frequencies --   1080.4354              1104.5177              1122.0538
 Red. masses --      1.4816                 1.4229                 1.4319
 Frc consts  --      1.0190                 1.0228                 1.0622
 IR Inten    --      4.6978                24.8409                20.8666

                     28                     29                     30
                      A                      A                      A
 Frequencies --   1134.9229              1163.6951              1195.1990
 Red. masses --      2.7645                 1.8612                 1.7602
 Frc consts  --      2.0980                 1.4850                 1.4815
 IR Inten    --     95.1871                 7.6304                 9.3257

                     31                     32                     33
                      A                      A                      A
 Frequencies --   1204.7359              1225.2107              1248.7193
 Red. masses --      1.4981                 1.7267                 1.8690
 Frc consts  --      1.2811                 1.5272                 1.7171
 IR Inten    --     14.5597                32.8897                78.9752

                     34                     35                     36
                      A                      A                      A
 Frequencies --   1266.0908              1309.3515              1335.4913
 Red. masses --      2.3278                 1.7644                 1.6721
 Frc consts  --      2.1985                 1.7822                 1.7571
 IR Inten    --     30.3867                49.1995                 8.1426

                     37                     38                     39
                      A                      A                      A
 Frequencies --   1368.2422              1391.3251              1421.4977
 Red. masses --      1.3835                 1.7337                 1.4674
 Frc consts  --      1.5260                 1.9774                 1.7471
 IR Inten    --     45.1199                12.2079                 2.7116

                     40                     41                     42
                      A                      A                      A
 Frequencies --   1488.6879              1501.5941              3061.6831
 Red. masses --      1.1817                 1.1665                 1.0839
 Frc consts  --      1.5430                 1.5497                 5.9865
 IR Inten    --      7.4240                 2.0737                52.2683

                     43                     44                     45
                      A                      A                      A
 Frequencies --   3066.8854              3132.2709              3134.8914
 Red. masses --      1.0622                 1.0890                 1.0589
 Frc consts  --      5.8863                 6.2949                 6.1314
 IR Inten    --     30.8081                26.6647                24.7355

                     46                     47                     48
                      A                      A                      A
 Frequencies --   3152.2056              3159.0866              3170.0761
 Red. masses --      1.0890                 1.1032                 1.0928
 Frc consts  --      6.3756                 6.4868                 6.4705
 IR Inten    --     22.4217                19.7771                16.6937

                     49                     50                     51
                      A                      A                      A
 Frequencies --   3214.7837              3785.8213              3814.4650
 Red. masses --      1.1119                 1.0659                 1.0660
 Frc consts  --      6.7703                 9.0011                 9.1385
 IR Inten    --     13.8752                34.0342                30.0168

 - Thermochemistry -
 -------------------
 Temperature   298.150 Kelvin.  Pressure   1.00000 Atm.
 Atom     1 has atomic number  8 and mass  15.99491

 Molecular mass:   126.06808 amu.
 Principal axes and moments of inertia in atomic units:
                           1         2         3
     Eigenvalues --   692.447221038.170581229.79330
           X            0.99982   0.00096   0.01875
           Y           -0.00116   0.99994   0.01056
           Z           -0.01874  -0.01058   0.99977
 This molecule is an asymmetric top.
 Rotational symmetry number  1.
 Warning -- assumption of classical behavior for rotation
           may cause significant error
 Rotational temperatures (Kelvin)      0.12508     0.08343     0.07043
 Rotational constants (GHZ):           2.60632     1.73839     1.46752
 Zero-point vibrational energy     420961.1 (Joules/Mol)
                                  100.61211 (Kcal/Mol)
 Warning -- explicit consideration of  11 degrees of freedom as
           vibrations may cause significant error
 Vibrational temperatures:    242.76   310.54   373.61   423.85   493.00
          (Kelvin)            562.23   584.15   641.77   775.91   818.60
                              887.22   935.92  1151.11  1171.56  1186.39
                             1230.86  1321.59  1332.64  1380.50  1390.08
                             1453.15  1480.85  1501.76  1550.56  1554.50
                             1589.15  1614.38  1632.90  1674.30  1719.62
                             1733.34  1762.80  1796.63  1821.62  1883.86
                             1921.47  1968.59  2001.80  2045.22  2141.89
                             2160.46  4405.07  4412.56  4506.63  4510.40
                             4535.32  4545.22  4561.03  4625.35  5446.95
                             5488.16

 Zero-point correction=                           0.160336 (Hartree/Particle)
 Thermal correction to Energy=                    0.167978
 Thermal correction to Enthalpy=                  0.168922
 Thermal correction to Gibbs Free Energy=         0.128916
 Sum of electronic and zero-point Energies=           -422.976190
 Sum of electronic and thermal Energies=              -422.968548
 Sum of electronic and thermal Enthalpies=            -422.967603
 Sum of electronic and thermal Free Energies=         -423.007609

                     E (Thermal)             CV                S
                      KCal/Mol        Cal/Mol-Kelvin    Cal/Mol-Kelvin
 Total                  105.408             31.768             84.199
 Electronic               0.000              0.000              0.000
 Translational            0.889              2.981             40.409
 Rotational               0.889              2.981             28.271
 Vibrational            103.630             25.806             15.519
 Vibration     1          0.625              1.881              2.450
 Vibration     2          0.645              1.817              1.994
 Vibration     3          0.668              1.746              1.664
 Vibration     4          0.689              1.684              1.447
 Vibration     5          0.722              1.590              1.200
 Vibration     6          0.758              1.490              0.997
 Vibration     7          0.771              1.457              0.941
 Vibration     8          0.805              1.370              0.808
 Vibration     9          0.894              1.163              0.567
 Vibration    10          0.925              1.098              0.506
 Vibration    11          0.976              0.997              0.422

 Optimization completed.
    -- Stationary point found.
 Normal termination of Gaussian 09 at Mon Jan 27 23:43:33 2020.
