 Gaussian 09, Revision D.01,
 Gaussian 09:  ES64L-G09RevD.01 24-Apr-2013

 -----------------------------
 # b3lyp 6-31G(2df,p) opt Freq
 -----------------------------

 -----
 titel
 -----
 Symbolic Z-matrix:
 Charge =  0 Multiplicity = 1

 SCF Done:  E(RB3LYP) =  -423.167587679     A.U. after   14 cycles
 Optimization completed.
    -- Stationary point found.
 Normal termination of Gaussian 09 at Mon Jan 27 16:25:00 2020.

 ----------------------------------------------------------------------
 #N Geom=AllCheck Guess=TCheck SCRF=Check GenChk RB3LYP/6-31G(2df,p) Fr
 eq
 ----------------------------------------------------------------------

 Structure from the checkpoint file:  "/scratch/puck/g09_ad5197d4-8903-4000-ad24-f8f24cd73ed6/Gau-76269.chk"
 -----
 titel
 -----
 Charge =  0 Multiplicity = 1

                         Standard orientation:
 ---------------------------------------------------------------------
 Center     Atomic      Atomic             Coordinates (Angstroms)
 Number     Number       Type             X           Y           Z
 ---------------------------------------------------------------------
      1          6           0        1.199802    1.112127    1.218539
      2          6           0        0.832959    0.161547    0.102164
      3          6           0        1.642991    0.108985   -1.121790
      4          8           0        1.766499   -0.907705   -0.118618
      5          6           0       -0.618451   -0.255800    0.038228
      6          6           0       -0.975885   -1.643088   -0.486717
      7          6           0       -1.102809   -1.366222    0.969909
      8          6           0       -1.608865    0.805162   -0.263520
      9          8           0       -1.349603    1.963697   -0.483794
     10          1           0        0.940596    0.680322    2.191131
     11          1           0        2.273765    1.312548    1.207920
     12          1           0        0.656851    2.053079    1.101612
     13          1           0        1.187465   -0.213411   -2.056623
     14          1           0        2.504826    0.765827   -1.225147
     15          1           0       -1.878292   -1.737795   -1.081096
     16          1           0       -0.131019   -2.235570   -0.814526
     17          1           0       -2.092680   -1.268715    1.403302
     18          1           0       -0.351865   -1.780688    1.632858
     19          1           0       -2.663261    0.440208   -0.281024
 ---------------------------------------------------------------------

 SCF Done:  E(RB3LYP) =  -423.167587679     A.U. after    1 cycles

 The electronic state is 1-A.
 Alpha  occ. eigenvalues --  -19.15421 -19.13876 -10.27352 -10.25008 -10.23349
 Alpha  occ. eigenvalues --  -10.21574 -10.20890 -10.20666 -10.17859  -1.07402
 Alpha  occ. eigenvalues --   -1.04649  -0.88397  -0.75132  -0.67916  -0.65964
 Alpha  occ. eigenvalues --   -0.62090  -0.61867  -0.54048  -0.50787  -0.49954
 Alpha  occ. eigenvalues --   -0.47749  -0.45441  -0.43009  -0.42057  -0.40790
 Alpha  occ. eigenvalues --   -0.39770  -0.38179  -0.37671  -0.37249  -0.33021
 Alpha  occ. eigenvalues --   -0.31338  -0.28563  -0.27455  -0.25390
 Alpha virt. eigenvalues --   -0.02214   0.08916   0.09373   0.10333   0.10879
 Alpha virt. eigenvalues --    0.11442   0.12708   0.14121   0.15027   0.16440
 Alpha virt. eigenvalues --    0.17547   0.19038   0.19751   0.20183   0.21003

 Mulliken charges:
               1
     1  C   -0.477975
     2  C    0.337321
     3  C   -0.215213
     4  O   -0.286379
     5  C    0.177666
     6  C   -0.309285
     7  C   -0.306311
     8  C    0.114102
     9  O   -0.275562
    10  H    0.120253
    11  H    0.124461
    12  H    0.153034
    13  H    0.113008
    14  H    0.119197
    15  H    0.121956
    16  H    0.151590
    17  H    0.124711
    18  H    0.142623
    19  H    0.070803
 Sum of Mulliken charges =   0.00000

 Dipole moment (field-independent basis, Debye):
    X=             -0.6460    Y=             -1.3879    Z=              0.1921  Tot=              1.5429
 Quadrupole moment (field-independent basis, Debye-Ang):
   XX=            -52.4623   YY=            -59.5184   ZZ=            -50.5358
   XY=              6.6201   XZ=             -1.7504   YZ=              1.6766

  Exact polarizability:  78.664   4.680  78.677  -2.684  -0.711  70.055
 Approx polarizability: 107.208   2.762 128.317  -4.288  -6.193 105.155

                      1                      2                      3
                      A                      A                      A
 Frequencies --     59.7952               138.5949               176.1500
 Red. masses --      4.2255                 3.3647                 4.7041
 Frc consts  --      0.0089                 0.0381                 0.0860
 IR Inten    --      3.3542                 3.6375                 9.0253

                      4                      5                      6
                      A                      A                      A
 Frequencies --    204.4890               221.2263               258.7705
 Red. masses --      1.4871                 1.5321                 3.5927
 Frc consts  --      0.0366                 0.0442                 0.1417
 IR Inten    --      0.5720                 1.5840                 0.3241

                      7                      8                      9
                      A                      A                      A
 Frequencies --    326.9033               351.8097               387.5763
 Red. masses --      1.9840                 2.4918                 2.9025
 Frc consts  --      0.1249                 0.1817                 0.2569
 IR Inten    --      1.0481                 0.2986                 4.9457

                     10                     11                     12
                      A                      A                      A
 Frequencies --    440.5521               508.5990               566.3713
 Red. masses --      4.5849                 3.0609                 4.0484
 Frc consts  --      0.5243                 0.4665                 0.7651
 IR Inten    --      4.9497                 2.0204                14.0284

                     13                     14                     15
                      A                      A                      A
 Frequencies --    644.3303               791.3159               827.4413
 Red. masses --      4.6531                 1.0369                 3.2088
 Frc consts  --      1.1382                 0.3825                 1.2944
 IR Inten    --     20.5055                 0.5790                 5.5236

                     16                     17                     18
                      A                      A                      A
 Frequencies --    841.2806               870.6657               920.3312
 Red. masses --      3.9432                 2.6403                 1.7763
 Frc consts  --      1.6443                 1.1792                 0.8865
 IR Inten    --      2.7809                17.6901                43.6156

                     19                     20                     21
                      A                      A                      A
 Frequencies --    924.5942               951.6972               999.1540
 Red. masses --      1.7475                 1.3870                 2.3246
 Frc consts  --      0.8802                 0.7401                 1.3673
 IR Inten    --     15.3396                 4.4681                26.2937

                     22                     23                     24
                      A                      A                      A
 Frequencies --   1039.0903              1050.0653              1069.3276
 Red. masses --      1.7060                 1.7032                 1.3641
 Frc consts  --      1.0853                 1.1065                 0.9190
 IR Inten    --      2.5166                 0.4702                 1.1029

                     25                     26                     27
                      A                      A                      A
 Frequencies --   1097.1255              1108.5662              1135.0487
 Red. masses --      1.3980                 1.7501                 1.3853
 Frc consts  --      0.9914                 1.2672                 1.0515
 IR Inten    --      2.2906                 6.8824                 5.6244

                     28                     29                     30
                      A                      A                      A
 Frequencies --   1167.6100              1202.5963              1203.7698
 Red. masses --      1.3612                 2.0295                 1.4418
 Frc consts  --      1.0934                 1.7293                 1.2309
 IR Inten    --      1.4079                 7.4727                 3.1290

                     31                     32                     33
                      A                      A                      A
 Frequencies --   1290.1213              1348.7060              1399.5019
 Red. masses --      2.8365                 3.2092                 2.2640
 Frc consts  --      2.7816                 3.4393                 2.6126
 IR Inten    --     23.6868                 5.4964                31.3005

                     34                     35                     36
                      A                      A                      A
 Frequencies --   1409.9254              1442.9091              1452.9870
 Red. masses --      1.4928                 1.3046                 1.0936
 Frc consts  --      1.7484                 1.6003                 1.3603
 IR Inten    --     17.1709                 0.7233                 4.5276

                     37                     38                     39
                      A                      A                      A
 Frequencies --   1484.7966              1487.6144              1500.9624
 Red. masses --      1.0825                 1.2616                 1.0895
 Frc consts  --      1.4061                 1.6450                 1.4462
 IR Inten    --      4.3730                 1.8892                 1.9208

                     40                     41                     42
                      A                      A                      A
 Frequencies --   1530.1583              1809.5080              2850.5580
 Red. masses --      1.3649                10.6185                 1.0820
 Frc consts  --      1.8828                20.4850                 5.1801
 IR Inten    --      4.5007               223.5824               110.1501

                     43                     44                     45
                      A                      A                      A
 Frequencies --   3043.1024              3088.6131              3113.4278
 Red. masses --      1.0371                 1.0507                 1.0984
 Frc consts  --      5.6585                 5.9056                 6.2732
 IR Inten    --     16.4346                20.9752                16.5464

                     46                     47                     48
                      A                      A                      A
 Frequencies --   3134.9861              3137.8798              3141.8230
 Red. masses --      1.0538                 1.1024                 1.0552
 Frc consts  --      6.1022                 6.3951                 6.1371
 IR Inten    --      8.9575                 6.9719                10.2648

                     49                     50                     51
                      A                      A                      A
 Frequencies --   3176.6537              3222.6142              3242.2758
 Red. masses --      1.1197                 1.1174                 1.1157
 Frc consts  --      6.6569                 6.8369                 6.9103
 IR Inten    --     20.3253                 2.2381                 1.5704

 - Thermochemistry -
 -------------------
 Temperature   298.150 Kelvin.  Pressure   1.00000 Atm.
 Atom     1 has atomic number  6 and mass  12.00000

 Molecular mass:   126.06808 amu.
 Principal axes and moments of inertia in atomic units:
                           1         2         3
     Eigenvalues --   867.509361080.579861435.74421
           X            0.97792   0.20896  -0.00099
           Y           -0.20879   0.97731   0.03577
           Z            0.00844  -0.03478   0.99936
 This molecule is an asymmetric top.
 Rotational symmetry number  1.
 Warning -- assumption of classical behavior for rotation
           may cause significant error
 Rotational temperatures (Kelvin)      0.09984     0.08015     0.06033
 Rotational constants (GHZ):           2.08037     1.67016     1.25701
 Zero-point vibrational energy     411479.3 (Joules/Mol)
                                   98.34592 (Kcal/Mol)
 Warning -- explicit consideration of  12 degrees of freedom as
           vibrations may cause significant error
 Vibrational temperatures:     86.03   199.41   253.44   294.21   318.29
          (Kelvin)            372.31   470.34   506.18   557.64   633.86
                              731.76   814.88   927.05  1138.53  1190.50
                             1210.41  1252.69  1324.15  1330.28  1369.28
                             1437.56  1495.02  1510.81  1538.52  1578.52
                             1594.98  1633.08  1679.93  1730.27  1731.95
                             1856.19  1940.48  2013.57  2028.57  2076.02
                             2090.52  2136.29  2140.34  2159.55  2201.55
                             2603.48  4101.31  4378.34  4443.82  4479.52
                             4510.54  4514.70  4520.38  4570.49  4636.62
                             4664.91

 Zero-point correction=                           0.156724 (Hartree/Particle)
 Thermal correction to Energy=                    0.165807
 Thermal correction to Enthalpy=                  0.166751
 Thermal correction to Gibbs Free Energy=         0.122965
 Sum of electronic and zero-point Energies=           -423.010863
 Sum of electronic and thermal Energies=              -423.001781
 Sum of electronic and thermal Enthalpies=            -423.000837
 Sum of electronic and thermal Free Energies=         -423.044623

                     E (Thermal)             CV                S
                      KCal/Mol        Cal/Mol-Kelvin    Cal/Mol-Kelvin
 Total                  104.045             34.008             92.155
 Electronic               0.000              0.000              0.000
 Translational            0.889              2.981             40.409
 Rotational               0.889              2.981             28.689
 Vibrational            102.268             28.046             23.058
 Vibration     1          0.597              1.973              4.464
 Vibration     2          0.614              1.915              2.823
 Vibration     3          0.628              1.872              2.369
 Vibration     4          0.640              1.834              2.092
 Vibration     5          0.648              1.809              1.949
 Vibration     6          0.668              1.748              1.670
 Vibration     7          0.711              1.622              1.275
 Vibration     8          0.728              1.572              1.158
 Vibration     9          0.756              1.497              1.009
 Vibration    10          0.800              1.382              0.825
 Vibration    11          0.864              1.231              0.637
 Vibration    12          0.922              1.104              0.511

 Normal termination of Gaussian 09 at Mon Jan 27 17:16:50 2020.
