 Gaussian 09, Revision D.01,
 Gaussian 09:  ES64L-G09RevD.01 24-Apr-2013

 -----------------------------
 # b3lyp 6-31G(2df,p) opt Freq
 -----------------------------

 -----
 titel
 -----
 Symbolic Z-matrix:
 Charge =  0 Multiplicity = 1

 SCF Done:  E(RB3LYP) =  -423.149023703     A.U. after   13 cycles
 Optimization completed.
    -- Stationary point found.
 Normal termination of Gaussian 09 at Mon Jan 27 11:23:34 2020.

 ----------------------------------------------------------------------
 #N Geom=AllCheck Guess=TCheck SCRF=Check GenChk RB3LYP/6-31G(2df,p) Fr
 eq
 ----------------------------------------------------------------------

 Structure from the checkpoint file:  "/scratch/puck/g09_2f24801d-ffbe-4510-af3a-9eaba5a1645a/Gau-22656.chk"
 -----
 titel
 -----
 Charge =  0 Multiplicity = 1

                         Standard orientation:
 ---------------------------------------------------------------------
 Center     Atomic      Atomic             Coordinates (Angstroms)
 Number     Number       Type             X           Y           Z
 ---------------------------------------------------------------------
      1          6           0       -2.225809   -0.668729    0.195589
      2          8           0       -2.165452    0.780618    0.038080
      3          6           0       -0.792105    0.640275   -0.392994
      4          6           0        0.325396    1.593757   -0.034385
      5          6           0        1.618053    0.779807   -0.227392
      6          8           0        2.023708   -0.067795    0.852931
      7          6           0        1.641486   -0.704175   -0.369543
      8          6           0        0.380246   -1.572165   -0.317939
      9          6           0       -0.688989   -0.702273    0.313431
     10          1           0       -2.822298   -0.962108    1.063434
     11          1           0       -2.623246   -1.148742   -0.710888
     12          1           0       -0.781638    0.492002   -1.488031
     13          1           0        0.350159    2.484178   -0.670230
     14          1           0        0.257075    1.920870    1.008496
     15          1           0        2.448069    1.327698   -0.674651
     16          1           0        2.479919   -1.138576   -0.917147
     17          1           0        0.113253   -1.864616   -1.341258
     18          1           0        0.593604   -2.490476    0.241302
     19          1           0       -0.430609   -0.521794    1.360292
 ---------------------------------------------------------------------

 SCF Done:  E(RB3LYP) =  -423.149023703     A.U. after    1 cycles

 The electronic state is 1-A.
 Alpha  occ. eigenvalues --  -19.15218 -19.13234 -10.24485 -10.24414 -10.23268
 Alpha  occ. eigenvalues --  -10.22993 -10.19599 -10.19138 -10.18760  -1.07348
 Alpha  occ. eigenvalues --   -1.03577  -0.80737  -0.76639  -0.70180  -0.66477
 Alpha  occ. eigenvalues --   -0.61640  -0.58866  -0.55655  -0.51987  -0.47641
 Alpha  occ. eigenvalues --   -0.46339  -0.46005  -0.43408  -0.42964  -0.40928
 Alpha  occ. eigenvalues --   -0.39043  -0.38467  -0.36548  -0.34406  -0.31226
 Alpha  occ. eigenvalues --   -0.30948  -0.28414  -0.26876  -0.24589
 Alpha virt. eigenvalues --    0.08319   0.08768   0.10007   0.10811   0.11911
 Alpha virt. eigenvalues --    0.12226   0.12747   0.14283   0.15613   0.16203
 Alpha virt. eigenvalues --    0.17418   0.17894   0.20033   0.20936   0.21615

 Mulliken charges:
               1
     1  C   -0.153278
     2  O   -0.312749
     3  C    0.193119
     4  C   -0.305740
     5  C    0.047930
     6  O   -0.248823
     7  C    0.065366
     8  C   -0.308189
     9  C    0.017846
    10  H    0.110610
    11  H    0.095916
    12  H    0.062727
    13  H    0.104543
    14  H    0.124988
    15  H    0.093573
    16  H    0.088574
    17  H    0.105724
    18  H    0.110587
    19  H    0.107277
 Sum of Mulliken charges =   0.00000

 Dipole moment (field-independent basis, Debye):
    X=              0.6280    Y=             -1.0944    Z=             -1.4872  Tot=              1.9503
 Quadrupole moment (field-independent basis, Debye-Ang):
   XX=            -58.0805   YY=            -50.8382   ZZ=            -53.2249
   XY=              4.3925   XZ=             -3.8752   YZ=             -0.1661

  Exact polarizability:  81.420   3.750  78.058  -3.429   0.329  63.079
 Approx polarizability: 107.428   1.833 113.960  -1.724   0.430 103.939

                      1                      2                      3
                      A                      A                      A
 Frequencies --    146.1019               218.0531               302.1808
 Red. masses --      3.5261                 2.8942                 3.0400
 Frc consts  --      0.0443                 0.0811                 0.1636
 IR Inten    --      2.7110                 3.8106                 2.2054

                      4                      5                      6
                      A                      A                      A
 Frequencies --    349.5915               360.0755               385.7547
 Red. masses --      2.9354                 3.3361                 2.8926
 Frc consts  --      0.2114                 0.2548                 0.2536
 IR Inten    --      2.7471                 0.3067                 5.7262

                      7                      8                      9
                      A                      A                      A
 Frequencies --    499.9192               538.3025               588.5550
 Red. masses --      2.8374                 2.8398                 5.4339
 Frc consts  --      0.4178                 0.4848                 1.1090
 IR Inten    --      9.1580                 2.2787                 0.7813

                     10                     11                     12
                      A                      A                      A
 Frequencies --    744.7172               768.6522               807.6820
 Red. masses --      3.9968                 3.0555                 2.5235
 Frc consts  --      1.3060                 1.0636                 0.9699
 IR Inten    --     11.4457                10.7188                10.3461

                     13                     14                     15
                      A                      A                      A
 Frequencies --    830.9507               897.3000               926.4958
 Red. masses --      2.8852                 2.6967                 1.8099
 Frc consts  --      1.1737                 1.2793                 0.9153
 IR Inten    --      2.2264                10.4761                21.0823

                     16                     17                     18
                      A                      A                      A
 Frequencies --    957.8135               970.5373              1000.5059
 Red. masses --      3.3260                 2.5127                 1.8880
 Frc consts  --      1.7978                 1.3945                 1.1135
 IR Inten    --     19.7396                35.4261                 9.1124

                     19                     20                     21
                      A                      A                      A
 Frequencies --   1019.1593              1042.3450              1078.6450
 Red. masses --      2.2933                 3.5660                 1.5728
 Frc consts  --      1.4034                 2.2828                 1.0782
 IR Inten    --     25.5246                15.5068                 1.9856

                     22                     23                     24
                      A                      A                      A
 Frequencies --   1094.8790              1139.6721              1156.9917
 Red. masses --      1.5487                 2.0486                 1.5269
 Frc consts  --      1.0938                 1.5677                 1.2042
 IR Inten    --      2.7531                 6.5757                 6.9487

                     25                     26                     27
                      A                      A                      A
 Frequencies --   1164.8155              1181.2310              1199.7377
 Red. masses --      1.4222                 1.6439                 1.5218
 Frc consts  --      1.1369                 1.3514                 1.2906
 IR Inten    --      4.7078                 4.5122                 1.7567

                     28                     29                     30
                      A                      A                      A
 Frequencies --   1241.6460              1273.9368              1288.3417
 Red. masses --      1.4458                 1.3216                 1.5810
 Frc consts  --      1.3132                 1.2637                 1.5461
 IR Inten    --      1.8443                 5.2723                 3.5165

                     31                     32                     33
                      A                      A                      A
 Frequencies --   1294.9291              1308.3634              1318.7588
 Red. masses --      1.4106                 1.3238                 1.4845
 Frc consts  --      1.3936                 1.3352                 1.5211
 IR Inten    --     10.2412                 0.2212                 3.7939

                     34                     35                     36
                      A                      A                      A
 Frequencies --   1354.5241              1376.3036              1412.1197
 Red. masses --      1.5172                 1.2370                 1.5766
 Frc consts  --      1.6401                 1.3805                 1.8523
 IR Inten    --      8.0257                 4.1854                 1.9224

                     37                     38                     39
                      A                      A                      A
 Frequencies --   1428.3390              1454.5091              1485.2786
 Red. masses --      1.5526                 2.1169                 1.1085
 Frc consts  --      1.8663                 2.6386                 1.4408
 IR Inten    --     31.0347                 3.9510                 6.3434

                     40                     41                     42
                      A                      A                      A
 Frequencies --   1487.9782              1519.7226              2934.5586
 Red. masses --      1.1012                 1.1360                 1.0811
 Frc consts  --      1.4365                 1.5458                 5.4855
 IR Inten    --      0.6211                 1.5064                45.3426

                     43                     44                     45
                      A                      A                      A
 Frequencies --   2997.9770              3028.4390              3047.2261
 Red. masses --      1.0656                 1.0591                 1.0586
 Frc consts  --      5.6430                 5.7231                 5.7916
 IR Inten    --     67.6538                30.0298                19.3341

                     46                     47                     48
                      A                      A                      A
 Frequencies --   3064.5069              3079.6204              3088.0960
 Red. masses --      1.0961                 1.0925                 1.0867
 Frc consts  --      6.0649                 6.1045                 6.1055
 IR Inten    --     14.0375                11.3106                24.2713

                     49                     50                     51
                      A                      A                      A
 Frequencies --   3093.4488              3096.0311              3106.2108
 Red. masses --      1.1015                 1.0981                 1.0932
 Frc consts  --      6.2102                 6.2016                 6.2147
 IR Inten    --     22.0420                46.4736                72.1904

 - Thermochemistry -
 -------------------
 Temperature   298.150 Kelvin.  Pressure   1.00000 Atm.
 Atom     1 has atomic number  6 and mass  12.00000

 Molecular mass:   126.06808 amu.
 Principal axes and moments of inertia in atomic units:
                           1         2         3
     Eigenvalues --   548.883371205.855571548.12041
           X            0.99940   0.03073  -0.01568
           Y           -0.03063   0.99951   0.00635
           Z            0.01586  -0.00587   0.99986
 This molecule is an asymmetric top.
 Rotational symmetry number  1.
 Warning -- assumption of classical behavior for rotation
           may cause significant error
 Rotational temperatures (Kelvin)      0.15780     0.07183     0.05595
 Rotational constants (GHZ):           3.28802     1.49665     1.16576
 Zero-point vibrational energy     425580.7 (Joules/Mol)
                                  101.71622 (Kcal/Mol)
 Warning -- explicit consideration of   9 degrees of freedom as
           vibrations may cause significant error
 Vibrational temperatures:    210.21   313.73   434.77   502.98   518.07
          (Kelvin)            555.01   719.27   774.50   846.80  1071.48
                             1105.92  1162.07  1195.55  1291.01  1333.02
                             1378.08  1396.38  1439.50  1466.34  1499.70
                             1551.93  1575.28  1639.73  1664.65  1675.91
                             1699.53  1726.15  1786.45  1832.91  1853.63
                             1863.11  1882.44  1897.40  1948.86  1980.19
                             2031.72  2055.06  2092.71  2136.98  2140.87
                             2186.54  4222.17  4313.41  4357.24  4384.27
                             4409.14  4430.88  4443.08  4450.78  4454.49
                             4469.14

 Zero-point correction=                           0.162095 (Hartree/Particle)
 Thermal correction to Energy=                    0.169042
 Thermal correction to Enthalpy=                  0.169987
 Thermal correction to Gibbs Free Energy=         0.130923
 Sum of electronic and zero-point Energies=           -422.986929
 Sum of electronic and thermal Energies=              -422.979981
 Sum of electronic and thermal Enthalpies=            -422.979037
 Sum of electronic and thermal Free Energies=         -423.018101

                     E (Thermal)             CV                S
                      KCal/Mol        Cal/Mol-Kelvin    Cal/Mol-Kelvin
 Total                  106.076             28.412             82.216
 Electronic               0.000              0.000              0.000
 Translational            0.889              2.981             40.409
 Rotational               0.889              2.981             28.418
 Vibrational            104.298             22.451             13.390
 Vibration     1          0.617              1.907              2.722
 Vibration     2          0.646              1.814              1.975
 Vibration     3          0.694              1.670              1.405
 Vibration     4          0.727              1.576              1.168
 Vibration     5          0.735              1.555              1.122
 Vibration     6          0.754              1.501              1.017
 Vibration     7          0.855              1.250              0.658
 Vibration     8          0.893              1.165              0.569
 Vibration     9          0.946              1.056              0.470

 Optimization completed.
    -- Stationary point found.
 Normal termination of Gaussian 09 at Mon Jan 27 12:56:48 2020.
