 Gaussian 09, Revision D.01,
 Gaussian 09:  ES64L-G09RevD.01 24-Apr-2013

 -----------------------------
 # b3lyp 6-31G(2df,p) opt Freq
 -----------------------------

 -----
 titel
 -----
 Symbolic Z-matrix:
 Charge =  0 Multiplicity = 1

 SCF Done:  E(RB3LYP) =  -423.158283621     A.U. after   13 cycles
 SCF Done:  E(RB3LYP) =  -423.158283492     A.U. after    7 cycles
 SCF Done:  E(RB3LYP) =  -423.158283590     A.U. after    7 cycles
 SCF Done:  E(RB3LYP) =  -423.158283618     A.U. after    6 cycles
 SCF Done:  E(RB3LYP) =  -423.158283646     A.U. after    6 cycles
 Optimization completed.
    -- Stationary point found.
 Normal termination of Gaussian 09 at Mon Jan 27 11:28:23 2020.

 ----------------------------------------------------------------------
 #N Geom=AllCheck Guess=TCheck SCRF=Check GenChk RB3LYP/6-31G(2df,p) Fr
 eq
 ----------------------------------------------------------------------

 Structure from the checkpoint file:  "/scratch/puck/g09_c337aed4-0d86-4686-b955-7b2947f11173/Gau-39095.chk"
 -----
 titel
 -----
 Charge =  0 Multiplicity = 1

                         Standard orientation:
 ---------------------------------------------------------------------
 Center     Atomic      Atomic             Coordinates (Angstroms)
 Number     Number       Type             X           Y           Z
 ---------------------------------------------------------------------
      1          6           0        3.623858    0.555481    0.309055
      2          6           0        2.661229   -0.084465   -0.017779
      3          6           0        1.497975   -0.873168   -0.397286
      4          6           0        0.191443   -0.338124    0.187686
      5          8           0       -0.809154   -1.286454   -0.097487
      6          6           0       -2.079033   -0.874458    0.395008
      7          6           0       -2.455551    0.494692   -0.175283
      8          6           0       -1.297722    1.461742    0.080677
      9          8           0       -0.078773    0.907459   -0.398991
     10          1           0        4.473698    1.126789    0.588884
     11          1           0        1.383284   -0.896569   -1.486735
     12          1           0        1.610606   -1.909371   -0.061005
     13          1           0        0.271417   -0.213765    1.285253
     14          1           0       -2.790777   -1.651056    0.104127
     15          1           0       -2.053155   -0.830280    1.497287
     16          1           0       -2.622813    0.405960   -1.253678
     17          1           0       -3.377831    0.863892    0.286858
     18          1           0       -1.432379    2.412057   -0.441594
     19          1           0       -1.211830    1.674108    1.159954
 ---------------------------------------------------------------------

 SCF Done:  E(RB3LYP) =  -423.158283646     A.U. after    1 cycles

 The electronic state is 1-A.
 Alpha  occ. eigenvalues --  -19.14669 -19.14517 -10.28166 -10.23589 -10.23443
 Alpha  occ. eigenvalues --  -10.20482 -10.18907 -10.17730 -10.16582  -1.07727
 Alpha  occ. eigenvalues --   -1.00736  -0.81328  -0.76857  -0.70964  -0.67995
 Alpha  occ. eigenvalues --   -0.64177  -0.58190  -0.52862  -0.50414  -0.49918
 Alpha  occ. eigenvalues --   -0.49155  -0.45360  -0.44665  -0.42852  -0.41293
 Alpha  occ. eigenvalues --   -0.40324  -0.39344  -0.35828  -0.33206  -0.32071
 Alpha  occ. eigenvalues --   -0.27279  -0.26513  -0.25961  -0.25750
 Alpha virt. eigenvalues --    0.05720   0.06330   0.09144   0.11386   0.12435
 Alpha virt. eigenvalues --    0.12761   0.13359   0.13628   0.14218   0.15604
 Alpha virt. eigenvalues --    0.17426   0.17863   0.19122   0.19600   0.21738

 Mulliken charges:
               1
     1  C   -0.453301
     2  C    0.309267
     3  C   -0.384503
     4  C    0.216849
     5  O   -0.249561
     6  C   -0.081164
     7  C   -0.207402
     8  C   -0.076888
     9  O   -0.243347
    10  H    0.194241
    11  H    0.146157
    12  H    0.140747
    13  H    0.063444
    14  H    0.113251
    15  H    0.090599
    16  H    0.116177
    17  H    0.099707
    18  H    0.114124
    19  H    0.091602
 Sum of Mulliken charges =   0.00000

 Dipole moment (field-independent basis, Debye):
    X=             -1.8396    Y=              0.3630    Z=              0.9589  Tot=              2.1060
 Quadrupole moment (field-independent basis, Debye-Ang):
   XX=            -47.7019   YY=            -53.1504   ZZ=            -53.0904
   XY=             -0.3710   XZ=              0.2148   YZ=              0.8285

  Exact polarizability:  99.839   7.720  71.587   3.802   2.639  61.153
 Approx polarizability: 127.947  18.030 106.742   7.971   7.004  95.798

                      1                      2                      3
                      A                      A                      A
 Frequencies --     63.7344               100.5224               176.9739
 Red. masses --      3.5710                 4.0762                 3.0399
 Frc consts  --      0.0085                 0.0243                 0.0561
 IR Inten    --      0.1061                 1.2012                 1.7880

                      4                      5                      6
                      A                      A                      A
 Frequencies --    257.6985               295.8000               336.9216
 Red. masses --      2.8558                 3.8934                 1.8537
 Frc consts  --      0.1117                 0.2007                 0.1240
 IR Inten    --      1.4840                 1.5858                 3.0678

                      7                      8                      9
                      A                      A                      A
 Frequencies --    346.3124               401.2288               477.3333
 Red. masses --      2.8289                 4.8706                 5.3358
 Frc consts  --      0.1999                 0.4620                 0.7163
 IR Inten    --      4.5895                 0.7782                 4.3977

                     10                     11                     12
                      A                      A                      A
 Frequencies --    523.5924               558.7310               618.0050
 Red. masses --      2.5530                 3.1966                 1.2121
 Frc consts  --      0.4124                 0.5880                 0.2728
 IR Inten    --      1.4444                 5.7669                41.5759

                     13                     14                     15
                      A                      A                      A
 Frequencies --    646.8256               653.4011               829.2648
 Red. masses --      1.4658                 2.0193                 2.5000
 Frc consts  --      0.3613                 0.5079                 1.0129
 IR Inten    --     28.2209                20.7281                15.4379

                     16                     17                     18
                      A                      A                      A
 Frequencies --    871.4613               899.7470               928.8432
 Red. masses --      2.7935                 1.4284                 2.9828
 Frc consts  --      1.2500                 0.6813                 1.5162
 IR Inten    --      8.4535                 3.1511                10.6831

                     19                     20                     21
                      A                      A                      A
 Frequencies --    960.1295               987.8212              1021.0536
 Red. masses --      2.3152                 2.7902                 3.1067
 Frc consts  --      1.2575                 1.6041                 1.9083
 IR Inten    --      9.7168                 5.9243                39.9840

                     22                     23                     24
                      A                      A                      A
 Frequencies --   1047.8543              1071.7430              1097.9510
 Red. masses --      2.7367                 3.9605                 2.5572
 Frc consts  --      1.7705                 2.6803                 1.8163
 IR Inten    --     68.7406                 5.2839                17.3484

                     25                     26                     27
                      A                      A                      A
 Frequencies --   1161.4111              1173.4784              1236.2253
 Red. masses --      2.5407                 2.8637                 1.2535
 Frc consts  --      2.0192                 2.3234                 1.1287
 IR Inten    --    138.4440               130.3265                 4.1648

                     28                     29                     30
                      A                      A                      A
 Frequencies --   1240.7390              1264.5056              1304.8292
 Red. masses --      1.3192                 1.2867                 1.1968
 Frc consts  --      1.1965                 1.2122                 1.2006
 IR Inten    --      5.2651                29.5747                20.9784

                     31                     32                     33
                      A                      A                      A
 Frequencies --   1322.2145              1369.7895              1375.9097
 Red. masses --      1.3543                 1.3049                 1.2572
 Frc consts  --      1.3950                 1.4425                 1.4023
 IR Inten    --      0.6041                 0.2519                 0.2636

                     34                     35                     36
                      A                      A                      A
 Frequencies --   1410.7569              1417.1351              1422.2526
 Red. masses --      1.4335                 1.2459                 1.4793
 Frc consts  --      1.6809                 1.4742                 1.7631
 IR Inten    --     74.1663                 9.9827                 5.5487

                     37                     38                     39
                      A                      A                      A
 Frequencies --   1458.6978              1468.5024              1497.1024
 Red. masses --      1.0924                 1.0996                 1.0970
 Frc consts  --      1.3695                 1.3971                 1.4486
 IR Inten    --      3.2366                 3.9035                 2.5260

                     40                     41                     42
                      A                      A                      A
 Frequencies --   1507.1722              2245.7309              2916.2572
 Red. masses --      1.1047                 5.9253                 1.0811
 Frc consts  --      1.4785                17.6066                 5.4170
 IR Inten    --      4.8793                 2.5445                44.7874

                     43                     44                     45
                      A                      A                      A
 Frequencies --   2962.3822              2970.2273              3043.9416
 Red. masses --      1.0709                 1.0712                 1.0594
 Frc consts  --      5.5370                 5.5679                 5.7835
 IR Inten    --     22.5693                89.6829                19.1789

                     46                     47                     48
                      A                      A                      A
 Frequencies --   3046.6398              3088.4653              3091.0744
 Red. masses --      1.0584                 1.1020                 1.0977
 Frc consts  --      5.7882                 6.1932                 6.1795
 IR Inten    --      9.2504                 5.9191                28.5432

                     49                     50                     51
                      A                      A                      A
 Frequencies --   3095.5742              3100.8933              3507.5516
 Red. masses --      1.0921                 1.0993                 1.1627
 Frc consts  --      6.1657                 6.2277                 8.4282
 IR Inten    --     41.1081                30.9178                65.0098

 - Thermochemistry -
 -------------------
 Temperature   298.150 Kelvin.  Pressure   1.00000 Atm.
 Atom     1 has atomic number  6 and mass  12.00000

 Molecular mass:   126.06808 amu.
 Principal axes and moments of inertia in atomic units:
                           1         2         3
     Eigenvalues --   459.718671791.803592121.65341
           X            0.99997  -0.00669  -0.00233
           Y            0.00671   0.99991   0.01135
           Z            0.00226  -0.01136   0.99993
 This molecule is an asymmetric top.
 Rotational symmetry number  1.
 Warning -- assumption of classical behavior for rotation
           may cause significant error
 Rotational temperatures (Kelvin)      0.18841     0.04834     0.04082
 Rotational constants (GHZ):           3.92575     1.00722     0.85063
 Zero-point vibrational energy     417929.8 (Joules/Mol)
                                   99.88762 (Kcal/Mol)
 Warning -- explicit consideration of  12 degrees of freedom as
           vibrations may cause significant error
 Vibrational temperatures:     91.70   144.63   254.63   370.77   425.59
          (Kelvin)            484.75   498.27   577.28   686.78   753.33
                              803.89   889.17   930.64   940.10  1193.13
                             1253.84  1294.53  1336.40  1381.41  1421.25
                             1469.07  1507.63  1542.00  1579.70  1671.01
                             1688.37  1778.65  1785.14  1819.34  1877.36
                             1902.37  1970.82  1979.62  2029.76  2038.94
                             2046.30  2098.74  2112.84  2153.99  2168.48
                             3231.10  4195.84  4262.20  4273.49  4379.55
                             4383.43  4443.61  4447.36  4453.84  4461.49
                             5046.58

 Zero-point correction=                           0.159181 (Hartree/Particle)
 Thermal correction to Energy=                    0.167746
 Thermal correction to Enthalpy=                  0.168690
 Thermal correction to Gibbs Free Energy=         0.125695
 Sum of electronic and zero-point Energies=           -422.999103
 Sum of electronic and thermal Energies=              -422.990538
 Sum of electronic and thermal Enthalpies=            -422.989593
 Sum of electronic and thermal Free Energies=         -423.032589

                     E (Thermal)             CV                S
                      KCal/Mol        Cal/Mol-Kelvin    Cal/Mol-Kelvin
 Total                  105.262             32.616             90.492
 Electronic               0.000              0.000              0.000
 Translational            0.889              2.981             40.409
 Rotational               0.889              2.981             28.948
 Vibrational            103.485             26.654             21.135
 Vibration     1          0.597              1.972              4.338
 Vibration     2          0.604              1.949              3.444
 Vibration     3          0.628              1.871              2.360
 Vibration     4          0.667              1.750              1.677
 Vibration     5          0.690              1.682              1.441
 Vibration     6          0.718              1.602              1.227
 Vibration     7          0.724              1.583              1.183
 Vibration     8          0.767              1.467              0.958
 Vibration     9          0.834              1.300              0.717
 Vibration    10          0.879              1.198              0.602
 Vibration    11          0.914              1.121              0.526
 Vibration    12          0.978              0.994              0.420

 Optimization completed.
    -- Stationary point found.
 Normal termination of Gaussian 09 at Mon Jan 27 12:04:30 2020.
