 Gaussian 09, Revision D.01,
 Gaussian 09:  ES64L-G09RevD.01 24-Apr-2013

 -----------------------------
 # b3lyp 6-31G(2df,p) opt Freq
 -----------------------------

 -----
 titel
 -----
 Symbolic Z-matrix:
 Charge =  0 Multiplicity = 1

 SCF Done:  E(RB3LYP) =  -423.129861722     A.U. after   13 cycles
 Optimization completed.
    -- Stationary point found.
 Normal termination of Gaussian 09 at Tue Jan 28 09:15:48 2020.

 ----------------------------------------------------------------------
 #N Geom=AllCheck Guess=TCheck SCRF=Check GenChk RB3LYP/6-31G(2df,p) Fr
 eq
 ----------------------------------------------------------------------

 Structure from the checkpoint file:  "/scratch/puck/g09_88c2bb6e-3de1-4849-a800-05605ce61ea4/Gau-14481.chk"
 -----
 titel
 -----
 Charge =  0 Multiplicity = 1

                         Standard orientation:
 ---------------------------------------------------------------------
 Center     Atomic      Atomic             Coordinates (Angstroms)
 Number     Number       Type             X           Y           Z
 ---------------------------------------------------------------------
      1          8           0        2.603098    0.327208    0.114461
      2          6           0        1.748450   -0.786552   -0.119086
      3          6           0        0.340010   -0.296052   -0.050709
      4          6           0       -0.379549    0.399763    1.175677
      5          6           0       -1.478756   -0.695424    1.110997
      6          6           0       -0.971396   -1.101450   -0.292730
      7          8           0       -1.403288   -0.172789   -1.311181
      8          6           0       -0.341415    0.753834   -0.976733
      9          6           0       -0.692791    1.612276    0.258395
     10          1           0        3.514311    0.024572    0.058782
     11          1           0        1.936939   -1.235853   -1.108454
     12          1           0        1.908145   -1.576790    0.633932
     13          1           0        0.101129    0.593028    2.133890
     14          1           0       -1.279608   -1.493546    1.834638
     15          1           0       -2.525948   -0.390022    1.187400
     16          1           0       -1.052040   -2.140049   -0.623424
     17          1           0        0.091017    1.220720   -1.863787
     18          1           0        0.056441    2.398548    0.393918
     19          1           0       -1.696189    2.045669    0.292004
 ---------------------------------------------------------------------

 SCF Done:  E(RB3LYP) =  -423.129861722     A.U. after    1 cycles

 The electronic state is 1-A.
 Alpha  occ. eigenvalues --  -19.13988 -19.12637 -10.23450 -10.22960 -10.22502
 Alpha  occ. eigenvalues --  -10.18878 -10.18581 -10.17854 -10.17489  -1.03890
 Alpha  occ. eigenvalues --   -1.01941  -0.84459  -0.74700  -0.72370  -0.63274
 Alpha  occ. eigenvalues --   -0.60199  -0.59589  -0.52109  -0.51347  -0.47359
 Alpha  occ. eigenvalues --   -0.47173  -0.45179  -0.42629  -0.41770  -0.41006
 Alpha  occ. eigenvalues --   -0.37467  -0.37259  -0.35379  -0.32213  -0.30008
 Alpha  occ. eigenvalues --   -0.28195  -0.27245  -0.26222  -0.23379
 Alpha virt. eigenvalues --    0.06234   0.08320   0.09890   0.11417   0.12463
 Alpha virt. eigenvalues --    0.14327   0.15106   0.15315   0.16089   0.16391
 Alpha virt. eigenvalues --    0.17768   0.18190   0.19115   0.21738   0.22314

 Mulliken charges:
               1
     1  O   -0.422446
     2  C   -0.254420
     3  C    0.372855
     4  C   -0.102792
     5  C   -0.241534
     6  C    0.032141
     7  O   -0.310076
     8  C    0.062674
     9  C   -0.238773
    10  H    0.290289
    11  H    0.094148
    12  H    0.088264
    13  H    0.073099
    14  H    0.097564
    15  H    0.100748
    16  H    0.072816
    17  H    0.077561
    18  H    0.111284
    19  H    0.096598
 Sum of Mulliken charges =   0.00000

 Dipole moment (field-independent basis, Debye):
    X=              1.9904    Y=             -1.1569    Z=              0.9682  Tot=              2.4975
 Quadrupole moment (field-independent basis, Debye-Ang):
   XX=            -49.4693   YY=            -51.0351   ZZ=            -54.9693
   XY=             -2.8675   XZ=             -3.4457   YZ=             -0.9503

  Exact polarizability:  78.523   0.695  76.098  -2.786  -1.045  69.333
 Approx polarizability: 107.990   2.423 110.902  -0.020  -1.043 104.971

                      1                      2                      3
                      A                      A                      A
 Frequencies --     86.9195               133.1276               217.3227
 Red. masses --      4.2514                 3.8654                 1.5808
 Frc consts  --      0.0189                 0.0404                 0.0440
 IR Inten    --      3.2871                 3.1629                42.2942

                      4                      5                      6
                      A                      A                      A
 Frequencies --    271.0999               316.9008               357.4446
 Red. masses --      1.3657                 3.0307                 2.2888
 Frc consts  --      0.0591                 0.1793                 0.1723
 IR Inten    --     60.9012                 1.9226                 1.8292

                      7                      8                      9
                      A                      A                      A
 Frequencies --    396.0939               454.2097               625.4560
 Red. masses --      2.8286                 2.6695                 2.9555
 Frc consts  --      0.2615                 0.3245                 0.6812
 IR Inten    --      2.0202                 4.8574                 4.2524

                     10                     11                     12
                      A                      A                      A
 Frequencies --    665.6285               698.2772               822.8241
 Red. masses --      3.2047                 4.2438                 2.9244
 Frc consts  --      0.8366                 1.2192                 1.1665
 IR Inten    --      4.6346                 3.2001                 3.6174

                     13                     14                     15
                      A                      A                      A
 Frequencies --    843.5548               851.8599               882.6461
 Red. masses --      2.3534                 2.2521                 2.0254
 Frc consts  --      0.9867                 0.9629                 0.9297
 IR Inten    --      9.7952                 7.9093                 3.7675

                     16                     17                     18
                      A                      A                      A
 Frequencies --    935.0235               946.7914               958.3875
 Red. masses --      1.9761                 2.0116                 2.3795
 Frc consts  --      1.0179                 1.0624                 1.2877
 IR Inten    --     11.5002                 4.5792                20.5513

                     19                     20                     21
                      A                      A                      A
 Frequencies --    995.6487              1020.9052              1039.2845
 Red. masses --      2.3138                 2.2397                 4.8652
 Frc consts  --      1.3514                 1.3754                 3.0961
 IR Inten    --     12.5649                12.7320                74.8066

                     22                     23                     24
                      A                      A                      A
 Frequencies --   1072.3162              1109.0473              1114.8882
 Red. masses --      3.6161                 1.9617                 1.9504
 Frc consts  --      2.4498                 1.4216                 1.4283
 IR Inten    --     10.8847                 8.1889                 1.4487

                     25                     26                     27
                      A                      A                      A
 Frequencies --   1118.7285              1136.6631              1168.4304
 Red. masses --      1.3721                 1.9181                 1.7556
 Frc consts  --      1.0118                 1.4601                 1.4121
 IR Inten    --     13.7089                 4.8933                 1.7356

                     28                     29                     30
                      A                      A                      A
 Frequencies --   1179.3807              1201.7169              1241.5021
 Red. masses --      2.0652                 1.4686                 1.3703
 Frc consts  --      1.6924                 1.2496                 1.2444
 IR Inten    --     13.0599                 2.4266                19.0567

                     31                     32                     33
                      A                      A                      A
 Frequencies --   1252.9703              1269.8591              1279.4327
 Red. masses --      1.2957                 1.4033                 1.2004
 Frc consts  --      1.1985                 1.3332                 1.1577
 IR Inten    --     21.5801                24.4298                 0.6048

                     34                     35                     36
                      A                      A                      A
 Frequencies --   1295.4562              1322.1657              1338.4688
 Red. masses --      1.5900                 1.4994                 1.4817
 Frc consts  --      1.5721                 1.5443                 1.5639
 IR Inten    --     13.6006                 1.4926                 7.0166

                     37                     38                     39
                      A                      A                      A
 Frequencies --   1368.5799              1459.3386              1467.5621
 Red. masses --      2.1201                 1.1366                 1.6874
 Frc consts  --      2.3396                 1.4262                 2.1412
 IR Inten    --      2.2230                 1.4481                17.3897

                     40                     41                     42
                      A                      A                      A
 Frequencies --   1472.6756              1513.6316              2953.2681
 Red. masses --      1.1243                 1.0818                 1.0548
 Frc consts  --      1.4366                 1.4603                 5.4202
 IR Inten    --      1.2678                 1.6485                60.4130

                     43                     44                     45
                      A                      A                      A
 Frequencies --   2979.7458              3040.7970              3048.3377
 Red. masses --      1.1053                 1.0591                 1.0574
 Frc consts  --      5.7821                 5.7700                 5.7891
 IR Inten    --     51.1915                30.5555                29.5800

                     46                     47                     48
                      A                      A                      A
 Frequencies --   3075.3578              3091.4220              3101.1798
 Red. masses --      1.0889                 1.0911                 1.1063
 Frc consts  --      6.0678                 6.1435                 6.2686
 IR Inten    --     75.0772                51.0828                20.1794

                     49                     50                     51
                      A                      A                      A
 Frequencies --   3107.7634              3116.5371              3828.7895
 Red. masses --      1.1066                 1.0917                 1.0664
 Frc consts  --      6.2971                 6.2471                 9.2105
 IR Inten    --     23.0631                37.0321                20.8508

 - Thermochemistry -
 -------------------
 Temperature   298.150 Kelvin.  Pressure   1.00000 Atm.
 Atom     1 has atomic number  8 and mass  15.99491

 Molecular mass:   126.06808 amu.
 Principal axes and moments of inertia in atomic units:
                           1         2         3
     Eigenvalues --   647.527381228.684691252.05359
           X            0.99920  -0.02481  -0.03123
           Y            0.02049   0.99107  -0.13179
           Z            0.03422   0.13105   0.99078
 This molecule is an asymmetric top.
 Rotational symmetry number  1.
 Warning -- assumption of classical behavior for rotation
           may cause significant error
 Rotational temperatures (Kelvin)      0.13376     0.07049     0.06918
 Rotational constants (GHZ):           2.78713     1.46884     1.44142
 Zero-point vibrational energy     420160.9 (Joules/Mol)
                                  100.42087 (Kcal/Mol)
 Warning -- explicit consideration of   8 degrees of freedom as
           vibrations may cause significant error
 Vibrational temperatures:    125.06   191.54   312.68   390.05   455.95
          (Kelvin)            514.28   569.89   653.51   899.89   957.69
                             1004.66  1183.86  1213.69  1225.63  1269.93
                             1345.29  1362.22  1378.90  1432.51  1468.85
                             1495.30  1542.82  1595.67  1604.07  1609.60
                             1635.40  1681.11  1696.86  1729.00  1786.24
                             1802.74  1827.04  1840.82  1863.87  1902.30
                             1925.76  1969.08  2099.66  2111.49  2118.85
                             2177.78  4249.09  4287.18  4375.02  4385.87
                             4424.75  4447.86  4461.90  4471.37  4484.00
                             5508.77

 Zero-point correction=                           0.160031 (Hartree/Particle)
 Thermal correction to Energy=                    0.167789
 Thermal correction to Enthalpy=                  0.168733
 Thermal correction to Gibbs Free Energy=         0.127737
 Sum of electronic and zero-point Energies=           -422.969831
 Sum of electronic and thermal Energies=              -422.962073
 Sum of electronic and thermal Enthalpies=            -422.961129
 Sum of electronic and thermal Free Energies=         -423.002125

                     E (Thermal)             CV                S
                      KCal/Mol        Cal/Mol-Kelvin    Cal/Mol-Kelvin
 Total                  105.289             30.343             86.284
 Electronic               0.000              0.000              0.000
 Translational            0.889              2.981             40.409
 Rotational               0.889              2.981             28.390
 Vibrational            103.512             24.381             17.486
 Vibration     1          0.601              1.958              3.728
 Vibration     2          0.613              1.920              2.900
 Vibration     3          0.646              1.815              1.981
 Vibration     4          0.675              1.726              1.589
 Vibration     5          0.704              1.641              1.326
 Vibration     6          0.733              1.560              1.133
 Vibration     7          0.763              1.479              0.977
 Vibration     8          0.813              1.352              0.783

 Optimization completed.
    -- Stationary point found.
 Normal termination of Gaussian 09 at Tue Jan 28 10:05:25 2020.
