 Gaussian 09, Revision D.01,
 Gaussian 09:  ES64L-G09RevD.01 24-Apr-2013

 -----------------------------
 # b3lyp 6-31G(2df,p) opt Freq
 -----------------------------

 -----
 titel
 -----
 Symbolic Z-matrix:
 Charge =  0 Multiplicity = 1

 SCF Done:  E(RB3LYP) =  -423.227126026     A.U. after   14 cycles
 Optimization completed.
    -- Stationary point found.
 Normal termination of Gaussian 09 at Tue Jan 28 00:40:04 2020.

 ----------------------------------------------------------------------
 #N Geom=AllCheck Guess=TCheck SCRF=Check GenChk RB3LYP/6-31G(2df,p) Fr
 eq
 ----------------------------------------------------------------------

 Structure from the checkpoint file:  "/scratch/puck/g09_45f1cebf-692c-4643-b38e-1a63e624d880/Gau-189581.chk"
 -----
 titel
 -----
 Charge =  0 Multiplicity = 1

                         Standard orientation:
 ---------------------------------------------------------------------
 Center     Atomic      Atomic             Coordinates (Angstroms)
 Number     Number       Type             X           Y           Z
 ---------------------------------------------------------------------
      1          6           0        2.672227   -0.717651    0.243255
      2          6           0        1.277650   -0.389811   -0.322216
      3          6           0        0.180453   -0.975138    0.592035
      4          6           0       -1.208841   -0.871137   -0.012443
      5          8           0       -1.800357   -1.809840   -0.472948
      6          8           0       -1.790345    0.352642   -0.054827
      7          6           0       -1.137676    1.506148    0.494564
      8          6           0        0.151135    1.900027   -0.185061
      9          6           0        1.148813    1.095480   -0.547667
     10          1           0        3.460328   -0.339864   -0.415559
     11          1           0        2.812529   -0.261851    1.229407
     12          1           0        2.806478   -1.798809    0.344633
     13          1           0        1.198952   -0.889124   -1.299619
     14          1           0        0.362830   -2.040085    0.744994
     15          1           0        0.222181   -0.484698    1.571134
     16          1           0       -1.872150    2.304084    0.366062
     17          1           0       -1.002486    1.374914    1.576617
     18          1           0        0.239032    2.960953   -0.405211
     19          1           0        1.995353    1.544555   -1.065062
 ---------------------------------------------------------------------

 SCF Done:  E(RB3LYP) =  -423.227126026     A.U. after    1 cycles

 The electronic state is 1-A.
 Alpha  occ. eigenvalues --  -19.17569 -19.11334 -10.30025 -10.25319 -10.21276
 Alpha  occ. eigenvalues --  -10.20049 -10.19924 -10.19705 -10.18941  -1.09094
 Alpha  occ. eigenvalues --   -1.00965  -0.83655  -0.78327  -0.72165  -0.70925
 Alpha  occ. eigenvalues --   -0.63096  -0.56707  -0.54401  -0.51218  -0.50612
 Alpha  occ. eigenvalues --   -0.46668  -0.44818  -0.43017  -0.42683  -0.41379
 Alpha  occ. eigenvalues --   -0.39781  -0.39404  -0.37384  -0.35647  -0.34612
 Alpha  occ. eigenvalues --   -0.33013  -0.28965  -0.26346  -0.25875
 Alpha virt. eigenvalues --   -0.00566   0.01694   0.07773   0.09667   0.10480
 Alpha virt. eigenvalues --    0.13200   0.13563   0.14408   0.15808   0.16096
 Alpha virt. eigenvalues --    0.18409   0.18719   0.19869   0.20526   0.22345

 Mulliken charges:
               1
     1  C   -0.400778
     2  C   -0.029477
     3  C   -0.355089
     4  C    0.410021
     5  O   -0.323864
     6  O   -0.214199
     7  C   -0.137601
     8  C   -0.095601
     9  C   -0.022917
    10  H    0.119861
    11  H    0.121500
    12  H    0.122620
    13  H    0.108658
    14  H    0.129412
    15  H    0.117517
    16  H    0.131148
    17  H    0.123238
    18  H    0.101098
    19  H    0.094455
 Sum of Mulliken charges =   0.00000

 Dipole moment (field-independent basis, Debye):
    X=              3.1594    Y=              2.5075    Z=              1.5176  Tot=              4.3096
 Quadrupole moment (field-independent basis, Debye-Ang):
   XX=            -58.0516   YY=            -53.6627   ZZ=            -52.5025
   XY=             -6.5122   XZ=             -3.8401   YZ=             -1.4003

  Exact polarizability:  85.899  -5.252  87.370  -3.705   2.082  58.650
 Approx polarizability: 119.634  -7.867 130.416  -5.637   9.498  93.236

                      1                      2                      3
                      A                      A                      A
 Frequencies --     63.7902               121.2175               217.3769
 Red. masses --      3.5927                 4.2602                 1.8641
 Frc consts  --      0.0086                 0.0369                 0.0519
 IR Inten    --      1.0687                 2.5621                 1.9378

                      4                      5                      6
                      A                      A                      A
 Frequencies --    242.4824               278.2607               301.9314
 Red. masses --      1.5975                 1.9016                 2.8976
 Frc consts  --      0.0553                 0.0867                 0.1556
 IR Inten    --      1.2442                 0.2856                 1.5984

                      7                      8                      9
                      A                      A                      A
 Frequencies --    341.1526               396.0035               475.7734
 Red. masses --      4.0458                 3.7938                 2.8562
 Frc consts  --      0.2774                 0.3505                 0.3809
 IR Inten    --      0.3779                 1.1882                 1.0076

                     10                     11                     12
                      A                      A                      A
 Frequencies --    542.5726               594.6262               668.3728
 Red. masses --      2.9166                 3.5953                 2.5776
 Frc consts  --      0.5059                 0.7490                 0.6784
 IR Inten    --      4.2708                 4.3648                10.4916

                     13                     14                     15
                      A                      A                      A
 Frequencies --    711.9192               786.0971               833.1985
 Red. masses --      2.1344                 3.2123                 3.0804
 Frc consts  --      0.6374                 1.1696                 1.2600
 IR Inten    --      3.1077                17.5747                10.5410

                     16                     17                     18
                      A                      A                      A
 Frequencies --    849.6110               912.9345               936.0244
 Red. masses --      3.4421                 2.2908                 1.7597
 Frc consts  --      1.4639                 1.1249                 0.9084
 IR Inten    --      1.5992                 2.3028                 5.1355

                     19                     20                     21
                      A                      A                      A
 Frequencies --    980.9819              1008.7511              1031.7208
 Red. masses --      1.8110                 1.2451                 1.8372
 Frc consts  --      1.0268                 0.7465                 1.1522
 IR Inten    --      0.7669                 0.4507                 5.7654

                     22                     23                     24
                      A                      A                      A
 Frequencies --   1046.6391              1090.9133              1097.1887
 Red. masses --      2.2936                 4.3952                 2.4089
 Frc consts  --      1.4803                 3.0818                 1.7086
 IR Inten    --     17.1574                65.6369                 7.9594

                     25                     26                     27
                      A                      A                      A
 Frequencies --   1145.5335              1177.0860              1252.5214
 Red. masses --      1.5013                 2.2361                 1.3094
 Frc consts  --      1.1608                 1.8254                 1.2103
 IR Inten    --     14.3747                81.8981                51.1366

                     28                     29                     30
                      A                      A                      A
 Frequencies --   1273.0710              1291.4657              1305.2748
 Red. masses --      1.1391                 1.2712                 1.4347
 Frc consts  --      1.0877                 1.2492                 1.4402
 IR Inten    --     12.3901                32.9281                30.6153

                     31                     32                     33
                      A                      A                      A
 Frequencies --   1343.2054              1368.5199              1405.1209
 Red. masses --      1.5079                 1.4897                 1.2611
 Frc consts  --      1.6029                 1.6438                 1.4670
 IR Inten    --     25.0215                 7.6717                 0.7599

                     34                     35                     36
                      A                      A                      A
 Frequencies --   1417.9390              1428.9787              1478.5478
 Red. masses --      1.3523                 1.4346                 1.1128
 Frc consts  --      1.6019                 1.7260                 1.4333
 IR Inten    --     24.0377                 1.9430                11.6076

                     37                     38                     39
                      A                      A                      A
 Frequencies --   1496.0560              1499.2880              1506.9681
 Red. masses --      1.0448                 1.0645                 1.0784
 Frc consts  --      1.3778                 1.4098                 1.4430
 IR Inten    --      4.5556                 3.8630                 8.0664

                     40                     41                     42
                      A                      A                      A
 Frequencies --   1731.9285              1842.6816              2993.1340
 Red. masses --      7.3111                11.8829                 1.0812
 Frc consts  --     12.9209                23.7725                 5.7071
 IR Inten    --      4.8464               319.0288                10.8837

                     43                     44                     45
                      A                      A                      A
 Frequencies --   3013.2418              3032.4611              3051.1896
 Red. masses --      1.0710                 1.0348                 1.0643
 Frc consts  --      5.7293                 5.6068                 5.8377
 IR Inten    --     26.9378                22.9631                17.7906

                     46                     47                     48
                      A                      A                      A
 Frequencies --   3101.2223              3103.5649              3109.1150
 Red. masses --      1.0921                 1.1016                 1.1022
 Frc consts  --      6.1881                 6.2516                 6.2772
 IR Inten    --     19.3200                22.9066                17.1740

                     49                     50                     51
                      A                      A                      A
 Frequencies --   3121.9274              3134.0463              3164.0980
 Red. masses --      1.0984                 1.0845                 1.0939
 Frc consts  --      6.3074                 6.2759                 6.4524
 IR Inten    --     15.6345                10.8045                23.6593

 - Thermochemistry -
 -------------------
 Temperature   298.150 Kelvin.  Pressure   1.00000 Atm.
 Atom     1 has atomic number  6 and mass  12.00000

 Molecular mass:   126.06808 amu.
 Principal axes and moments of inertia in atomic units:
                           1         2         3
     Eigenvalues --   789.429491155.737221751.17084
           X            0.99465  -0.10302  -0.00785
           Y            0.10295   0.99464  -0.00960
           Z            0.00879   0.00874   0.99992
 This molecule is an asymmetric top.
 Rotational symmetry number  1.
 Warning -- assumption of classical behavior for rotation
           may cause significant error
 Rotational temperatures (Kelvin)      0.10972     0.07494     0.04946
 Rotational constants (GHZ):           2.28613     1.56155     1.03059
 Zero-point vibrational energy     420593.4 (Joules/Mol)
                                  100.52424 (Kcal/Mol)
 Warning -- explicit consideration of  11 degrees of freedom as
           vibrations may cause significant error
 Vibrational temperatures:     91.78   174.40   312.76   348.88   400.35
          (Kelvin)            434.41   490.84   569.76   684.53   780.64
                              855.53   961.64  1024.29  1131.02  1198.79
                             1222.40  1313.51  1346.73  1411.41  1451.37
                             1484.41  1505.88  1569.58  1578.61  1648.17
                             1693.56  1802.10  1831.66  1858.13  1878.00
                             1932.57  1968.99  2021.65  2040.10  2055.98
                             2127.30  2152.49  2157.14  2168.19  2491.86
                             2651.20  4306.45  4335.38  4363.03  4389.98
                             4461.96  4465.33  4473.32  4491.75  4509.19
                             4552.43

 Zero-point correction=                           0.160196 (Hartree/Particle)
 Thermal correction to Energy=                    0.168599
 Thermal correction to Enthalpy=                  0.169544
 Thermal correction to Gibbs Free Energy=         0.126957
 Sum of electronic and zero-point Energies=           -423.066930
 Sum of electronic and thermal Energies=              -423.058527
 Sum of electronic and thermal Enthalpies=            -423.057582
 Sum of electronic and thermal Free Energies=         -423.100170

                     E (Thermal)             CV                S
                      KCal/Mol        Cal/Mol-Kelvin    Cal/Mol-Kelvin
 Total                  105.798             31.901             89.632
 Electronic               0.000              0.000              0.000
 Translational            0.889              2.981             40.409
 Rotational               0.889              2.981             28.859
 Vibrational            104.020             25.939             20.364
 Vibration     1          0.597              1.972              4.336
 Vibration     2          0.609              1.931              3.081
 Vibration     3          0.646              1.815              1.981
 Vibration     4          0.659              1.775              1.785
 Vibration     5          0.679              1.714              1.544
 Vibration     6          0.694              1.670              1.406
 Vibration     7          0.721              1.593              1.207
 Vibration     8          0.763              1.479              0.977
 Vibration     9          0.832              1.304              0.722
 Vibration    10          0.898              1.156              0.560
 Vibration    11          0.952              1.043              0.459

 Normal termination of Gaussian 09 at Tue Jan 28 01:22:19 2020.
