 Gaussian 09, Revision D.01,
 Gaussian 09:  ES64L-G09RevD.01 24-Apr-2013

 -----------------------------
 # b3lyp 6-31G(2df,p) opt Freq
 -----------------------------

 -----
 titel
 -----
 Symbolic Z-matrix:
 Charge =  0 Multiplicity = 1

 SCF Done:  E(RB3LYP) =  -423.181892229     A.U. after   14 cycles
 Optimization completed.
    -- Stationary point found.
 Normal termination of Gaussian 09 at Tue Jan 28 12:40:27 2020.

 ----------------------------------------------------------------------
 #N Geom=AllCheck Guess=TCheck SCRF=Check GenChk RB3LYP/6-31G(2df,p) Fr
 eq
 ----------------------------------------------------------------------

 Structure from the checkpoint file:  "/scratch/puck/g09_4bfd647f-79ca-481a-a316-a86c5cc20923/Gau-29040.chk"
 -----
 titel
 -----
 Charge =  0 Multiplicity = 1

                         Standard orientation:
 ---------------------------------------------------------------------
 Center     Atomic      Atomic             Coordinates (Angstroms)
 Number     Number       Type             X           Y           Z
 ---------------------------------------------------------------------
      1          6           0        3.069669   -0.172393    0.400136
      2          6           0        2.032137    0.059046   -0.713334
      3          6           0        0.649112    0.282703   -0.192233
      4          6           0       -0.171344    1.332428   -0.306318
      5          6           0       -1.492050    0.861699    0.287148
      6          8           0       -2.086471   -0.048303   -0.675795
      7          6           0       -1.269496   -1.218645   -0.575494
      8          6           0       -0.213932   -0.781043    0.492409
      9          8           0       -1.077729    0.006374    1.330072
     10          1           0        4.062925   -0.341008   -0.026522
     11          1           0        3.125116    0.693852    1.065810
     12          1           0        2.815807   -1.045025    1.010316
     13          1           0        2.331212    0.917957   -1.323909
     14          1           0        2.033177   -0.811114   -1.385185
     15          1           0       -0.011613    2.262328   -0.834786
     16          1           0       -2.239897    1.581997    0.610858
     17          1           0       -1.871952   -2.057809   -0.212229
     18          1           0       -0.827358   -1.470911   -1.545122
     19          1           0        0.271604   -1.577604    1.052663
 ---------------------------------------------------------------------

 SCF Done:  E(RB3LYP) =  -423.181892229     A.U. after    1 cycles

 The electronic state is 1-A.
 Alpha  occ. eigenvalues --  -19.14487 -19.13583 -10.27590 -10.24201 -10.22918
 Alpha  occ. eigenvalues --  -10.19745 -10.19249 -10.18353 -10.17898  -1.09227
 Alpha  occ. eigenvalues --   -0.98373  -0.81738  -0.75707  -0.75012  -0.64311
 Alpha  occ. eigenvalues --   -0.61902  -0.59854  -0.54637  -0.52133  -0.48951
 Alpha  occ. eigenvalues --   -0.45362  -0.44720  -0.43488  -0.42930  -0.39824
 Alpha  occ. eigenvalues --   -0.38476  -0.37556  -0.36489  -0.35736  -0.33625
 Alpha  occ. eigenvalues --   -0.32386  -0.27936  -0.25999  -0.23562
 Alpha virt. eigenvalues --    0.00596   0.08681   0.10844   0.11629   0.12729
 Alpha virt. eigenvalues --    0.13431   0.13941   0.15586   0.16280   0.16597
 Alpha virt. eigenvalues --    0.17233   0.18423   0.19164   0.20733   0.22339

 Mulliken charges:
               1
     1  C   -0.373616
     2  C   -0.311753
     3  C    0.360494
     4  C   -0.224775
     5  C    0.139265
     6  O   -0.276350
     7  C   -0.082450
     8  C   -0.087606
     9  O   -0.229790
    10  H    0.116673
    11  H    0.128188
    12  H    0.120314
    13  H    0.110342
    14  H    0.108519
    15  H    0.107616
    16  H    0.093394
    17  H    0.109193
    18  H    0.102226
    19  H    0.090117
 Sum of Mulliken charges =   0.00000

 Dipole moment (field-independent basis, Debye):
    X=              2.0813    Y=             -0.3510    Z=             -0.7120  Tot=              2.2276
 Quadrupole moment (field-independent basis, Debye-Ang):
   XX=            -55.2426   YY=            -48.1361   ZZ=            -56.4777
   XY=             -1.3381   XZ=             -1.3808   YZ=             -0.2506

  Exact polarizability:  88.172  -4.798  77.729  -1.587  -0.935  61.084
 Approx polarizability: 119.195 -14.240 122.721  -1.242  -1.873  95.354

                      1                      2                      3
                      A                      A                      A
 Frequencies --     74.6209               127.7030               194.5234
 Red. masses --      2.4156                 3.3147                 1.4188
 Frc consts  --      0.0079                 0.0318                 0.0316
 IR Inten    --      0.0678                 0.2147                 0.1483

                      4                      5                      6
                      A                      A                      A
 Frequencies --    259.9488               281.4195               374.5068
 Red. masses --      2.0347                 2.4280                 2.2910
 Frc consts  --      0.0810                 0.1133                 0.1893
 IR Inten    --      0.2646                 3.4355                 0.8481

                      7                      8                      9
                      A                      A                      A
 Frequencies --    484.7456               562.8636               592.6476
 Red. masses --      3.3289                 4.2671                 3.6944
 Frc consts  --      0.4609                 0.7965                 0.7645
 IR Inten    --      6.1023                 1.9642                 1.9887

                     10                     11                     12
                      A                      A                      A
 Frequencies --    671.7115               745.0351               786.2225
 Red. masses --      6.1073                 2.9894                 1.5372
 Frc consts  --      1.6236                 0.9777                 0.5599
 IR Inten    --     12.0483                 2.3453                 1.4703

                     13                     14                     15
                      A                      A                      A
 Frequencies --    821.3060               835.9506               851.3764
 Red. masses --      1.9043                 3.9797                 3.9508
 Frc consts  --      0.7568                 1.6386                 1.6872
 IR Inten    --     14.6630                88.1294                 3.4957

                     16                     17                     18
                      A                      A                      A
 Frequencies --    876.0472               891.7256               941.2824
 Red. masses --      2.8208                 2.8271                 1.9032
 Frc consts  --      1.2755                 1.3245                 0.9935
 IR Inten    --     44.6118                17.2550                19.0372

                     19                     20                     21
                      A                      A                      A
 Frequencies --    954.3775               981.4250              1028.1685
 Red. masses --      2.2644                 5.4731                 2.7214
 Frc consts  --      1.2152                 3.1060                 1.6950
 IR Inten    --      4.1455                39.6999                 8.2729

                     22                     23                     24
                      A                      A                      A
 Frequencies --   1051.8705              1056.7906              1077.6018
 Red. masses --      1.9221                 3.1917                 2.5244
 Frc consts  --      1.2530                 2.1002                 1.7272
 IR Inten    --      0.8852                15.7079                22.3271

                     25                     26                     27
                      A                      A                      A
 Frequencies --   1092.3906              1186.3882              1206.7369
 Red. masses --      1.6384                 1.1977                 1.8563
 Frc consts  --      1.1519                 0.9933                 1.5927
 IR Inten    --      1.4732                 4.9334                10.8726

                     28                     29                     30
                      A                      A                      A
 Frequencies --   1237.7511              1243.0554              1274.5360
 Red. masses --      1.4193                 1.3895                 1.3186
 Frc consts  --      1.2811                 1.2650                 1.2620
 IR Inten    --      1.7724                 0.3105                 1.1529

                     31                     32                     33
                      A                      A                      A
 Frequencies --   1290.4524              1329.5447              1343.3118
 Red. masses --      1.1998                 1.5403                 1.6785
 Frc consts  --      1.1772                 1.6042                 1.7845
 IR Inten    --      6.9072                27.3143                 3.3927

                     34                     35                     36
                      A                      A                      A
 Frequencies --   1354.7661              1355.7463              1412.1167
 Red. masses --      1.4105                 1.5972                 1.2190
 Frc consts  --      1.5252                 1.7296                 1.4321
 IR Inten    --      4.8775                 5.8204                 0.8580

                     37                     38                     39
                      A                      A                      A
 Frequencies --   1477.6466              1498.3015              1505.6680
 Red. masses --      1.0719                 1.0396                 1.0650
 Frc consts  --      1.3789                 1.3751                 1.4225
 IR Inten    --      2.8390                 5.0851                 2.6588

                     40                     41                     42
                      A                      A                      A
 Frequencies --   1514.9048              1686.6690              3008.2118
 Red. masses --      1.0889                 7.5757                 1.0663
 Frc consts  --      1.4724                12.6980                 5.6852
 IR Inten    --      0.7051                 7.0448                20.1893

                     43                     44                     45
                      A                      A                      A
 Frequencies --   3034.9934              3039.7592              3064.2447
 Red. masses --      1.0548                 1.0348                 1.0943
 Frc consts  --      5.7247                 5.6334                 6.0539
 IR Inten    --     47.9451                25.0668                13.1782

                     46                     47                     48
                      A                      A                      A
 Frequencies --   3082.8969              3109.3433              3116.1553
 Red. masses --      1.1115                 1.1013                 1.1026
 Frc consts  --      6.2240                 6.2733                 6.3085
 IR Inten    --     32.5393                36.6990                24.6622

                     49                     50                     51
                      A                      A                      A
 Frequencies --   3144.9825              3158.3009              3227.4504
 Red. masses --      1.0899                 1.0937                 1.0975
 Frc consts  --      6.3515                 6.4278                 6.7359
 IR Inten    --     30.8225                26.3982                 4.9011

 - Thermochemistry -
 -------------------
 Temperature   298.150 Kelvin.  Pressure   1.00000 Atm.
 Atom     1 has atomic number  6 and mass  12.00000

 Molecular mass:   126.06808 amu.
 Principal axes and moments of inertia in atomic units:
                           1         2         3
     Eigenvalues --   500.474181496.833581543.30467
           X            0.99999  -0.00258   0.00225
           Y            0.00262   0.99981  -0.01912
           Z           -0.00220   0.01913   0.99981
 This molecule is an asymmetric top.
 Rotational symmetry number  1.
 Warning -- assumption of classical behavior for rotation
           may cause significant error
 Rotational temperatures (Kelvin)      0.17306     0.05786     0.05612
 Rotational constants (GHZ):           3.60606     1.20571     1.16940
 Zero-point vibrational energy     421804.4 (Joules/Mol)
                                  100.81368 (Kcal/Mol)
 Warning -- explicit consideration of   9 degrees of freedom as
           vibrations may cause significant error
 Vibrational temperatures:    107.36   183.74   279.88   374.01   404.90
          (Kelvin)            538.83   697.44   809.83   852.69   966.44
                             1071.94  1131.20  1181.67  1202.75  1224.94
                             1260.43  1282.99  1354.29  1373.13  1412.05
                             1479.30  1513.41  1520.48  1550.43  1571.70
                             1706.95  1736.22  1780.85  1788.48  1833.77
                             1856.67  1912.92  1932.72  1949.20  1950.61
                             2031.72  2126.00  2155.72  2166.32  2179.61
                             2426.74  4328.14  4366.67  4373.53  4408.76
                             4435.60  4473.65  4483.45  4524.92  4544.08
                             4643.58

 Zero-point correction=                           0.160657 (Hartree/Particle)
 Thermal correction to Energy=                    0.168411
 Thermal correction to Enthalpy=                  0.169355
 Thermal correction to Gibbs Free Energy=         0.128118
 Sum of electronic and zero-point Energies=           -423.021235
 Sum of electronic and thermal Energies=              -423.013482
 Sum of electronic and thermal Enthalpies=            -423.012537
 Sum of electronic and thermal Free Energies=         -423.053775

                     E (Thermal)             CV                S
                      KCal/Mol        Cal/Mol-Kelvin    Cal/Mol-Kelvin
 Total                  105.679             30.139             86.791
 Electronic               0.000              0.000              0.000
 Translational            0.889              2.981             40.409
 Rotational               0.889              2.981             28.538
 Vibrational            103.902             24.178             17.844
 Vibration     1          0.599              1.966              4.028
 Vibration     2          0.611              1.925              2.980
 Vibration     3          0.635              1.847              2.184
 Vibration     4          0.668              1.746              1.662
 Vibration     5          0.681              1.708              1.525
 Vibration     6          0.746              1.524              1.061
 Vibration     7          0.841              1.284              0.697
 Vibration     8          0.919              1.112              0.518
 Vibration     9          0.950              1.047              0.462

 Optimization completed.
    -- Stationary point found.
 Normal termination of Gaussian 09 at Tue Jan 28 13:23:26 2020.
