 Gaussian 09, Revision D.01,
 Gaussian 09:  ES64L-G09RevD.01 24-Apr-2013

 -----------------------------
 # b3lyp 6-31G(2df,p) opt Freq
 -----------------------------

 -----
 titel
 -----
 Symbolic Z-matrix:
 Charge =  0 Multiplicity = 1

 SCF Done:  E(RB3LYP) =  -423.122583291     A.U. after   14 cycles
 Optimization completed.
    -- Stationary point found.
 Normal termination of Gaussian 09 at Tue Jan 28 08:57:50 2020.

 ----------------------------------------------------------------------
 #N Geom=AllCheck Guess=TCheck SCRF=Check GenChk RB3LYP/6-31G(2df,p) Fr
 eq
 ----------------------------------------------------------------------

 Structure from the checkpoint file:  "/scratch/puck/g09_89895e5d-b632-4ce8-a8ca-e8b4bffb8201/Gau-93549.chk"
 -----
 titel
 -----
 Charge =  0 Multiplicity = 1

                         Standard orientation:
 ---------------------------------------------------------------------
 Center     Atomic      Atomic             Coordinates (Angstroms)
 Number     Number       Type             X           Y           Z
 ---------------------------------------------------------------------
      1          6           0        2.949222   -0.404814   -0.119243
      2          6           0        1.617073   -0.173615   -0.841030
      3          6           0        0.406803   -0.113763    0.093431
      4          8           0        0.210280   -1.305453    0.808067
      5          6           0        0.262461    1.211400    0.887329
      6          8           0       -0.772729    1.673179   -0.004848
      7          6           0       -0.890117    0.371075   -0.634350
      8          6           0       -2.128641   -0.318525   -0.318571
      9          6           0       -3.167217   -0.874419   -0.081566
     10          1           0        3.142620    0.368669    0.632105
     11          1           0        2.981485   -1.379703    0.381393
     12          1           0        3.780983   -0.390225   -0.828916
     13          1           0        1.663238    0.766356   -1.403249
     14          1           0        1.445126   -0.974370   -1.570726
     15          1           0        1.042426   -1.553319    1.223739
     16          1           0       -0.111901    1.054737    1.906349
     17          1           0        1.120033    1.893672    0.903766
     18          1           0       -0.781565    0.459040   -1.723013
     19          1           0       -4.080359   -1.370698    0.136788
 ---------------------------------------------------------------------

 SCF Done:  E(RB3LYP) =  -423.122583291     A.U. after    1 cycles

 The electronic state is 1-A.
 Alpha  occ. eigenvalues --  -19.14736 -19.13833 -10.25252 -10.24974 -10.22661
 Alpha  occ. eigenvalues --  -10.19490 -10.19326 -10.17696 -10.17299  -1.05248
 Alpha  occ. eigenvalues --   -1.02342  -0.79299  -0.76434  -0.71708  -0.69331
 Alpha  occ. eigenvalues --   -0.63592  -0.57634  -0.53957  -0.50754  -0.49502
 Alpha  occ. eigenvalues --   -0.47916  -0.46474  -0.44854  -0.41412  -0.39960
 Alpha  occ. eigenvalues --   -0.39115  -0.37240  -0.35865  -0.33874  -0.32174
 Alpha  occ. eigenvalues --   -0.28032  -0.26619  -0.26059  -0.25226
 Alpha virt. eigenvalues --    0.02357   0.04834   0.06540   0.10532   0.11864
 Alpha virt. eigenvalues --    0.12662   0.12837   0.13187   0.13795   0.15910
 Alpha virt. eigenvalues --    0.16869   0.17908   0.18927   0.19667   0.21574

 Mulliken charges:
               1
     1  C   -0.416244
     2  C   -0.229274
     3  C    0.356269
     4  O   -0.465248
     5  C   -0.126641
     6  O   -0.274055
     7  C   -0.170981
     8  C    0.394318
     9  C   -0.449662
    10  H    0.125267
    11  H    0.114176
    12  H    0.129083
    13  H    0.115083
    14  H    0.110947
    15  H    0.282936
    16  H    0.107701
    17  H    0.097406
    18  H    0.101101
    19  H    0.197819
 Sum of Mulliken charges =   0.00000

 Dipole moment (field-independent basis, Debye):
    X=              2.6326    Y=             -0.9861    Z=              0.1295  Tot=              2.8142
 Quadrupole moment (field-independent basis, Debye-Ang):
   XX=            -47.6843   YY=            -56.7012   ZZ=            -51.1157
   XY=              2.4714   XZ=              0.6646   YZ=             -0.1505

  Exact polarizability: 101.092  10.441  68.058  -0.850  -0.166  64.423
 Approx polarizability: 135.277  20.805 106.407  -3.505  -4.111  95.986

                      1                      2                      3
                      A                      A                      A
 Frequencies --     50.5145               107.8597               137.3199
 Red. masses --      3.7410                 2.4113                 2.9812
 Frc consts  --      0.0056                 0.0165                 0.0331
 IR Inten    --      0.4903                 2.5884                 1.5440

                      4                      5                      6
                      A                      A                      A
 Frequencies --    165.8737               193.5441               219.5329
 Red. masses --      2.2488                 1.2745                 1.7347
 Frc consts  --      0.0365                 0.0281                 0.0493
 IR Inten    --     29.2634                64.7813                 7.9183

                      7                      8                      9
                      A                      A                      A
 Frequencies --    258.7223               320.6292               358.1924
 Red. masses --      2.1049                 3.7614                 2.3156
 Frc consts  --      0.0830                 0.2278                 0.1750
 IR Inten    --      2.4632                 1.4746                 0.1172

                     10                     11                     12
                      A                      A                      A
 Frequencies --    384.7065               425.9455               529.8810
 Red. masses --      4.4412                 3.5176                 6.9962
 Frc consts  --      0.3873                 0.3760                 1.1574
 IR Inten    --      0.4374                 8.3768                 6.2670

                     13                     14                     15
                      A                      A                      A
 Frequencies --    599.8505               624.4083               669.3401
 Red. masses --      4.0746                 1.2439                 2.0714
 Frc consts  --      0.8638                 0.2857                 0.5468
 IR Inten    --      5.5519                46.5719                10.9388

                     16                     17                     18
                      A                      A                      A
 Frequencies --    674.2024               791.3943               856.7486
 Red. masses --      1.6904                 1.2356                 2.8060
 Frc consts  --      0.4527                 0.4559                 1.2135
 IR Inten    --     24.7199                 1.8110                19.4748

                     19                     20                     21
                      A                      A                      A
 Frequencies --    890.9755               927.4352               972.3737
 Red. masses --      2.3450                 3.1581                 2.5982
 Frc consts  --      1.0968                 1.6005                 1.4474
 IR Inten    --      5.9091                10.5319                21.3441

                     22                     23                     24
                      A                      A                      A
 Frequencies --   1003.5457              1015.6897              1036.2931
 Red. masses --      2.0795                 7.5951                 2.0655
 Frc consts  --      1.2339                 4.6164                 1.3069
 IR Inten    --      3.2372                92.3275                21.0491

                     25                     26                     27
                      A                      A                      A
 Frequencies --   1070.0893              1102.7097              1158.0384
 Red. masses --      2.8361                 1.9940                 1.3615
 Frc consts  --      1.9135                 1.4286                 1.0758
 IR Inten    --     37.1813                33.7098                 0.7214

                     28                     29                     30
                      A                      A                      A
 Frequencies --   1185.8705              1214.9306              1267.2072
 Red. masses --      1.8983                 1.9120                 1.6591
 Frc consts  --      1.5728                 1.6628                 1.5697
 IR Inten    --      7.6219                49.3830                 5.4986

                     31                     32                     33
                      A                      A                      A
 Frequencies --   1300.8410              1314.3302              1357.1425
 Red. masses --      1.3260                 1.3191                 1.4165
 Frc consts  --      1.3220                 1.3426                 1.5372
 IR Inten    --     52.9884                 7.6726                 9.4154

                     34                     35                     36
                      A                      A                      A
 Frequencies --   1361.7613              1394.8043              1415.3963
 Red. masses --      1.4419                 1.7705                 1.2872
 Frc consts  --      1.5754                 2.0295                 1.5193
 IR Inten    --      5.6698                 8.4257                 3.7105

                     37                     38                     39
                      A                      A                      A
 Frequencies --   1478.0736              1500.0335              1509.5905
 Red. masses --      1.0753                 1.0602                 1.0472
 Frc consts  --      1.3841                 1.4055                 1.4060
 IR Inten    --      1.8122                 5.6023                 4.3670

                     40                     41                     42
                      A                      A                      A
 Frequencies --   1512.5826              2236.7596              3016.0304
 Red. masses --      1.0956                 5.9235                 1.0613
 Frc consts  --      1.4769                17.4610                 5.6882
 IR Inten    --      2.8079                 3.0163                63.2371

                     43                     44                     45
                      A                      A                      A
 Frequencies --   3021.3657              3028.3316              3032.5231
 Red. masses --      1.0736                 1.0430                 1.0583
 Frc consts  --      5.7741                 5.6357                 5.7340
 IR Inten    --      7.7458                15.5867                31.7683

                     46                     47                     48
                      A                      A                      A
 Frequencies --   3067.3117              3071.3203              3094.8100
 Red. masses --      1.1021                 1.1100                 1.1008
 Frc consts  --      6.1092                 6.1690                 6.2121
 IR Inten    --      6.8317                30.1515                48.1608

                     49                     50                     51
                      A                      A                      A
 Frequencies --   3111.1345              3503.4075              3818.0304
 Red. masses --      1.0998                 1.1624                 1.0656
 Frc consts  --      6.2717                 8.4057                 9.1519
 IR Inten    --     23.2739                61.7975                18.4105

 - Thermochemistry -
 -------------------
 Temperature   298.150 Kelvin.  Pressure   1.00000 Atm.
 Atom     1 has atomic number  6 and mass  12.00000

 Molecular mass:   126.06808 amu.
 Principal axes and moments of inertia in atomic units:
                           1         2         3
     Eigenvalues --   595.239221570.293001812.23985
           X            0.99998   0.00360  -0.00512
           Y           -0.00350   0.99981   0.01935
           Z            0.00519  -0.01933   0.99980
 This molecule is an asymmetric top.
 Rotational symmetry number  1.
 Warning -- assumption of classical behavior for rotation
           may cause significant error
 Rotational temperatures (Kelvin)      0.14551     0.05516     0.04779
 Rotational constants (GHZ):           3.03196     1.14930     0.99586
 Zero-point vibrational energy     408880.0 (Joules/Mol)
                                   97.72467 (Kcal/Mol)
 Warning -- explicit consideration of  13 degrees of freedom as
           vibrations may cause significant error
 Vibrational temperatures:     72.68   155.19   197.57   238.65   278.47
          (Kelvin)            315.86   372.24   461.31   515.36   553.51
                              612.84   762.38   863.05   898.38   963.03
                              970.03  1138.64  1232.67  1281.91  1334.37
                             1399.03  1443.88  1461.35  1490.99  1539.62
                             1586.55  1666.16  1706.20  1748.01  1823.23
                             1871.62  1891.03  1952.62  1959.27  2006.81
                             2036.44  2126.62  2158.21  2171.96  2176.27
                             3218.19  4339.39  4347.07  4357.09  4363.12
                             4413.17  4418.94  4452.74  4476.22  5040.62
                             5493.29

 Zero-point correction=                           0.155734 (Hartree/Particle)
 Thermal correction to Energy=                    0.165679
 Thermal correction to Enthalpy=                  0.166624
 Thermal correction to Gibbs Free Energy=         0.120760
 Sum of electronic and zero-point Energies=           -422.966849
 Sum of electronic and thermal Energies=              -422.956904
 Sum of electronic and thermal Enthalpies=            -422.955960
 Sum of electronic and thermal Free Energies=         -423.001823

                     E (Thermal)             CV                S
                      KCal/Mol        Cal/Mol-Kelvin    Cal/Mol-Kelvin
 Total                  103.965             36.287             96.528
 Electronic               0.000              0.000              0.000
 Translational            0.889              2.981             40.409
 Rotational               0.889              2.981             28.917
 Vibrational            102.188             30.326             27.202
 Vibration     1          0.595              1.977              4.797
 Vibration     2          0.606              1.943              3.307
 Vibration     3          0.614              1.916              2.841
 Vibration     4          0.624              1.884              2.482
 Vibration     5          0.635              1.849              2.194
 Vibration     6          0.647              1.811              1.963
 Vibration     7          0.668              1.748              1.670
 Vibration     8          0.706              1.634              1.307
 Vibration     9          0.733              1.558              1.130
 Vibration    10          0.754              1.503              1.021
 Vibration    11          0.788              1.414              0.872
 Vibration    12          0.885              1.184              0.587
 Vibration    13          0.958              1.032              0.450

 Normal termination of Gaussian 09 at Tue Jan 28 09:38:10 2020.
