 Gaussian 09, Revision D.01,
 Gaussian 09:  ES64L-G09RevD.01 24-Apr-2013

 -----------------------------
 # b3lyp 6-31G(2df,p) opt Freq
 -----------------------------

 -----
 titel
 -----
 Symbolic Z-matrix:
 Charge =  0 Multiplicity = 1

 SCF Done:  E(RB3LYP) =  -423.215858763     A.U. after   14 cycles
 Optimization completed.
    -- Stationary point found.
 Normal termination of Gaussian 09 at Mon Jan 27 14:01:50 2020.

 ----------------------------------------------------------------------
 #N Geom=AllCheck Guess=TCheck SCRF=Check GenChk RB3LYP/6-31G(2df,p) Fr
 eq
 ----------------------------------------------------------------------

 Structure from the checkpoint file:  "/scratch/puck/g09_f31c24b2-a257-4856-86c4-3dc0187f5eeb/Gau-76782.chk"
 -----
 titel
 -----
 Charge =  0 Multiplicity = 1

                         Standard orientation:
 ---------------------------------------------------------------------
 Center     Atomic      Atomic             Coordinates (Angstroms)
 Number     Number       Type             X           Y           Z
 ---------------------------------------------------------------------
      1          6           0       -2.624018    0.448326    0.000195
      2          6           0       -1.393805   -0.429340    0.000121
      3          8           0       -1.454632   -1.638625    0.000507
      4          6           0       -0.020129    0.255305   -0.000320
      5          8           0       -0.229811    1.663527   -0.001494
      6          6           0        0.842735   -0.168080    1.226294
      7          6           0        2.246013   -0.182828    0.666782
      8          6           0        2.246197   -0.183961   -0.666051
      9          6           0        0.843048   -0.170126   -1.225953
     10          1           0       -3.516129   -0.178466    0.000430
     11          1           0       -2.615680    1.108252    0.873345
     12          1           0       -2.615965    1.108121   -0.873041
     13          1           0        0.638809    2.080828   -0.001469
     14          1           0        0.692490    0.535618    2.052066
     15          1           0        0.552338   -1.164563    1.579839
     16          1           0        3.126657   -0.233738    1.297160
     17          1           0        3.127019   -0.235873   -1.296098
     18          1           0        0.693008    0.532087   -2.053013
     19          1           0        0.552748   -1.167262   -1.577730
 ---------------------------------------------------------------------

 SCF Done:  E(RB3LYP) =  -423.215858763     A.U. after    1 cycles

 The electronic state is 1-A.
 Alpha  occ. eigenvalues --  -19.14449 -19.12627 -10.26602 -10.24489 -10.18893
 Alpha  occ. eigenvalues --  -10.18891 -10.18830 -10.18743 -10.18029  -1.04214
 Alpha  occ. eigenvalues --   -1.02607  -0.84029  -0.74843  -0.71531  -0.70724
 Alpha  occ. eigenvalues --   -0.61047  -0.54382  -0.52707  -0.51410  -0.48063
 Alpha  occ. eigenvalues --   -0.45534  -0.43688  -0.42148  -0.42007  -0.41137
 Alpha  occ. eigenvalues --   -0.38716  -0.37676  -0.36719  -0.35692  -0.34390
 Alpha  occ. eigenvalues --   -0.33886  -0.27274  -0.25495  -0.24006
 Alpha virt. eigenvalues --   -0.01429   0.01740   0.07945   0.11323   0.12304
 Alpha virt. eigenvalues --    0.13290   0.15211   0.15245   0.16105   0.16347
 Alpha virt. eigenvalues --    0.17513   0.18033   0.18665   0.22355   0.22957

 Mulliken charges:
               1
     1  C   -0.473261
     2  C    0.353223
     3  O   -0.320549
     4  C    0.271086
     5  O   -0.483091
     6  C   -0.292008
     7  C   -0.079198
     8  C   -0.079194
     9  C   -0.291980
    10  H    0.131464
    11  H    0.148952
    12  H    0.148983
    13  H    0.283712
    14  H    0.108816
    15  H    0.134717
    16  H    0.097387
    17  H    0.097391
    18  H    0.108815
    19  H    0.134735
 Sum of Mulliken charges =   0.00000

 Dipole moment (field-independent basis, Debye):
    X=              1.5865    Y=              1.9161    Z=              0.0004  Tot=              2.4877
 Quadrupole moment (field-independent basis, Debye-Ang):
   XX=            -50.2573   YY=            -58.1420   ZZ=            -50.3157
   XY=             -1.5472   XZ=             -0.0010   YZ=              0.0049

  Exact polarizability:  88.228  -1.209  66.183  -0.002   0.013  74.727
 Approx polarizability: 110.968   0.531 110.308  -0.003   0.023 121.590

                      1                      2                      3
                      A                      A                      A
 Frequencies --     20.1379               101.7584               162.5008
 Red. masses --      3.9781                 3.0867                 1.0271
 Frc consts  --      0.0010                 0.0188                 0.0160
 IR Inten    --      4.2916                 1.7230                 0.3955

                      4                      5                      6
                      A                      A                      A
 Frequencies --    207.5347               270.9146               343.2493
 Red. masses --      3.6181                 4.0102                 1.2538
 Frc consts  --      0.0918                 0.1734                 0.0870
 IR Inten    --      0.3609                11.5643                37.4198

                      7                      8                      9
                      A                      A                      A
 Frequencies --    346.4287               376.0775               384.0558
 Red. masses --      3.4971                 2.5327                 1.9157
 Frc consts  --      0.2473                 0.2110                 0.1665
 IR Inten    --      0.8305                 1.0330                33.8461

                     10                     11                     12
                      A                      A                      A
 Frequencies --    446.8411               527.5685               594.6123
 Red. masses --      2.5862                 4.3634                 2.4222
 Frc consts  --      0.3042                 0.7155                 0.5046
 IR Inten    --      8.3820                 3.2990                 0.2884

                     13                     14                     15
                      A                      A                      A
 Frequencies --    602.0218               700.8386               778.9594
 Red. masses --      3.5436                 1.2723                 3.3339
 Frc consts  --      0.7567                 0.3682                 1.1919
 IR Inten    --     20.0902                24.3419                 2.0737

                     16                     17                     18
                      A                      A                      A
 Frequencies --    789.8422               899.2679               908.1824
 Red. masses --      5.5944                 2.8871                 1.9821
 Frc consts  --      2.0563                 1.3756                 0.9632
 IR Inten    --      1.4402                23.8506                 2.7731

                     19                     20                     21
                      A                      A                      A
 Frequencies --    943.9833               948.9253               972.2011
 Red. masses --      2.3110                 1.7979                 1.2728
 Frc consts  --      1.2133                 0.9538                 0.7088
 IR Inten    --     34.0719                12.4666                 0.0199

                     22                     23                     24
                      A                      A                      A
 Frequencies --    978.3936              1008.4997              1016.9830
 Red. masses --      2.8119                 1.7463                 1.9423
 Frc consts  --      1.5859                 1.0465                 1.1836
 IR Inten    --      0.0556                10.4711                 0.0427

                     25                     26                     27
                      A                      A                      A
 Frequencies --   1102.3989              1104.2860              1128.2020
 Red. masses --      1.9727                 2.8526                 1.1047
 Frc consts  --      1.4125                 2.0495                 0.8284
 IR Inten    --     14.2116                 0.3627                 1.8106

                     28                     29                     30
                      A                      A                      A
 Frequencies --   1182.2280              1201.3752              1238.4765
 Red. masses --      1.2492                 2.0348                 1.6446
 Frc consts  --      1.0287                 1.7303                 1.4863
 IR Inten    --      4.2812               138.5484                67.7489

                     31                     32                     33
                      A                      A                      A
 Frequencies --   1283.5551              1310.4647              1357.0433
 Red. masses --      1.4795                 1.6726                 1.6499
 Frc consts  --      1.4362                 1.6924                 1.7902
 IR Inten    --      8.6777                 4.8736                 1.3552

                     34                     35                     36
                      A                      A                      A
 Frequencies --   1377.5891              1397.6340              1454.8510
 Red. masses --      1.2916                 1.9374                 1.0649
 Frc consts  --      1.4442                 2.2297                 1.3280
 IR Inten    --     41.9187                34.5625                10.4740

                     37                     38                     39
                      A                      A                      A
 Frequencies --   1463.6132              1466.5395              1472.5290
 Red. masses --      1.0505                 1.0855                 1.1064
 Frc consts  --      1.3259                 1.3756                 1.4135
 IR Inten    --      7.7466                 4.0287                 3.4433

                     40                     41                     42
                      A                      A                      A
 Frequencies --   1679.5701              1805.0506              3035.9414
 Red. masses --      5.9756                11.1138                 1.0585
 Frc consts  --      9.9318                21.3349                 5.7481
 IR Inten    --      3.9831               113.9126                32.5125

                     43                     44                     45
                      A                      A                      A
 Frequencies --   3037.5590              3048.7929              3078.5859
 Red. masses --      1.0592                 1.0348                 1.1037
 Frc consts  --      5.7578                 5.6673                 6.1631
 IR Inten    --      1.6081                 1.2376                16.3375

                     46                     47                     48
                      A                      A                      A
 Frequencies --   3078.7504              3111.0163              3158.7721
 Red. masses --      1.1031                 1.0968                 1.1051
 Frc consts  --      6.1605                 6.2543                 6.4964
 IR Inten    --      8.2622                 3.4442                11.9317

                     49                     50                     51
                      A                      A                      A
 Frequencies --   3185.0227              3209.9020              3802.7037
 Red. masses --      1.0845                 1.1043                 1.0661
 Frc consts  --      6.4822                 6.7038                 9.0828
 IR Inten    --      4.5243                22.2929                17.0399

 - Thermochemistry -
 -------------------
 Temperature   298.150 Kelvin.  Pressure   1.00000 Atm.
 Atom     1 has atomic number  6 and mass  12.00000

 Molecular mass:   126.06808 amu.
 Principal axes and moments of inertia in atomic units:
                           1         2         3
     Eigenvalues --   604.915511400.018811539.40040
           X            0.99966  -0.02602  -0.00001
           Y            0.02602   0.99966   0.00021
           Z            0.00000  -0.00021   1.00000
 This molecule is an asymmetric top.
 Rotational symmetry number  1.
 Warning -- assumption of classical behavior for rotation
           may cause significant error
 Rotational temperatures (Kelvin)      0.14318     0.06187     0.05626
 Rotational constants (GHZ):           2.98346     1.28908     1.17237
 Zero-point vibrational energy     413323.1 (Joules/Mol)
                                   98.78660 (Kcal/Mol)
 Warning -- explicit consideration of  13 degrees of freedom as
           vibrations may cause significant error
 Vibrational temperatures:     28.97   146.41   233.80   298.60   389.79
          (Kelvin)            493.86   498.43   541.09   552.57   642.90
                              759.05   855.51   866.17  1008.35  1120.75
                             1136.41  1293.84  1306.67  1358.18  1365.29
                             1398.78  1407.69  1451.00  1463.21  1586.10
                             1588.82  1623.23  1700.96  1728.51  1781.89
                             1846.75  1885.46  1952.48  1982.04  2010.88
                             2093.20  2105.81  2110.02  2118.64  2416.52
                             2597.06  4368.04  4370.36  4386.53  4429.39
                             4429.63  4476.05  4544.76  4582.53  4618.33
                             5471.24

 Zero-point correction=                           0.157426 (Hartree/Particle)
 Thermal correction to Energy=                    0.166524
 Thermal correction to Enthalpy=                  0.167469
 Thermal correction to Gibbs Free Energy=         0.122731
 Sum of electronic and zero-point Energies=           -423.058432
 Sum of electronic and thermal Energies=              -423.049334
 Sum of electronic and thermal Enthalpies=            -423.048390
 Sum of electronic and thermal Free Energies=         -423.093128

                     E (Thermal)             CV                S
                      KCal/Mol        Cal/Mol-Kelvin    Cal/Mol-Kelvin
 Total                  104.496             34.212             94.159
 Electronic               0.000              0.000              0.000
 Translational            0.889              2.981             40.409
 Rotational               0.889              2.981             28.657
 Vibrational            102.718             28.250             25.093
 Vibration     1          0.593              1.986              6.621
 Vibration     2          0.604              1.948              3.420
 Vibration     3          0.623              1.888              2.520
 Vibration     4          0.641              1.829              2.065
 Vibration     5          0.675              1.727              1.590
 Vibration     6          0.722              1.589              1.197
 Vibration     7          0.724              1.583              1.182
 Vibration     8          0.747              1.521              1.055
 Vibration     9          0.753              1.504              1.023
 Vibration    10          0.806              1.368              0.805
 Vibration    11          0.883              1.189              0.593
 Vibration    12          0.952              1.043              0.459
 Vibration    13          0.960              1.028              0.446

 Optimization completed.
    -- Stationary point found.
 Normal termination of Gaussian 09 at Mon Jan 27 14:45:20 2020.
