 Gaussian 09, Revision D.01,
 Gaussian 09:  ES64L-G09RevD.01 24-Apr-2013

 -----------------------------
 # b3lyp 6-31G(2df,p) opt Freq
 -----------------------------

 -----
 titel
 -----
 Symbolic Z-matrix:
 Charge =  0 Multiplicity = 1

 SCF Done:  E(RB3LYP) =  -423.225124915     A.U. after   14 cycles
 Optimization completed.
    -- Stationary point found.
 Normal termination of Gaussian 09 at Mon Jan 27 13:02:14 2020.

 ----------------------------------------------------------------------
 #N Geom=AllCheck Guess=TCheck SCRF=Check GenChk RB3LYP/6-31G(2df,p) Fr
 eq
 ----------------------------------------------------------------------

 Structure from the checkpoint file:  "/scratch/puck/g09_b6c3a2be-87b2-40e8-9f57-9c671fe3493b/Gau-36890.chk"
 -----
 titel
 -----
 Charge =  0 Multiplicity = 1

                         Standard orientation:
 ---------------------------------------------------------------------
 Center     Atomic      Atomic             Coordinates (Angstroms)
 Number     Number       Type             X           Y           Z
 ---------------------------------------------------------------------
      1          8           0        2.533679   -0.043612   -0.074593
      2          6           0        1.333540   -0.130963   -0.005436
      3          6           0        0.521686   -1.360603   -0.417898
      4          6           0       -0.970670   -0.981093   -0.397346
      5          6           0       -1.194768    0.241357   -1.312324
      6          6           0       -0.448765    1.464098   -0.702859
      7          6           0        0.401879    0.979649    0.483625
      8          8           0       -0.429130    0.429839    1.510228
      9          6           0       -1.331753   -0.578145    1.035532
     10          1           0        0.855128   -1.687763   -1.408538
     11          1           0        0.740675   -2.179292    0.278489
     12          1           0       -1.593767   -1.823529   -0.711937
     13          1           0       -0.828587    0.020562   -2.320358
     14          1           0       -2.265308    0.448657   -1.403069
     15          1           0        0.187823    1.961209   -1.441083
     16          1           0       -1.154035    2.211582   -0.326985
     17          1           0        0.975332    1.784460    0.945411
     18          1           0       -1.257912   -1.433614    1.719007
     19          1           0       -2.362627   -0.197889    1.084210
 ---------------------------------------------------------------------

 SCF Done:  E(RB3LYP) =  -423.225124915     A.U. after    1 cycles

 The electronic state is 1-A.
 Alpha  occ. eigenvalues --  -19.14609 -19.12976 -10.26429 -10.23607 -10.23445
 Alpha  occ. eigenvalues --  -10.20305 -10.19536 -10.19440 -10.19432  -1.04708
 Alpha  occ. eigenvalues --   -1.03101  -0.83359  -0.77759  -0.73745  -0.65549
 Alpha  occ. eigenvalues --   -0.63343  -0.58689  -0.52834  -0.50391  -0.48883
 Alpha  occ. eigenvalues --   -0.47080  -0.44245  -0.41691  -0.41372  -0.41092
 Alpha  occ. eigenvalues --   -0.40273  -0.39166  -0.38274  -0.36958  -0.33594
 Alpha  occ. eigenvalues --   -0.33089  -0.30170  -0.27197  -0.22643
 Alpha virt. eigenvalues --   -0.01763   0.06687   0.10950   0.12315   0.13234
 Alpha virt. eigenvalues --    0.13985   0.14425   0.14760   0.15215   0.16632
 Alpha virt. eigenvalues --    0.16747   0.18084   0.18370   0.20191   0.22031

 Mulliken charges:
               1
     1  O   -0.325070
     2  C    0.424593
     3  C   -0.326460
     4  C   -0.045489
     5  C   -0.218808
     6  C   -0.236575
     7  C    0.002519
     8  O   -0.280605
     9  C   -0.060602
    10  H    0.127269
    11  H    0.130764
    12  H    0.074437
    13  H    0.103689
    14  H    0.104787
    15  H    0.117541
    16  H    0.115273
    17  H    0.094346
    18  H    0.103650
    19  H    0.094738
 Sum of Mulliken charges =   0.00000

 Dipole moment (field-independent basis, Debye):
    X=             -2.9862    Y=             -0.6525    Z=             -1.3907  Tot=              3.3582
 Quadrupole moment (field-independent basis, Debye-Ang):
   XX=            -60.4635   YY=            -49.6251   ZZ=            -54.5029
   XY=              0.8359   XZ=              0.6041   YZ=             -1.2520

  Exact polarizability:  80.311   1.896  73.832  -0.824  -0.524  66.692
 Approx polarizability: 120.758   3.742 104.629  -2.945   0.436 100.359

                      1                      2                      3
                      A                      A                      A
 Frequencies --     73.3258               154.6654               268.9897
 Red. masses --      3.1731                 2.9152                 2.2951
 Frc consts  --      0.0101                 0.0411                 0.0978
 IR Inten    --      2.5452                 5.1257                 2.7030

                      4                      5                      6
                      A                      A                      A
 Frequencies --    332.4693               367.1260               438.5202
 Red. masses --      2.0568                 2.8763                 5.0275
 Frc consts  --      0.1340                 0.2284                 0.5696
 IR Inten    --      0.4867                 1.4011                11.7856

                      7                      8                      9
                      A                      A                      A
 Frequencies --    496.3234               502.0157               601.0401
 Red. masses --      4.6105                 4.1282                 2.7378
 Frc consts  --      0.6692                 0.6130                 0.5827
 IR Inten    --      0.5541                 2.1131                 3.6839

                     10                     11                     12
                      A                      A                      A
 Frequencies --    623.6399               738.2668               812.0769
 Red. masses --      4.3779                 3.7117                 1.9017
 Frc consts  --      1.0032                 1.1919                 0.7389
 IR Inten    --      0.9853                 1.4249                 1.5632

                     13                     14                     15
                      A                      A                      A
 Frequencies --    818.0130               860.0167               874.8969
 Red. masses --      2.2430                 2.3131                 2.9886
 Frc consts  --      0.8843                 1.0080                 1.3478
 IR Inten    --      1.6518                 6.7046                11.4474

                     16                     17                     18
                      A                      A                      A
 Frequencies --    903.9782               958.5549               966.6367
 Red. masses --      2.0457                 2.0345                 2.0949
 Frc consts  --      0.9849                 1.1014                 1.1533
 IR Inten    --     14.8680                 0.8705                11.9290

                     19                     20                     21
                      A                      A                      A
 Frequencies --   1009.3822              1035.5590              1071.2377
 Red. masses --      3.5875                 2.4090                 2.2263
 Frc consts  --      2.1535                 1.5221                 1.5052
 IR Inten    --      1.2600                 3.2741                44.1505

                     22                     23                     24
                      A                      A                      A
 Frequencies --   1085.3572              1097.9961              1116.4045
 Red. masses --      2.3418                 1.6340                 1.4354
 Frc consts  --      1.6254                 1.1607                 1.0541
 IR Inten    --     30.6590                 5.7502                 6.6118

                     25                     26                     27
                      A                      A                      A
 Frequencies --   1178.8231              1214.0087              1234.2637
 Red. masses --      1.5637                 1.2854                 1.6935
 Frc consts  --      1.2803                 1.1162                 1.5200
 IR Inten    --     15.4759                 1.7642                32.2970

                     28                     29                     30
                      A                      A                      A
 Frequencies --   1253.8490              1263.2814              1301.4013
 Red. masses --      1.3470                 1.3103                 1.6210
 Frc consts  --      1.2477                 1.2320                 1.6175
 IR Inten    --      1.3345                 4.7711                 0.7237

                     31                     32                     33
                      A                      A                      A
 Frequencies --   1323.2880              1337.7086              1349.0889
 Red. masses --      1.7124                 1.2533                 1.5139
 Frc consts  --      1.7667                 1.3214                 1.6234
 IR Inten    --      2.4463                 2.7095                 3.6036

                     34                     35                     36
                      A                      A                      A
 Frequencies --   1359.6851              1371.5752              1404.8805
 Red. masses --      1.5741                 1.4322                 1.3238
 Frc consts  --      1.7146                 1.5874                 1.5394
 IR Inten    --      4.1916                 0.2431                 1.7495

                     37                     38                     39
                      A                      A                      A
 Frequencies --   1444.0282              1477.8119              1500.3038
 Red. masses --      1.0972                 1.0778                 1.0928
 Frc consts  --      1.3480                 1.3868                 1.4493
 IR Inten    --      9.9235                 1.8189                 3.7941

                     40                     41                     42
                      A                      A                      A
 Frequencies --   1525.0763              1838.9700              2993.3441
 Red. masses --      1.0894                12.2282                 1.0622
 Frc consts  --      1.4929                24.3647                 5.6077
 IR Inten    --      0.2552               200.4774                70.2005

                     43                     44                     45
                      A                      A                      A
 Frequencies --   3036.3516              3038.0411              3040.7009
 Red. masses --      1.0936                 1.0701                 1.0608
 Frc consts  --      5.9406                 5.8191                 5.7786
 IR Inten    --     19.3081                29.9489                20.1162

                     46                     47                     48
                      A                      A                      A
 Frequencies --   3052.4488              3066.5504              3077.9723
 Red. masses --      1.0622                 1.0859                 1.1032
 Frc consts  --      5.8309                 6.0162                 6.1579
 IR Inten    --     32.2825                39.1592                10.2397

                     49                     50                     51
                      A                      A                      A
 Frequencies --   3084.4207              3100.7916              3112.7805
 Red. masses --      1.1010                 1.1050                 1.0888
 Frc consts  --      6.1713                 6.2599                 6.2159
 IR Inten    --      8.7973                33.7166                18.8104

 - Thermochemistry -
 -------------------
 Temperature   298.150 Kelvin.  Pressure   1.00000 Atm.
 Atom     1 has atomic number  8 and mass  15.99491

 Molecular mass:   126.06808 amu.
 Principal axes and moments of inertia in atomic units:
                           1         2         3
     Eigenvalues --   729.201321079.776851101.12687
           X            0.99983   0.01304   0.01275
           Y           -0.00725   0.92570  -0.37818
           Z           -0.01673   0.37803   0.92564
 This molecule is an asymmetric top.
 Rotational symmetry number  1.
 Warning -- assumption of classical behavior for rotation
           may cause significant error
 Rotational temperatures (Kelvin)      0.11878     0.08021     0.07866
 Rotational constants (GHZ):           2.47496     1.67140     1.63899
 Zero-point vibrational energy     425798.4 (Joules/Mol)
                                  101.76827 (Kcal/Mol)
 Warning -- explicit consideration of   9 degrees of freedom as
           vibrations may cause significant error
 Vibrational temperatures:    105.50   222.53   387.02   478.35   528.21
          (Kelvin)            630.93   714.10   722.29   864.76   897.28
                             1062.20  1168.40  1176.94  1237.37  1258.78
                             1300.62  1379.15  1390.77  1452.27  1489.94
                             1541.27  1561.59  1579.77  1606.25  1696.06
                             1746.69  1775.83  1804.01  1817.58  1872.42
                             1903.91  1924.66  1941.04  1956.28  1973.39
                             2021.31  2077.63  2126.24  2158.60  2194.24
                             2645.86  4306.75  4368.63  4371.06  4374.88
                             4391.79  4412.08  4428.51  4437.79  4461.34
                             4478.59

 Zero-point correction=                           0.162178 (Hartree/Particle)
 Thermal correction to Energy=                    0.169486
 Thermal correction to Enthalpy=                  0.170430
 Thermal correction to Gibbs Free Energy=         0.130310
 Sum of electronic and zero-point Energies=           -423.062947
 Sum of electronic and thermal Energies=              -423.055639
 Sum of electronic and thermal Enthalpies=            -423.054694
 Sum of electronic and thermal Free Energies=         -423.094815

                     E (Thermal)             CV                S
                      KCal/Mol        Cal/Mol-Kelvin    Cal/Mol-Kelvin
 Total                  106.354             29.058             84.440
 Electronic               0.000              0.000              0.000
 Translational            0.889              2.981             40.409
 Rotational               0.889              2.981             28.252
 Vibrational            104.577             23.096             15.780
 Vibration     1          0.599              1.967              4.062
 Vibration     2          0.620              1.897              2.614
 Vibration     3          0.673              1.730              1.603
 Vibration     4          0.714              1.611              1.248
 Vibration     5          0.740              1.540              1.092
 Vibration     6          0.799              1.386              0.831
 Vibration     7          0.852              1.258              0.667
 Vibration     8          0.857              1.246              0.653
 Vibration     9          0.959              1.030              0.448

 Optimization completed.
    -- Stationary point found.
 Normal termination of Gaussian 09 at Mon Jan 27 13:49:10 2020.
