 Gaussian 09, Revision D.01,
 Gaussian 09:  ES64L-G09RevD.01 24-Apr-2013

 -----------------------------
 # b3lyp 6-31G(2df,p) opt Freq
 -----------------------------

 -----
 titel
 -----
 Symbolic Z-matrix:
 Charge =  0 Multiplicity = 1

 SCF Done:  E(RB3LYP) =  -423.203199245     A.U. after   13 cycles
 SCF Done:  E(RB3LYP) =  -423.203199637     A.U. after    7 cycles
 SCF Done:  E(RB3LYP) =  -423.203200337     A.U. after    7 cycles
 SCF Done:  E(RB3LYP) =  -423.203200820     A.U. after    7 cycles
 SCF Done:  E(RB3LYP) =  -423.203201272     A.U. after    7 cycles
 SCF Done:  E(RB3LYP) =  -423.203201517     A.U. after    7 cycles
 SCF Done:  E(RB3LYP) =  -423.203201754     A.U. after    7 cycles
 SCF Done:  E(RB3LYP) =  -423.203201834     A.U. after    7 cycles
 Optimization completed.
    -- Stationary point found.
 Normal termination of Gaussian 09 at Mon Jan 27 13:26:39 2020.

 ----------------------------------------------------------------------
 #N Geom=AllCheck Guess=TCheck SCRF=Check GenChk RB3LYP/6-31G(2df,p) Fr
 eq
 ----------------------------------------------------------------------

 Structure from the checkpoint file:  "/scratch/puck/g09_57ab2ed7-9974-412b-9251-c7b71fd5d0c9/Gau-25017.chk"
 -----
 titel
 -----
 Charge =  0 Multiplicity = 1

                         Standard orientation:
 ---------------------------------------------------------------------
 Center     Atomic      Atomic             Coordinates (Angstroms)
 Number     Number       Type             X           Y           Z
 ---------------------------------------------------------------------
      1          6           0       -2.216332    0.424263    0.529089
      2          6           0       -2.113130   -0.484598   -0.691066
      3          8           0       -0.765066   -0.298571   -1.092605
      4          6           0        0.008321    0.029334    0.067448
      5          6           0        0.986001   -1.091997    0.494552
      6          6           0        2.392369   -0.624510    0.053155
      7          6           0        2.192279    0.838494   -0.263096
      8          6           0        0.911507    1.195787   -0.251360
      9          8           0       -0.929140    0.291050    1.110338
     10          1           0       -2.418013    1.465082    0.234570
     11          1           0       -2.963959    0.109275    1.261693
     12          1           0       -2.309379   -1.533317   -0.421595
     13          1           0       -2.767961   -0.199516   -1.518771
     14          1           0        0.933173   -1.184736    1.581735
     15          1           0        0.687334   -2.045749    0.054967
     16          1           0        3.149168   -0.780842    0.830318
     17          1           0        2.747159   -1.165727   -0.833237
     18          1           0        3.022339    1.498548   -0.492242
     19          1           0        0.507696    2.176506   -0.471637
 ---------------------------------------------------------------------

 SCF Done:  E(RB3LYP) =  -423.203201834     A.U. after    1 cycles

 The electronic state is 1-A.
 Alpha  occ. eigenvalues --  -19.14177 -19.13923 -10.27600 -10.23095 -10.23014
 Alpha  occ. eigenvalues --  -10.18422 -10.18391 -10.17420 -10.17227  -1.08017
 Alpha  occ. eigenvalues --   -0.98564  -0.83924  -0.75248  -0.71107  -0.65997
 Alpha  occ. eigenvalues --   -0.62854  -0.56927  -0.54016  -0.50731  -0.50086
 Alpha  occ. eigenvalues --   -0.47293  -0.45592  -0.43430  -0.40907  -0.39373
 Alpha  occ. eigenvalues --   -0.37777  -0.35951  -0.35371  -0.34649  -0.33525
 Alpha  occ. eigenvalues --   -0.32728  -0.27218  -0.24920  -0.24371
 Alpha virt. eigenvalues --    0.01839   0.09643   0.11043   0.12082   0.12623
 Alpha virt. eigenvalues --    0.13142   0.14885   0.15401   0.16963   0.17132
 Alpha virt. eigenvalues --    0.17961   0.18426   0.20226   0.21270   0.22397

 Mulliken charges:
               1
     1  C   -0.102358
     2  C   -0.098439
     3  O   -0.300846
     4  C    0.467264
     5  C   -0.279508
     6  C   -0.263403
     7  C   -0.065924
     8  C   -0.112334
     9  O   -0.299686
    10  H    0.097511
    11  H    0.111296
    12  H    0.096749
    13  H    0.110675
    14  H    0.119435
    15  H    0.107113
    16  H    0.106816
    17  H    0.114941
    18  H    0.097401
    19  H    0.093297
 Sum of Mulliken charges =   0.00000

 Dipole moment (field-independent basis, Debye):
    X=             -0.5374    Y=             -0.1161    Z=             -0.0562  Tot=              0.5526
 Quadrupole moment (field-independent basis, Debye-Ang):
   XX=            -44.9321   YY=            -51.4132   ZZ=            -57.0920
   XY=             -0.0696   XZ=              0.4459   YZ=             -1.3778

  Exact polarizability: 101.561  -2.245  71.707  -0.115  -2.597  58.867
 Approx polarizability: 135.934  -6.137 103.082  -0.614  -2.526  92.671

                      1                      2                      3
                      A                      A                      A
 Frequencies --     42.7792                72.1226               200.2928
 Red. masses --      3.2831                 2.4361                 2.1121
 Frc consts  --      0.0035                 0.0075                 0.0499
 IR Inten    --      5.3453                 0.9625                 0.2051

                      4                      5                      6
                      A                      A                      A
 Frequencies --    263.9491               333.1798               432.9264
 Red. masses --      2.3360                 3.0057                 5.1011
 Frc consts  --      0.0959                 0.1966                 0.5633
 IR Inten    --      0.7427                 1.2054                 1.2413

                      7                      8                      9
                      A                      A                      A
 Frequencies --    454.1277               495.4622               650.1575
 Red. masses --      4.2083                 2.3379                 2.1601
 Frc consts  --      0.5113                 0.3381                 0.5380
 IR Inten    --      6.9214                 9.3344                 1.7563

                     10                     11                     12
                      A                      A                      A
 Frequencies --    707.2358               752.1561               765.6287
 Red. masses --      2.1537                 2.4945                 6.6998
 Frc consts  --      0.6347                 0.8315                 2.3139
 IR Inten    --      0.9973                 6.0089                 3.4711

                     13                     14                     15
                      A                      A                      A
 Frequencies --    799.2608               839.7008               907.2109
 Red. masses --      2.0771                 2.2008                 1.9342
 Frc consts  --      0.7818                 0.9143                 0.9379
 IR Inten    --     19.5489                 7.3546                 5.6693

                     16                     17                     18
                      A                      A                      A
 Frequencies --    923.0801               934.9664               952.8115
 Red. masses --      2.2480                 2.2798                 2.2948
 Frc consts  --      1.1286                 1.1742                 1.2275
 IR Inten    --     18.2039                20.7574                10.9231

                     19                     20                     21
                      A                      A                      A
 Frequencies --    977.7435               992.1214              1054.7277
 Red. masses --      1.3242                 2.3551                 3.3564
 Frc consts  --      0.7459                 1.3658                 2.1999
 IR Inten    --      4.6593                 4.0758                26.9014

                     22                     23                     24
                      A                      A                      A
 Frequencies --   1065.5029              1078.2849              1106.1167
 Red. masses --      2.6551                 3.5671                 1.4786
 Frc consts  --      1.7760                 2.4436                 1.0659
 IR Inten    --     39.1963                 6.7302               101.8413

                     25                     26                     27
                      A                      A                      A
 Frequencies --   1149.4763              1168.2267              1181.0355
 Red. masses --      1.8172                 2.4562                 1.5008
 Frc consts  --      1.4147                 1.9750                 1.2334
 IR Inten    --     27.3703                79.9123                27.8899

                     28                     29                     30
                      A                      A                      A
 Frequencies --   1204.6901              1229.0132              1245.5175
 Red. masses --      2.5466                 1.1880                 1.2419
 Frc consts  --      2.1775                 1.0572                 1.1351
 IR Inten    --    128.9660                 4.3140                30.3234

                     31                     32                     33
                      A                      A                      A
 Frequencies --   1253.6528              1287.0672              1324.8893
 Red. masses --      1.2399                 1.5344                 1.5887
 Frc consts  --      1.1481                 1.4976                 1.6430
 IR Inten    --      7.0367                16.3863                 2.3513

                     34                     35                     36
                      A                      A                      A
 Frequencies --   1370.6155              1383.5838              1388.1644
 Red. masses --      1.3507                 1.3489                 1.7943
 Frc consts  --      1.4951                 1.5213                 2.0372
 IR Inten    --      4.2450                 1.0146                59.4048

                     37                     38                     39
                      A                      A                      A
 Frequencies --   1467.8057              1492.9431              1513.4226
 Red. masses --      1.0817                 1.0985                 1.0908
 Frc consts  --      1.3731                 1.4426                 1.4720
 IR Inten    --      1.5518                 3.9690                 1.1110

                     40                     41                     42
                      A                      A                      A
 Frequencies --   1520.0828              1689.3833              2987.2162
 Red. masses --      1.1028                 6.4615                 1.0725
 Frc consts  --      1.5014                10.8652                 5.6389
 IR Inten    --      1.1685                 7.8581                47.6836

                     43                     44                     45
                      A                      A                      A
 Frequencies --   2997.1901              3027.1104              3056.5191
 Red. masses --      1.0661                 1.0623                 1.0986
 Frc consts  --      5.6427                 5.7354                 6.0472
 IR Inten    --     78.3323                36.0988                18.9666

                     46                     47                     48
                      A                      A                      A
 Frequencies --   3075.4923              3091.9016              3097.8724
 Red. masses --      1.0609                 1.0919                 1.0984
 Frc consts  --      5.9121                 6.1499                 6.2107
 IR Inten    --     17.5557                39.6647                36.1349

                     49                     50                     51
                      A                      A                      A
 Frequencies --   3126.2021              3183.3782              3215.4747
 Red. masses --      1.1059                 1.0865                 1.1033
 Frc consts  --      6.3680                 6.4872                 6.7209
 IR Inten    --     14.5362                12.1200                12.2124

 - Thermochemistry -
 -------------------
 Temperature   298.150 Kelvin.  Pressure   1.00000 Atm.
 Atom     1 has atomic number  6 and mass  12.00000

 Molecular mass:   126.06808 amu.
 Principal axes and moments of inertia in atomic units:
                           1         2         3
     Eigenvalues --   473.579051430.834091470.89220
           X            0.99996  -0.00779   0.00492
           Y            0.00855   0.98359  -0.18022
           Z           -0.00344   0.18025   0.98361
 This molecule is an asymmetric top.
 Rotational symmetry number  1.
 Warning -- assumption of classical behavior for rotation
           may cause significant error
 Rotational temperatures (Kelvin)      0.18289     0.06053     0.05889
 Rotational constants (GHZ):           3.81086     1.26132     1.22697
 Zero-point vibrational energy     421859.9 (Joules/Mol)
                                  100.82694 (Kcal/Mol)
 Warning -- explicit consideration of   8 degrees of freedom as
           vibrations may cause significant error
 Vibrational temperatures:     61.55   103.77   288.18   379.76   479.37
          (Kelvin)            622.88   653.39   712.86   935.43  1017.55
                             1082.18  1101.57  1149.96  1208.14  1305.27
                             1328.10  1345.21  1370.88  1406.75  1427.44
                             1517.52  1533.02  1551.41  1591.45  1653.84
                             1680.82  1699.24  1733.28  1768.27  1792.02
                             1803.72  1851.80  1906.22  1972.01  1990.67
                             1997.26  2111.84  2148.01  2177.47  2187.06
                             2430.64  4297.93  4312.28  4355.33  4397.64
                             4424.94  4448.55  4457.14  4497.90  4580.17
                             4626.35

 Zero-point correction=                           0.160678 (Hartree/Particle)
 Thermal correction to Energy=                    0.168463
 Thermal correction to Enthalpy=                  0.169407
 Thermal correction to Gibbs Free Energy=         0.127454
 Sum of electronic and zero-point Energies=           -423.042524
 Sum of electronic and thermal Energies=              -423.034739
 Sum of electronic and thermal Enthalpies=            -423.033795
 Sum of electronic and thermal Free Energies=         -423.075748

                     E (Thermal)             CV                S
                      KCal/Mol        Cal/Mol-Kelvin    Cal/Mol-Kelvin
 Total                  105.712             29.764             88.297
 Electronic               0.000              0.000              0.000
 Translational            0.889              2.981             40.409
 Rotational               0.889              2.981             28.390
 Vibrational            103.935             23.803             19.498
 Vibration     1          0.595              1.980              5.126
 Vibration     2          0.598              1.967              4.095
 Vibration     3          0.638              1.839              2.130
 Vibration     4          0.671              1.739              1.636
 Vibration     5          0.715              1.609              1.245
 Vibration     6          0.794              1.398              0.849
 Vibration     7          0.813              1.352              0.783
 Vibration     8          0.851              1.260              0.670

 Normal termination of Gaussian 09 at Mon Jan 27 14:07:38 2020.
