 Gaussian 09, Revision D.01,
 Gaussian 09:  ES64L-G09RevD.01 24-Apr-2013

 -----------------------------
 # b3lyp 6-31G(2df,p) opt Freq
 -----------------------------

 -----
 titel
 -----
 Symbolic Z-matrix:
 Charge =  0 Multiplicity = 1

 SCF Done:  E(RB3LYP) =  -423.111515517     A.U. after   13 cycles
 Optimization completed.
    -- Stationary point found.
 Normal termination of Gaussian 09 at Mon Jan 27 15:59:50 2020.

 ----------------------------------------------------------------------
 #N Geom=AllCheck Guess=TCheck SCRF=Check GenChk RB3LYP/6-31G(2df,p) Fr
 eq
 ----------------------------------------------------------------------

 Structure from the checkpoint file:  "/scratch/puck/g09_60cd7eaf-db13-433b-95fc-4108f02c823c/Gau-143469.chk"
 -----
 titel
 -----
 Charge =  0 Multiplicity = 1

                         Standard orientation:
 ---------------------------------------------------------------------
 Center     Atomic      Atomic             Coordinates (Angstroms)
 Number     Number       Type             X           Y           Z
 ---------------------------------------------------------------------
      1          6           0       -1.974987   -0.250048   -1.103160
      2          6           0       -0.988878   -0.229519    0.052901
      3          8           0       -1.649303   -0.016263    1.291425
      4          6           0        0.188097   -1.238825    0.067098
      5          6           0        1.026329   -0.386292   -0.954096
      6          6           0        2.271411   -0.400244   -0.043764
      7          6           0        1.088485   -0.301375    0.939686
      8          6           0        0.279329    0.635401   -0.045521
      9          8           0        0.375241    2.003905   -0.189544
     10          1           0       -2.543867    0.684377   -1.132886
     11          1           0       -1.471655   -0.378459   -2.064957
     12          1           0       -2.688777   -1.076409   -0.991408
     13          1           0       -2.381295   -0.637977    1.357411
     14          1           0        0.165166   -2.326286    0.116516
     15          1           0        0.966553   -0.442543   -2.041235
     16          1           0        2.853151   -1.326974   -0.022990
     17          1           0        2.931389    0.469260   -0.108319
     18          1           0        1.087754   -0.249458    2.026952
     19          1           0       -0.064639    2.408748    0.567005
 ---------------------------------------------------------------------

 SCF Done:  E(RB3LYP) =  -423.111515517     A.U. after    1 cycles

 The electronic state is 1-A.
 Alpha  occ. eigenvalues --  -19.14532 -19.13568 -10.23696 -10.23249 -10.19405
 Alpha  occ. eigenvalues --  -10.19109 -10.18848 -10.17652 -10.17643  -1.03679
 Alpha  occ. eigenvalues --   -1.01648  -0.92437  -0.75454  -0.69267  -0.63188
 Alpha  occ. eigenvalues --   -0.62289  -0.58330  -0.53586  -0.50406  -0.48684
 Alpha  occ. eigenvalues --   -0.46356  -0.44743  -0.42066  -0.41116  -0.39971
 Alpha  occ. eigenvalues --   -0.37251  -0.35043  -0.32920  -0.32240  -0.31260
 Alpha  occ. eigenvalues --   -0.29888  -0.28193  -0.25737  -0.25000
 Alpha virt. eigenvalues --    0.06897   0.09217   0.11133   0.12360   0.12861
 Alpha virt. eigenvalues --    0.13756   0.14346   0.16331   0.16385   0.18309
 Alpha virt. eigenvalues --    0.18659   0.19480   0.19852   0.21118   0.22184

 Mulliken charges:
               1
     1  C   -0.473520
     2  C    0.336121
     3  O   -0.494036
     4  C   -0.115658
     5  C   -0.097948
     6  C   -0.283168
     7  C   -0.115737
     8  C    0.389398
     9  O   -0.482667
    10  H    0.127102
    11  H    0.125768
    12  H    0.104451
    13  H    0.276497
    14  H    0.070117
    15  H    0.072577
    16  H    0.088181
    17  H    0.102562
    18  H    0.078218
    19  H    0.291743
 Sum of Mulliken charges =   0.00000

 Dipole moment (field-independent basis, Debye):
    X=             -1.2810    Y=             -1.2110    Z=              0.2728  Tot=              1.7838
 Quadrupole moment (field-independent basis, Debye-Ang):
   XX=            -50.6557   YY=            -51.7853   ZZ=            -53.6098
   XY=              0.8139   XZ=              0.0654   YZ=              1.8705

  Exact polarizability:  85.752  -0.578  70.696   0.117   0.836  69.361
 Approx polarizability: 112.910   0.354 110.462  -3.207   1.022 108.465

                      1                      2                      3
                      A                      A                      A
 Frequencies --    188.0394               197.3237               212.8655
 Red. masses --      3.3606                 1.6945                 3.3084
 Frc consts  --      0.0700                 0.0389                 0.0883
 IR Inten    --      2.3275                 3.9789                 4.6774

                      4                      5                      6
                      A                      A                      A
 Frequencies --    229.6369               269.0905               302.3124
 Red. masses --      1.3364                 1.1117                 2.1338
 Frc consts  --      0.0415                 0.0474                 0.1149
 IR Inten    --      9.4432                81.0872                26.8879

                      7                      8                      9
                      A                      A                      A
 Frequencies --    330.1168               371.4469               393.5990
 Red. masses --      1.5001                 2.8587                 3.5381
 Frc consts  --      0.0963                 0.2324                 0.3229
 IR Inten    --     53.7079                 3.8385                32.9558

                     10                     11                     12
                      A                      A                      A
 Frequencies --    555.3170               572.6177               622.2486
 Red. masses --      2.4196                 4.3500                 4.0317
 Frc consts  --      0.4396                 0.8404                 0.9197
 IR Inten    --      5.1524                 6.1828                 1.7923

                     13                     14                     15
                      A                      A                      A
 Frequencies --    679.8243               754.7308               831.6204
 Red. masses --      3.9843                 4.1562                 2.4300
 Frc consts  --      1.0849                 1.3949                 0.9902
 IR Inten    --      7.1809                 1.1345                 2.5969

                     16                     17                     18
                      A                      A                      A
 Frequencies --    875.8258               886.0629               912.1280
 Red. masses --      1.9614                 1.6871                 2.9031
 Frc consts  --      0.8864                 0.7804                 1.4231
 IR Inten    --      1.0169                 4.2618                13.6205

                     19                     20                     21
                      A                      A                      A
 Frequencies --    924.4645               928.6753               965.8756
 Red. masses --      2.2783                 1.9254                 1.7166
 Frc consts  --      1.1472                 0.9784                 0.9436
 IR Inten    --     13.4764                 8.0318                15.3856

                     22                     23                     24
                      A                      A                      A
 Frequencies --   1011.0680              1040.2476              1074.9668
 Red. masses --      1.3248                 1.7712                 1.6798
 Frc consts  --      0.7980                 1.1292                 1.1436
 IR Inten    --     11.7594                 4.0370                 7.4487

                     25                     26                     27
                      A                      A                      A
 Frequencies --   1076.1396              1092.1451              1137.7511
 Red. masses --      1.8744                 1.6857                 1.8595
 Frc consts  --      1.2790                 1.1847                 1.4182
 IR Inten    --     17.5237                15.4310                 5.3964

                     28                     29                     30
                      A                      A                      A
 Frequencies --   1147.3018              1151.0175              1179.2515
 Red. masses --      1.9115                 1.4025                 2.0036
 Frc consts  --      1.4824                 1.0947                 1.6416
 IR Inten    --     33.8404                 0.7932                 4.7175

                     31                     32                     33
                      A                      A                      A
 Frequencies --   1208.7321              1231.1548              1240.4407
 Red. masses --      3.4425                 1.6392                 1.8285
 Frc consts  --      2.9634                 1.4639                 1.6576
 IR Inten    --     77.9626                41.4597                18.4844

                     34                     35                     36
                      A                      A                      A
 Frequencies --   1261.8726              1297.2221              1371.4907
 Red. masses --      2.6316                 1.7242                 2.0689
 Frc consts  --      2.4689                 1.7095                 2.2928
 IR Inten    --    110.5247               101.4736                 6.9153

                     37                     38                     39
                      A                      A                      A
 Frequencies --   1408.5636              1422.0348              1489.5267
 Red. masses --      1.2752                 2.6308                 1.0507
 Frc consts  --      1.4906                 3.1344                 1.3735
 IR Inten    --      9.6052                45.3044                 5.8988

                     40                     41                     42
                      A                      A                      A
 Frequencies --   1496.1785              1507.4745              3023.3978
 Red. masses --      1.1258                 1.1353                 1.0418
 Frc consts  --      1.4848                 1.5201                 5.6107
 IR Inten    --     13.9575                 1.3238                29.3141

                     43                     44                     45
                      A                      A                      A
 Frequencies --   3045.3527              3089.5753              3104.1360
 Red. masses --      1.0549                 1.0938                 1.1090
 Frc consts  --      5.7640                 6.1516                 6.2962
 IR Inten    --     61.4876                17.0026                28.8839

                     46                     47                     48
                      A                      A                      A
 Frequencies --   3106.5347              3120.7115              3126.8251
 Red. masses --      1.0906                 1.1003                 1.0887
 Frc consts  --      6.2009                 6.3134                 6.2714
 IR Inten    --     45.9205                22.7368                42.5754

                     49                     50                     51
                      A                      A                      A
 Frequencies --   3136.8168              3798.4477              3810.9599
 Red. masses --      1.0956                 1.0656                 1.0661
 Frc consts  --      6.3516                 9.0582                 9.1222
 IR Inten    --     24.2688                36.5740                16.4033

 - Thermochemistry -
 -------------------
 Temperature   298.150 Kelvin.  Pressure   1.00000 Atm.
 Atom     1 has atomic number  6 and mass  12.00000

 Molecular mass:   126.06808 amu.
 Principal axes and moments of inertia in atomic units:
                           1         2         3
     Eigenvalues --   677.760571127.233401231.29900
           X            0.99944  -0.00547   0.03307
           Y            0.00352   0.99828   0.05849
           Z           -0.03333  -0.05834   0.99774
 This molecule is an asymmetric top.
 Rotational symmetry number  1.
 Warning -- assumption of classical behavior for rotation
           may cause significant error
 Rotational temperatures (Kelvin)      0.12779     0.07684     0.07034
 Rotational constants (GHZ):           2.66280     1.60104     1.46572
 Zero-point vibrational energy     413974.7 (Joules/Mol)
                                   98.94232 (Kcal/Mol)
 Warning -- explicit consideration of  11 degrees of freedom as
           vibrations may cause significant error
 Vibrational temperatures:    270.55   283.90   306.27   330.40   387.16
          (Kelvin)            434.96   474.96   534.43   566.30   798.98
                              823.87   895.28   978.11  1085.89  1196.51
                             1260.12  1274.85  1312.35  1330.10  1336.15
                             1389.68  1454.70  1496.68  1546.64  1548.32
                             1571.35  1636.97  1650.71  1656.06  1696.68
                             1739.09  1771.35  1784.72  1815.55  1866.41
                             1973.27  2026.61  2045.99  2143.09  2152.66
                             2168.92  4349.99  4381.58  4445.20  4466.15
                             4469.60  4490.00  4498.80  4513.17  5465.11
                             5483.11

 Zero-point correction=                           0.157675 (Hartree/Particle)
 Thermal correction to Energy=                    0.166059
 Thermal correction to Enthalpy=                  0.167003
 Thermal correction to Gibbs Free Energy=         0.125570
 Sum of electronic and zero-point Energies=           -422.953841
 Sum of electronic and thermal Energies=              -422.945456
 Sum of electronic and thermal Enthalpies=            -422.944512
 Sum of electronic and thermal Free Energies=         -422.985946

                     E (Thermal)             CV                S
                      KCal/Mol        Cal/Mol-Kelvin    Cal/Mol-Kelvin
 Total                  104.204             33.557             87.205
 Electronic               0.000              0.000              0.000
 Translational            0.889              2.981             40.409
 Rotational               0.889              2.981             28.333
 Vibrational            102.426             27.595             18.463
 Vibration     1          0.633              1.856              2.247
 Vibration     2          0.637              1.844              2.158
 Vibration     3          0.644              1.821              2.019
 Vibration     4          0.652              1.796              1.882
 Vibration     5          0.673              1.730              1.602
 Vibration     6          0.694              1.669              1.404
 Vibration     7          0.713              1.615              1.260
 Vibration     8          0.743              1.531              1.074
 Vibration     9          0.761              1.484              0.986
 Vibration    10          0.911              1.128              0.533
 Vibration    11          0.929              1.090              0.499

 Optimization completed.
    -- Stationary point found.
 Normal termination of Gaussian 09 at Mon Jan 27 17:16:59 2020.
