 Gaussian 09, Revision D.01,
 Gaussian 09:  ES64L-G09RevD.01 24-Apr-2013

 -----------------------------
 # b3lyp 6-31G(2df,p) opt Freq
 -----------------------------

 -----
 titel
 -----
 Symbolic Z-matrix:
 Charge =  0 Multiplicity = 1

 SCF Done:  E(RB3LYP) =  -423.158718219     A.U. after   13 cycles
 SCF Done:  E(RB3LYP) =  -423.158715216     A.U. after    7 cycles
 SCF Done:  E(RB3LYP) =  -423.158704147     A.U. after    9 cycles
 SCF Done:  E(RB3LYP) =  -423.158707425     A.U. after    9 cycles
 SCF Done:  E(RB3LYP) =  -423.158713622     A.U. after    6 cycles
 Optimization completed.
    -- Stationary point found.
 Normal termination of Gaussian 09 at Tue Jan 28 04:20:23 2020.

 ----------------------------------------------------------------------
 #N Geom=AllCheck Guess=TCheck SCRF=Check GenChk RB3LYP/6-31G(2df,p) Fr
 eq
 ----------------------------------------------------------------------

 Structure from the checkpoint file:  "/scratch/puck/g09_0202bc66-a858-43e1-b214-a51d6a38b841/Gau-93590.chk"
 -----
 titel
 -----
 Charge =  0 Multiplicity = 1

                         Standard orientation:
 ---------------------------------------------------------------------
 Center     Atomic      Atomic             Coordinates (Angstroms)
 Number     Number       Type             X           Y           Z
 ---------------------------------------------------------------------
      1          6           0       -2.582605    0.793319    0.558598
      2          6           0       -1.504354   -0.073249   -0.051524
      3          8           0       -0.727991   -0.618489    0.992003
      4          6           0        0.317540   -1.436619    0.506203
      5          6           0        1.234830   -0.648735   -0.457056
      6          6           0        0.317737   -0.005937   -1.522783
      7          8           0       -0.727613    0.726709   -0.915022
      8          6           0        2.045588    0.342234    0.241300
      9          6           0        2.727715    1.151084    0.810905
     10          1           0       -3.204879    1.222908   -0.229466
     11          1           0       -3.206538    0.196701    1.227641
     12          1           0       -2.118302    1.601594    1.128330
     13          1           0       -1.936109   -0.908298   -0.640354
     14          1           0        0.870428   -1.796085    1.376243
     15          1           0       -0.095148   -2.305825   -0.033797
     16          1           0        1.897598   -1.364567   -0.961835
     17          1           0        0.870642    0.692600   -2.153779
     18          1           0       -0.095459   -0.806525   -2.159877
     19          1           0        3.323887    1.869152    1.317177
 ---------------------------------------------------------------------

 SCF Done:  E(RB3LYP) =  -423.158713622     A.U. after    1 cycles

 The electronic state is 1-A.
 Alpha  occ. eigenvalues --  -19.14609 -19.14608 -10.27811 -10.23926 -10.23925
 Alpha  occ. eigenvalues --  -10.21625 -10.17785 -10.17433 -10.16890  -1.07720
 Alpha  occ. eigenvalues --   -1.00870  -0.82304  -0.75163  -0.71599  -0.68279
 Alpha  occ. eigenvalues --   -0.63811  -0.59397  -0.52546  -0.50615  -0.49973
 Alpha  occ. eigenvalues --   -0.49114  -0.46435  -0.45287  -0.41237  -0.40670
 Alpha  occ. eigenvalues --   -0.38505  -0.38389  -0.37380  -0.33428  -0.32036
 Alpha  occ. eigenvalues --   -0.28391  -0.27202  -0.26216  -0.24946
 Alpha virt. eigenvalues --    0.05193   0.05667   0.09350   0.11509   0.12305
 Alpha virt. eigenvalues --    0.12690   0.13325   0.13973   0.15853   0.16277
 Alpha virt. eigenvalues --    0.17447   0.18294   0.18565   0.18926   0.22239

 Mulliken charges:
               1
     1  C   -0.410247
     2  C    0.231930
     3  O   -0.244213
     4  C   -0.090536
     5  C   -0.195847
     6  C   -0.090801
     7  O   -0.244091
     8  C    0.361229
     9  C   -0.486423
    10  H    0.126145
    11  H    0.126092
    12  H    0.140900
    13  H    0.051314
    14  H    0.122537
    15  H    0.088151
    16  H    0.105533
    17  H    0.122579
    18  H    0.088187
    19  H    0.197562
 Sum of Mulliken charges =   0.00000

 Dipole moment (field-independent basis, Debye):
    X=              0.0978    Y=             -1.3822    Z=             -0.9756  Tot=              1.6946
 Quadrupole moment (field-independent basis, Debye-Ang):
   XX=            -50.4136   YY=            -51.0158   ZZ=            -53.0508
   XY=              0.8152   XZ=              0.5764   YZ=              2.8529

  Exact polarizability:  87.410   7.183  74.645   5.057   6.983  69.644
 Approx polarizability: 112.893  15.945 115.760  11.226  14.978 105.038

                      1                      2                      3
                      A                      A                      A
 Frequencies --     79.7830               140.7013               194.7737
 Red. masses --      3.8159                 3.8210                 4.2339
 Frc consts  --      0.0143                 0.0446                 0.0946
 IR Inten    --      0.1265                 0.9937                 2.4222

                      4                      5                      6
                      A                      A                      A
 Frequencies --    200.2569               274.3676               315.1637
 Red. masses --      1.1002                 2.9961                 2.5261
 Frc consts  --      0.0260                 0.1329                 0.1478
 IR Inten    --      0.2202                 0.2555                 2.8051

                      7                      8                      9
                      A                      A                      A
 Frequencies --    331.2787               384.0744               457.0823
 Red. masses --      2.8427                 3.0338                 4.0622
 Frc consts  --      0.1838                 0.2637                 0.5000
 IR Inten    --      2.8718                 3.6086                 0.0037

                     10                     11                     12
                      A                      A                      A
 Frequencies --    537.7073               584.3913               589.3534
 Red. masses --      2.7494                 5.5474                 5.8803
 Frc consts  --      0.4684                 1.1162                 1.2034
 IR Inten    --      0.5125                 6.3462                 3.7819

                     13                     14                     15
                      A                      A                      A
 Frequencies --    627.6676               633.8172               755.8663
 Red. masses --      1.2354                 1.2073                 3.7488
 Frc consts  --      0.2868                 0.2858                 1.2619
 IR Inten    --     37.9554                45.3822                 8.1595

                     16                     17                     18
                      A                      A                      A
 Frequencies --    827.2956               867.0948               871.7541
 Red. masses --      2.6103                 3.7560                 2.3156
 Frc consts  --      1.0526                 1.6638                 1.0368
 IR Inten    --      6.9498                15.5165                32.1229

                     19                     20                     21
                      A                      A                      A
 Frequencies --    917.4121               956.5619              1016.9054
 Red. masses --      1.9350                 2.5745                 2.1015
 Frc consts  --      0.9595                 1.3879                 1.2804
 IR Inten    --     18.1457                 7.5616                12.2208

                     22                     23                     24
                      A                      A                      A
 Frequencies --   1064.4158              1091.8463              1107.1913
 Red. masses --      2.8509                 3.4491                 1.8739
 Frc consts  --      1.9031                 2.4226                 1.3535
 IR Inten    --     27.9535                32.9763                30.1646

                     25                     26                     27
                      A                      A                      A
 Frequencies --   1135.4171              1178.9379              1188.4697
 Red. masses --      1.8524                 2.7642                 2.5332
 Frc consts  --      1.4070                 2.2636                 2.1082
 IR Inten    --     21.5271               141.1288                73.1713

                     28                     29                     30
                      A                      A                      A
 Frequencies --   1252.9123              1278.6193              1288.4870
 Red. masses --      1.6260                 1.1798                 1.2424
 Frc consts  --      1.5039                 1.1364                 1.2152
 IR Inten    --     39.9755                 7.7048                 0.2481

                     31                     32                     33
                      A                      A                      A
 Frequencies --   1357.7326              1375.5706              1388.6971
 Red. masses --      1.5289                 1.1754                 1.2548
 Frc consts  --      1.6606                 1.3104                 1.4257
 IR Inten    --     21.1266                 0.0527                 8.9628

                     34                     35                     36
                      A                      A                      A
 Frequencies --   1411.3213              1413.4544              1434.6784
 Red. masses --      1.2153                 1.2984                 1.6316
 Frc consts  --      1.4262                 1.5284                 1.9787
 IR Inten    --     10.4504                41.8700                44.1149

                     37                     38                     39
                      A                      A                      A
 Frequencies --   1480.9326              1484.4267              1494.3161
 Red. masses --      1.0471                 1.0615                 1.0849
 Frc consts  --      1.3530                 1.3781                 1.4274
 IR Inten    --      3.5215                 4.4955                 1.0616

                     40                     41                     42
                      A                      A                      A
 Frequencies --   1498.9747              2238.4518              2893.1006
 Red. masses --      1.1051                 5.9281                 1.0808
 Frc consts  --      1.4630                17.5010                 5.3298
 IR Inten    --      5.5735                 2.1984                64.0987

                     43                     44                     45
                      A                      A                      A
 Frequencies --   2957.9200              2967.3131              3022.2018
 Red. masses --      1.0706                 1.0709                 1.0825
 Frc consts  --      5.5190                 5.5558                 5.8252
 IR Inten    --     17.1383               104.7087                31.6646

                     46                     47                     48
                      A                      A                      A
 Frequencies --   3059.8628              3109.2795              3110.2862
 Red. masses --      1.0343                 1.0920                 1.0938
 Frc consts  --      5.7055                 6.2198                 6.2344
 IR Inten    --      8.6990                30.2588                14.4798

                     49                     50                     51
                      A                      A                      A
 Frequencies --   3142.3274              3142.9697              3505.2827
 Red. masses --      1.1027                 1.1026                 1.1622
 Frc consts  --      6.4152                 6.4172                 8.4132
 IR Inten    --     12.7046                13.6622                65.5850

 - Thermochemistry -
 -------------------
 Temperature   298.150 Kelvin.  Pressure   1.00000 Atm.
 Atom     1 has atomic number  6 and mass  12.00000

 Molecular mass:   126.06808 amu.
 Principal axes and moments of inertia in atomic units:
                           1         2         3
     Eigenvalues --   648.022431486.098761516.22135
           X            0.99987   0.00010  -0.01586
           Y            0.01298  -0.58007   0.81446
           Z            0.00911   0.81457   0.58000
 This molecule is an asymmetric top.
 Rotational symmetry number  1.
 Warning -- assumption of classical behavior for rotation
           may cause significant error
 Rotational temperatures (Kelvin)      0.13366     0.05828     0.05712
 Rotational constants (GHZ):           2.78500     1.21442     1.19029
 Zero-point vibrational energy     416532.0 (Joules/Mol)
                                   99.55353 (Kcal/Mol)
 Warning -- explicit consideration of  12 degrees of freedom as
           vibrations may cause significant error
 Vibrational temperatures:    114.79   202.44   280.24   288.12   394.75
          (Kelvin)            453.45   476.64   552.60   657.64   773.64
                              840.81   847.95   903.07   911.92  1087.52
                             1190.29  1247.55  1254.26  1319.95  1376.28
                             1463.10  1531.46  1570.92  1593.00  1633.61
                             1696.23  1709.94  1802.66  1839.65  1853.84
                             1953.47  1979.14  1998.02  2030.57  2033.64
                             2064.18  2130.73  2135.76  2149.98  2156.69
                             3220.63  4162.52  4255.78  4269.30  4348.27
                             4402.45  4473.55  4475.00  4521.10  4522.03
                             5043.31

 Zero-point correction=                           0.158649 (Hartree/Particle)
 Thermal correction to Energy=                    0.167337
 Thermal correction to Enthalpy=                  0.168281
 Thermal correction to Gibbs Free Energy=         0.125462
 Sum of electronic and zero-point Energies=           -423.000065
 Sum of electronic and thermal Energies=              -422.991377
 Sum of electronic and thermal Enthalpies=            -422.990432
 Sum of electronic and thermal Free Energies=         -423.033251

                     E (Thermal)             CV                S
                      KCal/Mol        Cal/Mol-Kelvin    Cal/Mol-Kelvin
 Total                  105.006             33.257             90.120
 Electronic               0.000              0.000              0.000
 Translational            0.889              2.981             40.409
 Rotational               0.889              2.981             28.770
 Vibrational            103.228             27.295             20.941
 Vibration     1          0.600              1.963              3.896
 Vibration     2          0.615              1.913              2.794
 Vibration     3          0.635              1.847              2.182
 Vibration     4          0.638              1.840              2.131
 Vibration     5          0.677              1.721              1.569
 Vibration     6          0.703              1.645              1.335
 Vibration     7          0.714              1.613              1.254
 Vibration     8          0.753              1.504              1.023
 Vibration     9          0.815              1.345              0.775
 Vibration    10          0.893              1.167              0.570
 Vibration    11          0.941              1.065              0.477
 Vibration    12          0.947              1.054              0.468

 Normal termination of Gaussian 09 at Tue Jan 28 05:00:15 2020.
