 Gaussian 09, Revision D.01,
 Gaussian 09:  ES64L-G09RevD.01 24-Apr-2013

 -----------------------------
 # b3lyp 6-31G(2df,p) opt Freq
 -----------------------------

 -----
 titel
 -----
 Symbolic Z-matrix:
 Charge =  0 Multiplicity = 1

 SCF Done:  E(RB3LYP) =  -423.110570289     A.U. after   14 cycles
 Optimization completed.
    -- Stationary point found.
 Normal termination of Gaussian 09 at Mon Jan 27 16:42:21 2020.

 ----------------------------------------------------------------------
 #N Geom=AllCheck Guess=TCheck SCRF=Check GenChk RB3LYP/6-31G(2df,p) Fr
 eq
 ----------------------------------------------------------------------

 Structure from the checkpoint file:  "/scratch/puck/g09_3d62ba27-9dd0-4663-9543-795c551c3865/Gau-178178.chk"
 -----
 titel
 -----
 Charge =  0 Multiplicity = 1

                         Standard orientation:
 ---------------------------------------------------------------------
 Center     Atomic      Atomic             Coordinates (Angstroms)
 Number     Number       Type             X           Y           Z
 ---------------------------------------------------------------------
      1          6           0        0.575574   -0.955079    1.466418
      2          6           0        0.648314   -0.330097    0.078897
      3          6           0        2.070078   -0.280559   -0.515727
      4          8           0        2.194239    1.119101   -0.195250
      5          6           0        0.780359    1.218662    0.080333
      6          8           0       -0.254988   -0.892667   -0.856808
      7          6           0       -1.608893   -1.030056   -0.462768
      8          6           0       -2.273186    0.221739   -0.088128
      9          6           0       -2.825510    1.239563    0.234785
     10          1           0        0.680413   -2.043651    1.408023
     11          1           0        1.390680   -0.563446    2.081335
     12          1           0       -0.363910   -0.716095    1.973907
     13          1           0        2.840626   -0.890743   -0.031348
     14          1           0        2.072620   -0.463998   -1.597672
     15          1           0        0.577813    1.746089    1.018364
     16          1           0        0.229947    1.691390   -0.740901
     17          1           0       -2.113122   -1.466102   -1.331514
     18          1           0       -1.712994   -1.750017    0.361825
     19          1           0       -3.316498    2.140054    0.511586
 ---------------------------------------------------------------------

 SCF Done:  E(RB3LYP) =  -423.110570290     A.U. after    1 cycles

 The electronic state is 1-A.
 Alpha  occ. eigenvalues --  -19.15364 -19.12901 -10.26156 -10.24497 -10.22379
 Alpha  occ. eigenvalues --  -10.22064 -10.19280 -10.18754 -10.18451  -1.05340
 Alpha  occ. eigenvalues --   -1.02585  -0.79082  -0.76130  -0.70659  -0.68756
 Alpha  occ. eigenvalues --   -0.66052  -0.56371  -0.53422  -0.51423  -0.49214
 Alpha  occ. eigenvalues --   -0.48927  -0.46920  -0.43746  -0.42398  -0.41409
 Alpha  occ. eigenvalues --   -0.39445  -0.38468  -0.35620  -0.32774  -0.30984
 Alpha  occ. eigenvalues --   -0.28233  -0.27736  -0.26348  -0.24440
 Alpha virt. eigenvalues --    0.02476   0.04465   0.08467   0.09477   0.11413
 Alpha virt. eigenvalues --    0.11884   0.13473   0.14119   0.14868   0.16058
 Alpha virt. eigenvalues --    0.16897   0.17858   0.18688   0.19461   0.20769

 Mulliken charges:
               1
     1  C   -0.466227
     2  C    0.368496
     3  C   -0.114437
     4  O   -0.276731
     5  C   -0.114122
     6  O   -0.288369
     7  C   -0.229376
     8  C    0.310904
     9  C   -0.466672
    10  H    0.123216
    11  H    0.135434
    12  H    0.129238
    13  H    0.099688
    14  H    0.105651
    15  H    0.100386
    16  H    0.104573
    17  H    0.144212
    18  H    0.127194
    19  H    0.206942
 Sum of Mulliken charges =   0.00000

 Dipole moment (field-independent basis, Debye):
    X=             -1.7214    Y=             -1.0307    Z=              1.0846  Tot=              2.2808
 Quadrupole moment (field-independent basis, Debye-Ang):
   XX=            -54.4892   YY=            -50.8796   ZZ=            -53.4336
   XY=             -5.1627   XZ=              0.1760   YZ=              0.7972

  Exact polarizability:  84.509 -10.302  79.623  -2.246   4.273  64.051
 Approx polarizability: 112.217 -18.010 126.279  -5.564  12.720  95.221

                      1                      2                      3
                      A                      A                      A
 Frequencies --     54.9831                89.2718               113.8091
 Red. masses --      3.2054                 5.0564                 3.7362
 Frc consts  --      0.0057                 0.0237                 0.0285
 IR Inten    --      0.3481                 0.2311                 4.9315

                      4                      5                      6
                      A                      A                      A
 Frequencies --    197.1438               251.9470               274.9802
 Red. masses --      3.5021                 2.4402                 1.3417
 Frc consts  --      0.0802                 0.0913                 0.0598
 IR Inten    --      1.2769                 0.7700                 0.3799

                      7                      8                      9
                      A                      A                      A
 Frequencies --    323.7082               351.8590               371.9614
 Red. masses --      2.3794                 2.0179                 2.3689
 Frc consts  --      0.1469                 0.1472                 0.1931
 IR Inten    --      2.9804                 4.4984                 1.5832

                     10                     11                     12
                      A                      A                      A
 Frequencies --    409.6639               431.9704               612.2924
 Red. masses --      3.5208                 2.7731                 6.4154
 Frc consts  --      0.3481                 0.3049                 1.4171
 IR Inten    --      1.6626                 5.7741                 3.8053

                     13                     14                     15
                      A                      A                      A
 Frequencies --    625.1313               651.2218               683.2163
 Red. masses --      1.2171                 4.3398                 1.2392
 Frc consts  --      0.2802                 1.0844                 0.3408
 IR Inten    --     44.6576                 4.1343                36.1342

                     16                     17                     18
                      A                      A                      A
 Frequencies --    832.0851               897.7860               906.2766
 Red. masses --      3.0715                 2.8954                 1.6138
 Frc consts  --      1.2530                 1.3750                 0.7809
 IR Inten    --      7.0515                 8.8480                 0.7782

                     19                     20                     21
                      A                      A                      A
 Frequencies --    926.8948               941.2456               975.8571
 Red. masses --      1.7265                 3.2213                 1.6625
 Frc consts  --      0.8739                 1.6815                 0.9328
 IR Inten    --      8.5844                16.3992                 2.0308

                     22                     23                     24
                      A                      A                      A
 Frequencies --   1010.7412              1025.7925              1037.0540
 Red. masses --      3.0591                10.6886                 1.8584
 Frc consts  --      1.8413                 6.6266                 1.1776
 IR Inten    --      7.6848                85.0460                 4.9187

                     25                     26                     27
                      A                      A                      A
 Frequencies --   1094.2261              1151.6416              1167.2838
 Red. masses --      5.4648                 1.0829                 1.3681
 Frc consts  --      3.8551                 0.8462                 1.0983
 IR Inten    --    109.3598                 0.0815                 0.6145

                     28                     29                     30
                      A                      A                      A
 Frequencies --   1189.5611              1235.6808              1263.9479
 Red. masses --      2.6053                 2.7145                 1.8447
 Frc consts  --      2.1721                 2.4420                 1.7363
 IR Inten    --     14.3508               129.0483                 5.8835

                     31                     32                     33
                      A                      A                      A
 Frequencies --   1295.5605              1301.3096              1376.4104
 Red. masses --      1.2719                 1.3227                 1.6638
 Frc consts  --      1.2579                 1.3197                 1.8572
 IR Inten    --     10.0979                 4.0116                 4.0686

                     34                     35                     36
                      A                      A                      A
 Frequencies --   1397.0746              1403.7570              1478.7128
 Red. masses --      1.3021                 1.2711                 1.0685
 Frc consts  --      1.4974                 1.4758                 1.3765
 IR Inten    --     19.4890                16.7139                 5.0186

                     37                     38                     39
                      A                      A                      A
 Frequencies --   1488.7440              1498.6386              1506.6306
 Red. masses --      1.0554                 1.0754                 1.0632
 Frc consts  --      1.3781                 1.4230                 1.4219
 IR Inten    --      0.8727                 1.1946                 2.8558

                     40                     41                     42
                      A                      A                      A
 Frequencies --   1526.7669              2231.6969              3003.0667
 Red. masses --      1.1170                 5.8845                 1.0679
 Frc consts  --      1.5341                17.2676                 5.6741
 IR Inten    --      2.2488                 2.9000                28.9647

                     43                     44                     45
                      A                      A                      A
 Frequencies --   3014.6912              3030.5061              3037.0499
 Red. masses --      1.0538                 1.0541                 1.0383
 Frc consts  --      5.6426                 5.7038                 5.6425
 IR Inten    --     81.2976                22.0502                10.4190

                     46                     47                     48
                      A                      A                      A
 Frequencies --   3071.0200              3071.3215              3084.0229
 Red. masses --      1.0920                 1.1098                 1.1118
 Frc consts  --      6.0679                 6.1681                 6.2303
 IR Inten    --      8.0869                41.1942                32.5873

                     49                     50                     51
                      A                      A                      A
 Frequencies --   3108.3994              3117.0380              3501.8623
 Red. masses --      1.1020                 1.1008                 1.1628
 Frc consts  --      6.2733                 6.3012                 8.4018
 IR Inten    --     18.3559                17.8636                59.2772

 - Thermochemistry -
 -------------------
 Temperature   298.150 Kelvin.  Pressure   1.00000 Atm.
 Atom     1 has atomic number  6 and mass  12.00000

 Molecular mass:   126.06808 amu.
 Principal axes and moments of inertia in atomic units:
                           1         2         3
     Eigenvalues --   638.040931535.631131735.81770
           X            0.99980  -0.01965   0.00264
           Y            0.01973   0.99928  -0.03240
           Z           -0.00200   0.03244   0.99947
 This molecule is an asymmetric top.
 Rotational symmetry number  1.
 Warning -- assumption of classical behavior for rotation
           may cause significant error
 Rotational temperatures (Kelvin)      0.13575     0.05640     0.04990
 Rotational constants (GHZ):           2.82857     1.17524     1.03971
 Zero-point vibrational energy     410579.4 (Joules/Mol)
                                   98.13083 (Kcal/Mol)
 Warning -- explicit consideration of  12 degrees of freedom as
           vibrations may cause significant error
 Vibrational temperatures:     79.11   128.44   163.75   283.65   362.50
          (Kelvin)            395.63   465.74   506.25   535.17   589.41
                              621.51   880.95   899.42   936.96   982.99
                             1197.18  1291.71  1303.93  1333.59  1354.24
                             1404.04  1454.23  1475.88  1492.09  1574.35
                             1656.95  1679.46  1711.51  1777.87  1818.54
                             1864.02  1872.29  1980.35  2010.08  2019.69
                             2127.54  2141.97  2156.20  2167.70  2196.67
                             3210.91  4320.74  4337.46  4360.22  4369.63
                             4418.51  4418.94  4437.22  4472.29  4484.72
                             5038.39

 Zero-point correction=                           0.156381 (Hartree/Particle)
 Thermal correction to Energy=                    0.165818
 Thermal correction to Enthalpy=                  0.166762
 Thermal correction to Gibbs Free Energy=         0.121806
 Sum of electronic and zero-point Energies=           -422.954189
 Sum of electronic and thermal Energies=              -422.944752
 Sum of electronic and thermal Enthalpies=            -422.943808
 Sum of electronic and thermal Free Energies=         -422.988764

                     E (Thermal)             CV                S
                      KCal/Mol        Cal/Mol-Kelvin    Cal/Mol-Kelvin
 Total                  104.052             34.786             94.618
 Electronic               0.000              0.000              0.000
 Translational            0.889              2.981             40.409
 Rotational               0.889              2.981             28.921
 Vibrational            102.275             28.824             25.288
 Vibration     1          0.596              1.976              4.630
 Vibration     2          0.602              1.957              3.676
 Vibration     3          0.607              1.938              3.203
 Vibration     4          0.637              1.844              2.160
 Vibration     5          0.664              1.759              1.717
 Vibration     6          0.677              1.720              1.565
 Vibration     7          0.708              1.628              1.291
 Vibration     8          0.728              1.571              1.158
 Vibration     9          0.744              1.530              1.072
 Vibration    10          0.774              1.449              0.928
 Vibration    11          0.793              1.401              0.852
 Vibration    12          0.972              1.006              0.429

 Optimization completed.
    -- Stationary point found.
 Normal termination of Gaussian 09 at Mon Jan 27 17:22:58 2020.
