 Gaussian 09, Revision D.01,
 Gaussian 09:  ES64L-G09RevD.01 24-Apr-2013

 -----------------------------
 # b3lyp 6-31G(2df,p) opt Freq
 -----------------------------

 -----
 titel
 -----
 Symbolic Z-matrix:
 Charge =  0 Multiplicity = 1

 SCF Done:  E(RB3LYP) =  -423.226007742     A.U. after   14 cycles
 Optimization completed.
    -- Stationary point found.
 Normal termination of Gaussian 09 at Mon Jan 27 10:18:18 2020.

 ----------------------------------------------------------------------
 #N Geom=AllCheck Guess=TCheck SCRF=Check GenChk RB3LYP/6-31G(2df,p) Fr
 eq
 ----------------------------------------------------------------------

 Structure from the checkpoint file:  "/scratch/puck/g09_8d9414e0-0b34-4646-b5f5-0c2128c15ef3/Gau-91812.chk"
 -----
 titel
 -----
 Charge =  0 Multiplicity = 1

                         Standard orientation:
 ---------------------------------------------------------------------
 Center     Atomic      Atomic             Coordinates (Angstroms)
 Number     Number       Type             X           Y           Z
 ---------------------------------------------------------------------
      1          6           0        3.195747   -0.351894    0.161588
      2          6           0        1.717267   -0.282512    0.026571
      3          6           0        0.740329   -1.216724   -0.106118
      4          6           0       -0.510916   -0.510715   -0.185895
      5          6           0       -1.874169   -1.123105   -0.344289
      6          8           0       -2.876525   -0.513686    0.465697
      7          6           0       -0.198497    0.815956   -0.093307
      8          6           0       -1.007011    2.063891   -0.120016
      9          8           0        1.154334    0.962185    0.039902
     10          1           0        3.537285    0.093956    1.103008
     11          1           0        3.520737   -1.394471    0.139913
     12          1           0        3.700839    0.180855   -0.652503
     13          1           0        0.881345   -2.286823   -0.141778
     14          1           0       -2.241479   -1.017403   -1.371832
     15          1           0       -1.807764   -2.203630   -0.143435
     16          1           0       -2.534709   -0.492239    1.366065
     17          1           0       -0.767232    2.710493    0.731710
     18          1           0       -0.822099    2.646524   -1.030865
     19          1           0       -2.065893    1.805369   -0.076277
 ---------------------------------------------------------------------

 SCF Done:  E(RB3LYP) =  -423.226007742     A.U. after    1 cycles

 The electronic state is 1-A.
 Alpha  occ. eigenvalues --  -19.19012 -19.13506 -10.22996 -10.22618 -10.22431
 Alpha  occ. eigenvalues --  -10.18936 -10.18089 -10.17393 -10.17000  -1.09443
 Alpha  occ. eigenvalues --   -1.01434  -0.79728  -0.78596  -0.72749  -0.68822
 Alpha  occ. eigenvalues --   -0.63927  -0.58175  -0.54194  -0.48885  -0.47645
 Alpha  occ. eigenvalues --   -0.46081  -0.43034  -0.42844  -0.41491  -0.41261
 Alpha  occ. eigenvalues --   -0.39572  -0.38328  -0.38061  -0.37752  -0.35316
 Alpha  occ. eigenvalues --   -0.32472  -0.27741  -0.25769  -0.20284
 Alpha virt. eigenvalues --    0.01895   0.06535   0.09770   0.11072   0.12766
 Alpha virt. eigenvalues --    0.13024   0.13839   0.16353   0.17451   0.17483
 Alpha virt. eigenvalues --    0.18075   0.18808   0.19862   0.22257   0.23923

 Mulliken charges:
               1
     1  C   -0.490626
     2  C    0.358362
     3  C   -0.385782
     4  C    0.135962
     5  C   -0.173138
     6  O   -0.407373
     7  C    0.259521
     8  C   -0.505112
     9  O   -0.213435
    10  H    0.135702
    11  H    0.133795
    12  H    0.136612
    13  H    0.103527
    14  H    0.119893
    15  H    0.094268
    16  H    0.279826
    17  H    0.130916
    18  H    0.131863
    19  H    0.155219
 Sum of Mulliken charges =   0.00000

 Dipole moment (field-independent basis, Debye):
    X=              1.2939    Y=             -0.5617    Z=              0.5042  Tot=              1.4980
 Quadrupole moment (field-independent basis, Debye-Ang):
   XX=            -55.8569   YY=            -50.5584   ZZ=            -51.2672
   XY=             -1.9447   XZ=             -0.5913   YZ=             -0.2094

  Exact polarizability: 101.136  -2.947  86.528   2.678   1.402  54.637
 Approx polarizability: 136.967   1.186 135.256   4.164   3.119  84.008

                      1                      2                      3
                      A                      A                      A
 Frequencies --     60.0950               129.6721               150.7775
 Red. masses --      2.9850                 1.1652                 1.6483
 Frc consts  --      0.0064                 0.0115                 0.0221
 IR Inten    --      1.8865                 0.1173                 0.4363

                      4                      5                      6
                      A                      A                      A
 Frequencies --    165.5199               193.0708               228.6501
 Red. masses --      1.3337                 3.5121                 2.8754
 Frc consts  --      0.0215                 0.0771                 0.0886
 IR Inten    --      1.1687                 4.8852                 4.5273

                      7                      8                      9
                      A                      A                      A
 Frequencies --    259.0203               288.4568               363.6797
 Red. masses --      2.5015                 2.6024                 1.4107
 Frc consts  --      0.0989                 0.1276                 0.1099
 IR Inten    --      2.5489                10.1262                99.7325

                     10                     11                     12
                      A                      A                      A
 Frequencies --    394.5182               453.9720               607.9728
 Red. masses --      3.2437                 3.1072                 4.0357
 Frc consts  --      0.2975                 0.3773                 0.8789
 IR Inten    --     21.1366                 5.6407                 0.3406

                     13                     14                     15
                      A                      A                      A
 Frequencies --    640.2021               640.8147               718.2384
 Red. masses --      5.1685                 3.8402                 4.3743
 Frc consts  --      1.2481                 0.9291                 1.3295
 IR Inten    --      0.7864                 7.5285                11.2231

                     16                     17                     18
                      A                      A                      A
 Frequencies --    772.2397               799.4436               946.2544
 Red. masses --      3.5354                 1.2872                 2.0679
 Frc consts  --      1.2422                 0.4847                 1.0909
 IR Inten    --      9.3608                18.0639                 5.9308

                     19                     20                     21
                      A                      A                      A
 Frequencies --    974.3438              1016.0455              1034.3560
 Red. masses --      1.5903                 2.9332                 1.7972
 Frc consts  --      0.8895                 1.7841                 1.1329
 IR Inten    --     31.8448                 9.5004                30.7342

                     22                     23                     24
                      A                      A                      A
 Frequencies --   1047.7840              1061.5092              1069.3648
 Red. masses --      4.3820                 1.4482                 1.4844
 Frc consts  --      2.8345                 0.9615                 1.0001
 IR Inten    --     57.5063                 0.4243                 4.0607

                     25                     26                     27
                      A                      A                      A
 Frequencies --   1158.0614              1164.1541              1214.9972
 Red. masses --      2.9520                 1.7195                 1.1943
 Frc consts  --      2.3325                 1.3730                 1.0387
 IR Inten    --      3.7773                 0.5692                13.3201

                     28                     29                     30
                      A                      A                      A
 Frequencies --   1245.2445              1285.8437              1357.9426
 Red. masses --      5.2071                 3.9888                 1.4160
 Frc consts  --      4.7573                 3.8857                 1.5384
 IR Inten    --     25.0826                24.2599                 1.7290

                     31                     32                     33
                      A                      A                      A
 Frequencies --   1401.5172              1415.0685              1419.2235
 Red. masses --      1.3916                 1.2950                 1.4008
 Frc consts  --      1.6105                 1.5279                 1.6624
 IR Inten    --     19.2378                 9.4259                 1.1656

                     34                     35                     36
                      A                      A                      A
 Frequencies --   1439.3659              1473.0415              1486.9981
 Red. masses --      1.9859                 1.0428                 1.0679
 Frc consts  --      2.4241                 1.3332                 1.3913
 IR Inten    --     42.3978                 4.9995                 3.1832

                     37                     38                     39
                      A                      A                      A
 Frequencies --   1489.8471              1493.9406              1508.2101
 Red. masses --      1.0554                 1.1468                 1.0830
 Frc consts  --      1.3802                 1.5080                 1.4514
 IR Inten    --      4.6084                 6.0832                 0.1283

                     40                     41                     42
                      A                      A                      A
 Frequencies --   1614.5555              1667.5040              2983.8853
 Red. masses --      6.6968                 6.9148                 1.0702
 Frc consts  --     10.2854                11.3283                 5.6140
 IR Inten    --     30.5023                10.5082                67.1120

                     43                     44                     45
                      A                      A                      A
 Frequencies --   3025.4996              3027.9385              3050.1878
 Red. masses --      1.0405                 1.0384                 1.0917
 Frc consts  --      5.6115                 5.6094                 5.9842
 IR Inten    --     37.0416                35.6113                28.3263

                     46                     47                     48
                      A                      A                      A
 Frequencies --   3074.3782              3076.5678              3128.0747
 Red. masses --      1.0985                 1.1001                 1.0980
 Frc consts  --      6.1173                 6.1353                 6.3300
 IR Inten    --     14.6931                17.6670                10.4453

                     49                     50                     51
                      A                      A                      A
 Frequencies --   3146.9784              3242.6537              3806.5448
 Red. masses --      1.0970                 1.0966                 1.0660
 Frc consts  --      6.4011                 6.7937                 9.1003
 IR Inten    --      1.1726                 4.8768                14.4906

 - Thermochemistry -
 -------------------
 Temperature   298.150 Kelvin.  Pressure   1.00000 Atm.
 Atom     1 has atomic number  6 and mass  12.00000

 Molecular mass:   126.06808 amu.
 Principal axes and moments of inertia in atomic units:
                           1         2         3
     Eigenvalues --   574.355501605.193892085.52927
           X            0.99975  -0.02196   0.00505
           Y            0.02195   0.99976   0.00176
           Z           -0.00508  -0.00164   0.99999
 This molecule is an asymmetric top.
 Rotational symmetry number  1.
 Warning -- assumption of classical behavior for rotation
           may cause significant error
 Rotational temperatures (Kelvin)      0.15080     0.05396     0.04153
 Rotational constants (GHZ):           3.14220     1.12431     0.86536
 Zero-point vibrational energy     415189.3 (Joules/Mol)
                                   99.23262 (Kcal/Mol)
 Warning -- explicit consideration of  12 degrees of freedom as
           vibrations may cause significant error
 Vibrational temperatures:     86.46   186.57   216.93   238.15   277.79
          (Kelvin)            328.98   372.67   415.02   523.25   567.62
                              653.16   874.74   921.11   921.99  1033.38
                             1111.08  1150.22  1361.45  1401.86  1461.86
                             1488.21  1507.53  1527.27  1538.58  1666.19
                             1674.96  1748.11  1791.63  1850.04  1953.77
                             2016.47  2035.97  2041.94  2070.92  2119.38
                             2139.46  2143.56  2149.44  2169.98  2322.98
                             2399.16  4293.14  4353.01  4356.52  4388.53
                             4423.34  4426.49  4500.60  4527.79  4665.45
                             5476.76

 Zero-point correction=                           0.158137 (Hartree/Particle)
 Thermal correction to Energy=                    0.167734
 Thermal correction to Enthalpy=                  0.168679
 Thermal correction to Gibbs Free Energy=         0.123532
 Sum of electronic and zero-point Energies=           -423.067871
 Sum of electronic and thermal Energies=              -423.058273
 Sum of electronic and thermal Enthalpies=            -423.057329
 Sum of electronic and thermal Free Energies=         -423.102476

                     E (Thermal)             CV                S
                      KCal/Mol        Cal/Mol-Kelvin    Cal/Mol-Kelvin
 Total                  105.255             34.656             95.018
 Electronic               0.000              0.000              0.000
 Translational            0.889              2.981             40.409
 Rotational               0.889              2.981             29.043
 Vibrational            103.477             28.695             25.567
 Vibration     1          0.597              1.973              4.454
 Vibration     2          0.612              1.924              2.951
 Vibration     3          0.618              1.902              2.662
 Vibration     4          0.624              1.885              2.486
 Vibration     5          0.635              1.849              2.198
 Vibration     6          0.651              1.797              1.890
 Vibration     7          0.668              1.748              1.668
 Vibration     8          0.685              1.695              1.483
 Vibration     9          0.737              1.547              1.106
 Vibration    10          0.761              1.482              0.983
 Vibration    11          0.812              1.352              0.784
 Vibration    12          0.967              1.015              0.436

 Optimization completed.
    -- Stationary point found.
 Normal termination of Gaussian 09 at Mon Jan 27 10:57:12 2020.
