 Gaussian 09, Revision D.01,
 Gaussian 09:  ES64L-G09RevD.01 24-Apr-2013

 -----------------------------
 # b3lyp 6-31G(2df,p) opt Freq
 -----------------------------

 -----
 titel
 -----
 Symbolic Z-matrix:
 Charge =  0 Multiplicity = 1

 SCF Done:  E(RB3LYP) =  -423.119360104     A.U. after   13 cycles
 Optimization completed.
    -- Stationary point found.
 Normal termination of Gaussian 09 at Tue Jan 28 13:38:56 2020.

 ----------------------------------------------------------------------
 #N Geom=AllCheck Guess=TCheck SCRF=Check GenChk RB3LYP/6-31G(2df,p) Fr
 eq
 ----------------------------------------------------------------------

 Structure from the checkpoint file:  "/scratch/puck/g09_19ba256f-8abb-4556-b362-1153151b9ee6/Gau-9182.chk"
 -----
 titel
 -----
 Charge =  0 Multiplicity = 1

                         Standard orientation:
 ---------------------------------------------------------------------
 Center     Atomic      Atomic             Coordinates (Angstroms)
 Number     Number       Type             X           Y           Z
 ---------------------------------------------------------------------
      1          8           0        3.095691    0.108192   -0.038077
      2          6           0        1.948733   -0.715256   -0.189844
      3          6           0        0.800762   -0.059596    0.564915
      4          6           0        0.367525    1.323478   -0.023639
      5          6           0       -1.096761    1.045795   -0.336464
      6          6           0       -1.260337   -0.411376   -0.861219
      7          8           0       -2.567798   -0.544164   -0.203642
      8          6           0       -1.704513    0.135464    0.771600
      9          6           0       -0.518577   -0.819259    0.449427
     10          1           0        3.817304   -0.282142   -0.539510
     11          1           0        1.677701   -0.827376   -1.253353
     12          1           0        2.128709   -1.726418    0.209700
     13          1           0        1.106743    0.039728    1.612522
     14          1           0        0.492421    2.139187    0.694164
     15          1           0        0.948743    1.586014   -0.912867
     16          1           0       -1.729989    1.819504   -0.769426
     17          1           0       -1.160576   -0.804371   -1.873832
     18          1           0       -2.135282    0.403608    1.737365
     19          1           0       -0.589914   -1.855449    0.780331
 ---------------------------------------------------------------------

 SCF Done:  E(RB3LYP) =  -423.119360104     A.U. after    1 cycles

 The electronic state is 1-A.
 Alpha  occ. eigenvalues --  -19.13757 -19.12459 -10.24142 -10.24114 -10.22994
 Alpha  occ. eigenvalues --  -10.19391 -10.19256 -10.18881 -10.18062  -1.05278
 Alpha  occ. eigenvalues --   -1.01834  -0.84967  -0.73965  -0.70293  -0.65157
 Alpha  occ. eigenvalues --   -0.64123  -0.56183  -0.53132  -0.51950  -0.50742
 Alpha  occ. eigenvalues --   -0.47403  -0.45511  -0.42996  -0.39043  -0.38853
 Alpha  occ. eigenvalues --   -0.38385  -0.34891  -0.34564  -0.32773  -0.32121
 Alpha  occ. eigenvalues --   -0.30531  -0.29759  -0.27091  -0.22653
 Alpha virt. eigenvalues --    0.07066   0.08312   0.11146   0.11946   0.12893
 Alpha virt. eigenvalues --    0.13343   0.13882   0.14559   0.15262   0.15822
 Alpha virt. eigenvalues --    0.16503   0.17898   0.19880   0.20419   0.20782

 Mulliken charges:
               1
     1  O   -0.420087
     2  C   -0.091274
     3  C   -0.003210
     4  C   -0.260107
     5  C   -0.030029
     6  C    0.052383
     7  O   -0.319257
     8  C    0.041812
     9  C   -0.050232
    10  H    0.287317
    11  H    0.082720
    12  H    0.086415
    13  H    0.081738
    14  H    0.105712
    15  H    0.109596
    16  H    0.076212
    17  H    0.086989
    18  H    0.088411
    19  H    0.074891
 Sum of Mulliken charges =   0.00000

 Dipole moment (field-independent basis, Debye):
    X=              2.1101    Y=             -0.3575    Z=             -0.4434  Tot=              2.1856
 Quadrupole moment (field-independent basis, Debye-Ang):
   XX=            -57.9474   YY=            -52.4167   ZZ=            -50.0414
   XY=             -6.2997   XZ=             -4.7195   YZ=              0.6859

  Exact polarizability:  83.753  -1.026  71.020  -1.338   0.683  67.979
 Approx polarizability: 113.037   1.510 106.545  -1.223   2.581 108.390

                      1                      2                      3
                      A                      A                      A
 Frequencies --     93.7482               128.5644               200.9226
 Red. masses --      4.2961                 3.1094                 2.6433
 Frc consts  --      0.0222                 0.0303                 0.0629
 IR Inten    --      1.8686                 5.3536                 7.1606

                      4                      5                      6
                      A                      A                      A
 Frequencies --    273.3099               338.2125               393.2960
 Red. masses --      1.1131                 2.9258                 3.8171
 Frc consts  --      0.0490                 0.1972                 0.3479
 IR Inten    --     94.6622                 2.8865                 2.3736

                      7                      8                      9
                      A                      A                      A
 Frequencies --    457.3258               510.1593               675.2249
 Red. masses --      2.9010                 3.7577                 4.5271
 Frc consts  --      0.3575                 0.5762                 1.2161
 IR Inten    --      5.4271                 3.7646                 5.4850

                     10                     11                     12
                      A                      A                      A
 Frequencies --    721.6590               770.2763               787.8862
 Red. masses --      3.8214                 3.2262                 3.5754
 Frc consts  --      1.1725                 1.1278                 1.3077
 IR Inten    --      6.9990                 5.0497                10.8477

                     13                     14                     15
                      A                      A                      A
 Frequencies --    834.6795               881.6481               899.2538
 Red. masses --      2.7478                 3.5572                 2.3076
 Frc consts  --      1.1279                 1.6291                 1.0994
 IR Inten    --      2.5355                 9.7039                18.6716

                     16                     17                     18
                      A                      A                      A
 Frequencies --    905.9487               936.1889               968.3652
 Red. masses --      2.5366                 1.4626                 2.3094
 Frc consts  --      1.2266                 0.7553                 1.2759
 IR Inten    --     25.2449                 0.2011                 1.1122

                     19                     20                     21
                      A                      A                      A
 Frequencies --    979.7994               992.2781              1025.7410
 Red. masses --      1.6227                 1.3720                 1.8034
 Frc consts  --      0.9179                 0.7959                 1.1179
 IR Inten    --      1.4679                 3.9882                 1.9663

                     22                     23                     24
                      A                      A                      A
 Frequencies --   1070.4643              1076.9081              1089.8756
 Red. masses --      1.8959                 4.8916                 1.4573
 Frc consts  --      1.2800                 3.3424                 1.0199
 IR Inten    --      4.7545                58.7729                13.7916

                     25                     26                     27
                      A                      A                      A
 Frequencies --   1130.7185              1151.1042              1167.5495
 Red. masses --      3.2167                 1.5642                 1.3890
 Frc consts  --      2.4231                 1.2211                 1.1156
 IR Inten    --      0.6908                 4.5024                 2.7522

                     28                     29                     30
                      A                      A                      A
 Frequencies --   1179.1563              1217.8962              1232.2805
 Red. masses --      1.4228                 1.3189                 1.6564
 Frc consts  --      1.1655                 1.1526                 1.4819
 IR Inten    --     11.2684                12.1031                 1.3803

                     31                     32                     33
                      A                      A                      A
 Frequencies --   1239.2819              1257.7304              1270.1826
 Red. masses --      1.2495                 1.6388                 1.5861
 Frc consts  --      1.1306                 1.5274                 1.5077
 IR Inten    --     11.3924                39.8994                 1.7239

                     34                     35                     36
                      A                      A                      A
 Frequencies --   1276.3805              1282.9059              1322.5705
 Red. masses --      1.5085                 1.4979                 1.6513
 Frc consts  --      1.4480                 1.4525                 1.7018
 IR Inten    --      4.0267                 4.0711                 6.7792

                     37                     38                     39
                      A                      A                      A
 Frequencies --   1348.5929              1387.6043              1460.8688
 Red. masses --      1.4247                 1.7276                 1.4808
 Frc consts  --      1.5266                 1.9598                 1.8619
 IR Inten    --      5.9424                 0.9967                 6.4190

                     40                     41                     42
                      A                      A                      A
 Frequencies --   1498.6576              1521.1565              2954.7580
 Red. masses --      1.0898                 1.0853                 1.0569
 Frc consts  --      1.4421                 1.4797                 5.4364
 IR Inten    --      1.4453                 4.6704                48.8954

                     43                     44                     45
                      A                      A                      A
 Frequencies --   2984.7438              3044.0281              3057.3446
 Red. masses --      1.1025                 1.0842                 1.0613
 Frc consts  --      5.7870                 5.9193                 5.8448
 IR Inten    --     51.0133                29.1953                29.4930

                     46                     47                     48
                      A                      A                      A
 Frequencies --   3096.0221              3104.7077              3106.4786
 Red. masses --      1.1049                 1.0893                 1.0899
 Frc consts  --      6.2400                 6.1864                 6.1971
 IR Inten    --     18.4229                96.7674                 1.1880

                     49                     50                     51
                      A                      A                      A
 Frequencies --   3125.6681              3134.9903              3831.1856
 Red. masses --      1.0892                 1.0944                 1.0664
 Frc consts  --      6.2694                 6.3374                 9.2223
 IR Inten    --     48.6937                16.9783                22.1653

 - Thermochemistry -
 -------------------
 Temperature   298.150 Kelvin.  Pressure   1.00000 Atm.
 Atom     1 has atomic number  8 and mass  15.99491

 Molecular mass:   126.06808 amu.
 Principal axes and moments of inertia in atomic units:
                           1         2         3
     Eigenvalues --   401.477491633.322801760.46275
           X            0.99984  -0.01572  -0.00829
           Y            0.01579   0.99983   0.00928
           Z            0.00815  -0.00941   0.99992
 This molecule is an asymmetric top.
 Rotational symmetry number  1.
 Rotational temperatures (Kelvin)      0.21574     0.05303     0.04920
 Rotational constants (GHZ):           4.49525     1.10495     1.02515
 Zero-point vibrational energy     421063.4 (Joules/Mol)
                                  100.63656 (Kcal/Mol)
 Warning -- explicit consideration of   8 degrees of freedom as
           vibrations may cause significant error
 Vibrational temperatures:    134.88   184.98   289.08   393.23   486.61
          (Kelvin)            565.86   657.99   734.00   971.50  1038.31
                             1108.25  1133.59  1200.92  1268.49  1293.82
                             1303.46  1346.97  1393.26  1409.71  1427.67
                             1475.81  1540.16  1549.43  1568.09  1626.85
                             1656.18  1679.84  1696.54  1752.28  1772.97
                             1783.05  1809.59  1827.51  1836.42  1845.81
                             1902.88  1940.32  1996.45  2101.86  2156.23
                             2188.60  4251.23  4294.38  4379.67  4398.83
                             4454.48  4466.98  4469.52  4497.13  4510.55
                             5512.21

 Zero-point correction=                           0.160375 (Hartree/Particle)
 Thermal correction to Energy=                    0.167942
 Thermal correction to Enthalpy=                  0.168887
 Thermal correction to Gibbs Free Energy=         0.128153
 Sum of electronic and zero-point Energies=           -422.958986
 Sum of electronic and thermal Energies=              -422.951418
 Sum of electronic and thermal Enthalpies=            -422.950473
 Sum of electronic and thermal Free Energies=         -422.991207

                     E (Thermal)             CV                S
                      KCal/Mol        Cal/Mol-Kelvin    Cal/Mol-Kelvin
 Total                  105.385             29.859             85.730
 Electronic               0.000              0.000              0.000
 Translational            0.889              2.981             40.409
 Rotational               0.889              2.981             28.536
 Vibrational            103.608             23.898             16.785
 Vibration     1          0.603              1.954              3.580
 Vibration     2          0.611              1.925              2.967
 Vibration     3          0.638              1.839              2.125
 Vibration     4          0.676              1.723              1.575
 Vibration     5          0.719              1.599              1.221
 Vibration     6          0.760              1.485              0.988
 Vibration     7          0.815              1.345              0.774
 Vibration     8          0.865              1.227              0.633

 Normal termination of Gaussian 09 at Tue Jan 28 14:29:41 2020.
