 Gaussian 09, Revision D.01,
 Gaussian 09:  ES64L-G09RevD.01 24-Apr-2013

 -----------------------------
 # b3lyp 6-31G(2df,p) opt Freq
 -----------------------------

 -----
 titel
 -----
 Symbolic Z-matrix:
 Charge =  0 Multiplicity = 1

 SCF Done:  E(RB3LYP) =  -423.195466762     A.U. after   14 cycles
 Optimization completed.
    -- Stationary point found.
 Normal termination of Gaussian 09 at Mon Jan 27 13:05:50 2020.

 ----------------------------------------------------------------------
 #N Geom=AllCheck Guess=TCheck SCRF=Check GenChk RB3LYP/6-31G(2df,p) Fr
 eq
 ----------------------------------------------------------------------

 Structure from the checkpoint file:  "/scratch/puck/g09_bedfcc7e-5046-463a-8a5f-f230b7cbef6c/Gau-157848.chk"
 -----
 titel
 -----
 Charge =  0 Multiplicity = 1

                         Standard orientation:
 ---------------------------------------------------------------------
 Center     Atomic      Atomic             Coordinates (Angstroms)
 Number     Number       Type             X           Y           Z
 ---------------------------------------------------------------------
      1          8           0       -0.519807    2.138006   -0.159514
      2          6           0       -0.831949    0.975611   -0.158148
      3          6           0       -2.193481    0.401997    0.238717
      4          6           0       -1.926920   -1.090065    0.484524
      5          6           0       -0.801961   -1.439561   -0.517029
      6          6           0        0.105282   -0.191917   -0.547334
      7          6           0        1.270683   -0.264373    0.419918
      8          6           0        2.475352    0.547529    0.234458
      9          8           0        2.474689   -0.851690   -0.074715
     10          1           0       -2.622697    0.952489    1.078769
     11          1           0       -2.867244    0.543026   -0.617860
     12          1           0       -1.577351   -1.241994    1.512573
     13          1           0       -2.813811   -1.714023    0.352691
     14          1           0       -0.256710   -2.347150   -0.246036
     15          1           0       -1.232454   -1.605829   -1.510586
     16          1           0        0.521823    0.007430   -1.539121
     17          1           0        1.016717   -0.573553    1.435964
     18          1           0        2.536892    1.218268   -0.620141
     19          1           0        3.073742    0.835476    1.096940
 ---------------------------------------------------------------------

 SCF Done:  E(RB3LYP) =  -423.195466762     A.U. after    1 cycles

 The electronic state is 1-A.
 Alpha  occ. eigenvalues --  -19.15132 -19.13481 -10.27124 -10.24414 -10.23283
 Alpha  occ. eigenvalues --  -10.19911 -10.19672 -10.19532 -10.19361  -1.07126
 Alpha  occ. eigenvalues --   -1.04512  -0.84556  -0.75034  -0.69734  -0.66362
 Alpha  occ. eigenvalues --   -0.62413  -0.58469  -0.54648  -0.50032  -0.48958
 Alpha  occ. eigenvalues --   -0.46872  -0.45769  -0.43212  -0.41773  -0.39683
 Alpha  occ. eigenvalues --   -0.39607  -0.38712  -0.36027  -0.35564  -0.34508
 Alpha  occ. eigenvalues --   -0.33922  -0.30311  -0.27092  -0.24119
 Alpha virt. eigenvalues --   -0.02497   0.07739   0.09885   0.10796   0.11422
 Alpha virt. eigenvalues --    0.12728   0.13679   0.13914   0.15552   0.16204
 Alpha virt. eigenvalues --    0.17470   0.17778   0.18815   0.20525   0.21584

 Mulliken charges:
               1
     1  O   -0.314391
     2  C    0.392813
     3  C   -0.310698
     4  C   -0.219040
     5  C   -0.241355
     6  C   -0.127317
     7  C    0.098395
     8  C   -0.175110
     9  O   -0.245449
    10  H    0.128834
    11  H    0.132103
    12  H    0.109917
    13  H    0.107630
    14  H    0.117471
    15  H    0.105682
    16  H    0.104435
    17  H    0.093634
    18  H    0.125101
    19  H    0.117345
 Sum of Mulliken charges =   0.00000

 Dipole moment (field-independent basis, Debye):
    X=             -1.7475    Y=             -1.2245    Z=              0.4603  Tot=              2.1829
 Quadrupole moment (field-independent basis, Debye-Ang):
   XX=            -52.6625   YY=            -60.5543   ZZ=            -50.3352
   XY=              5.6083   XZ=              1.5495   YZ=             -0.0729

  Exact polarizability:  86.996   5.534  75.112  -0.630  -0.090  62.643
 Approx polarizability: 112.849   6.089 117.471  -1.871   0.349  96.354

                      1                      2                      3
                      A                      A                      A
 Frequencies --     54.7445                60.9465               154.1859
 Red. masses --      3.9854                 3.2701                 3.5546
 Frc consts  --      0.0070                 0.0072                 0.0498
 IR Inten    --      2.5128                 4.7686                 5.1014

                      4                      5                      6
                      A                      A                      A
 Frequencies --    174.4462               290.2829               319.1095
 Red. masses --      2.3880                 2.2301                 4.5886
 Frc consts  --      0.0428                 0.1107                 0.2753
 IR Inten    --      2.5321                 0.0453                 2.9873

                      7                      8                      9
                      A                      A                      A
 Frequencies --    406.1650               492.6726               525.2321
 Red. masses --      3.7795                 2.3926                 2.7805
 Frc consts  --      0.3674                 0.3422                 0.4519
 IR Inten    --      0.4340                 6.7846                12.1483

                     10                     11                     12
                      A                      A                      A
 Frequencies --    609.1459               629.4953               775.5707
 Red. masses --      2.6313                 5.0099                 1.8342
 Frc consts  --      0.5753                 1.1697                 0.6500
 IR Inten    --      2.3350                 2.1045                 3.9703

                     13                     14                     15
                      A                      A                      A
 Frequencies --    821.0916               830.5057               874.6885
 Red. masses --      3.7583                 2.1171                 4.0357
 Frc consts  --      1.4929                 0.8604                 1.8192
 IR Inten    --      8.2557                23.1259                 7.2705

                     16                     17                     18
                      A                      A                      A
 Frequencies --    885.7651               903.6914               944.6628
 Red. masses --      1.6036                 2.8669                 2.5218
 Frc consts  --      0.7413                 1.3794                 1.3259
 IR Inten    --      7.5863                 4.8889                35.3464

                     19                     20                     21
                      A                      A                      A
 Frequencies --    983.9915              1019.6463              1043.1658
 Red. masses --      1.7424                 1.5821                 1.3920
 Frc consts  --      0.9940                 0.9691                 0.8925
 IR Inten    --      1.4333                 5.2881                 2.4197

                     22                     23                     24
                      A                      A                      A
 Frequencies --   1063.7110              1100.0957              1144.2118
 Red. masses --      1.7663                 1.5097                 3.2440
 Frc consts  --      1.1775                 1.0764                 2.5023
 IR Inten    --      1.2647                 6.1759                66.9739

                     25                     26                     27
                      A                      A                      A
 Frequencies --   1151.1437              1167.4924              1170.0399
 Red. masses --      1.4511                 1.4013                 1.4536
 Frc consts  --      1.1329                 1.1254                 1.1725
 IR Inten    --      5.5647                 6.7164                 0.7002

                     28                     29                     30
                      A                      A                      A
 Frequencies --   1196.5180              1234.1306              1261.2104
 Red. masses --      1.7780                 1.5197                 1.3826
 Frc consts  --      1.4997                 1.3637                 1.2957
 IR Inten    --      2.7439                 1.1114                 4.7461

                     31                     32                     33
                      A                      A                      A
 Frequencies --   1282.9958              1298.2671              1304.8901
 Red. masses --      1.4861                 1.5388                 1.3654
 Frc consts  --      1.4412                 1.5282                 1.3698
 IR Inten    --      2.9210                 4.3798                 1.3843

                     34                     35                     36
                      A                      A                      A
 Frequencies --   1339.5629              1344.2992              1437.8673
 Red. masses --      1.5052                 1.3172                 1.6923
 Frc consts  --      1.5914                 1.4024                 2.0615
 IR Inten    --      8.0283                 1.2828                27.3299

                     37                     38                     39
                      A                      A                      A
 Frequencies --   1450.5518              1493.4402              1505.5979
 Red. masses --      1.0925                 1.0818                 1.0989
 Frc consts  --      1.3544                 1.4216                 1.4677
 IR Inten    --      4.7896                 4.0072                 2.6949

                     40                     41                     42
                      A                      A                      A
 Frequencies --   1532.0767              1841.8648              3026.0844
 Red. masses --      1.3337                12.7535                 1.0697
 Frc consts  --      1.8445                25.4914                 5.7716
 IR Inten    --      4.9505               170.9823                 4.9339

                     43                     44                     45
                      A                      A                      A
 Frequencies --   3039.3548              3046.7827              3070.0628
 Red. masses --      1.0683                 1.0635                 1.0825
 Frc consts  --      5.8144                 5.8165                 6.0112
 IR Inten    --     19.0602                27.3405                 1.4114

                     46                     47                     48
                      A                      A                      A
 Frequencies --   3087.9839              3094.4451              3097.9928
 Red. masses --      1.0793                 1.0592                 1.0953
 Frc consts  --      6.0638                 5.9760                 6.1934
 IR Inten    --     30.8534                16.3583                20.8572

                     49                     50                     51
                      A                      A                      A
 Frequencies --   3104.5808              3111.5347              3181.9253
 Red. masses --      1.0999                 1.0962                 1.1196
 Frc consts  --      6.2460                 6.2529                 6.6788
 IR Inten    --     28.2313                16.2911                21.5162

 - Thermochemistry -
 -------------------
 Temperature   298.150 Kelvin.  Pressure   1.00000 Atm.
 Atom     1 has atomic number  8 and mass  15.99491

 Molecular mass:   126.06808 amu.
 Principal axes and moments of inertia in atomic units:
                           1         2         3
     Eigenvalues --   657.480681374.649191844.41918
           X            0.99865   0.05195  -0.00014
           Y           -0.05195   0.99864   0.00380
           Z            0.00034  -0.00379   0.99999
 This molecule is an asymmetric top.
 Rotational symmetry number  1.
 Warning -- assumption of classical behavior for rotation
           may cause significant error
 Rotational temperatures (Kelvin)      0.13174     0.06301     0.04696
 Rotational constants (GHZ):           2.74493     1.31287     0.97849
 Zero-point vibrational energy     418572.9 (Joules/Mol)
                                  100.04132 (Kcal/Mol)
 Warning -- explicit consideration of  10 degrees of freedom as
           vibrations may cause significant error
 Vibrational temperatures:     78.76    87.69   221.84   250.99   417.65
          (Kelvin)            459.13   584.38   708.85   755.69   876.42
                              905.70  1115.87  1181.37  1194.91  1258.48
                             1274.42  1300.21  1359.16  1415.74  1467.04
                             1500.88  1530.44  1582.79  1646.26  1656.24
                             1679.76  1683.42  1721.52  1775.64  1814.60
                             1845.94  1867.91  1877.44  1927.33  1934.14
                             2068.77  2087.02  2148.72  2166.22  2204.31
                             2650.03  4353.86  4372.95  4383.64  4417.13
                             4442.91  4452.21  4457.32  4466.79  4476.80
                             4578.08

 Zero-point correction=                           0.159426 (Hartree/Particle)
 Thermal correction to Energy=                    0.167808
 Thermal correction to Enthalpy=                  0.168752
 Thermal correction to Gibbs Free Energy=         0.125382
 Sum of electronic and zero-point Energies=           -423.036041
 Sum of electronic and thermal Energies=              -423.027659
 Sum of electronic and thermal Enthalpies=            -423.026715
 Sum of electronic and thermal Free Energies=         -423.070085

                     E (Thermal)             CV                S
                      KCal/Mol        Cal/Mol-Kelvin    Cal/Mol-Kelvin
 Total                  105.301             31.114             91.280
 Electronic               0.000              0.000              0.000
 Translational            0.889              2.981             40.409
 Rotational               0.889              2.981             28.901
 Vibrational            103.524             25.153             21.970
 Vibration     1          0.596              1.976              4.638
 Vibration     2          0.597              1.973              4.426
 Vibration     3          0.620              1.898              2.620
 Vibration     4          0.627              1.874              2.387
 Vibration     5          0.686              1.692              1.472
 Vibration     6          0.705              1.637              1.315
 Vibration     7          0.771              1.457              0.940
 Vibration     8          0.848              1.266              0.677
 Vibration     9          0.880              1.194              0.598
 Vibration    10          0.968              1.012              0.434

 Optimization completed.
    -- Stationary point found.
 Normal termination of Gaussian 09 at Mon Jan 27 13:51:44 2020.
