 Gaussian 09, Revision D.01,
 Gaussian 09:  ES64L-G09RevD.01 24-Apr-2013

 -----------------------------
 # b3lyp 6-31G(2df,p) opt Freq
 -----------------------------

 -----
 titel
 -----
 Symbolic Z-matrix:
 Charge =  0 Multiplicity = 1

 SCF Done:  E(RB3LYP) =  -423.219149059     A.U. after   14 cycles
 Optimization completed.
    -- Stationary point found.
 Normal termination of Gaussian 09 at Tue Jan 28 03:54:47 2020.

 ----------------------------------------------------------------------
 #N Geom=AllCheck Guess=TCheck SCRF=Check GenChk RB3LYP/6-31G(2df,p) Fr
 eq
 ----------------------------------------------------------------------

 Structure from the checkpoint file:  "/scratch/puck/g09_13a73ecc-fdfb-46d2-aed6-bec7b9287826/Gau-196302.chk"
 -----
 titel
 -----
 Charge =  0 Multiplicity = 1

                         Standard orientation:
 ---------------------------------------------------------------------
 Center     Atomic      Atomic             Coordinates (Angstroms)
 Number     Number       Type             X           Y           Z
 ---------------------------------------------------------------------
      1          6           0        2.514794   -1.250137    0.060313
      2          6           0        1.868340    0.115998   -0.092275
      3          8           0        2.525218    1.095864   -0.385530
      4          6           0        0.400192    0.201644    0.131289
      5          6           0       -0.289798    1.346211    0.032074
      6          6           0       -1.749395    1.165900    0.330149
      7          6           0       -1.938496   -0.367711    0.335763
      8          8           0       -2.478433   -0.707801   -0.935611
      9          6           0       -0.509121   -0.945668    0.528349
     10          1           0        2.097759   -1.954541   -0.668923
     11          1           0        3.590841   -1.162933   -0.092214
     12          1           0        2.313485   -1.667057    1.053768
     13          1           0        0.165854    2.297725   -0.214957
     14          1           0       -2.007814    1.611966    1.300192
     15          1           0       -2.408024    1.623871   -0.415076
     16          1           0       -2.616731   -0.694496    1.135525
     17          1           0       -2.576350   -1.664685   -0.971709
     18          1           0       -0.339076   -1.245998    1.571514
     19          1           0       -0.373311   -1.845772   -0.082964
 ---------------------------------------------------------------------

 SCF Done:  E(RB3LYP) =  -423.219149059     A.U. after    1 cycles

 The electronic state is 1-A.
 Alpha  occ. eigenvalues --  -19.13998 -19.11667 -10.26295 -10.24108 -10.19528
 Alpha  occ. eigenvalues --  -10.19367 -10.19076 -10.18806 -10.18451  -1.02692
 Alpha  occ. eigenvalues --   -1.02317  -0.84715  -0.75251  -0.71350  -0.71102
 Alpha  occ. eigenvalues --   -0.59940  -0.57659  -0.52674  -0.51131  -0.48102
 Alpha  occ. eigenvalues --   -0.45061  -0.43019  -0.42772  -0.41492  -0.40464
 Alpha  occ. eigenvalues --   -0.38936  -0.37904  -0.36755  -0.35927  -0.35450
 Alpha  occ. eigenvalues --   -0.32566  -0.27558  -0.25141  -0.23842
 Alpha virt. eigenvalues --   -0.04489   0.06820   0.07217   0.09231   0.11109
 Alpha virt. eigenvalues --    0.12251   0.15033   0.15488   0.16093   0.16399
 Alpha virt. eigenvalues --    0.17423   0.18301   0.19023   0.21678   0.23842

 Mulliken charges:
               1
     1  C   -0.489311
     2  C    0.284381
     3  O   -0.309397
     4  C    0.246727
     5  C   -0.124053
     6  C   -0.262111
     7  C    0.116957
     8  O   -0.435430
     9  C   -0.362361
    10  H    0.137920
    11  H    0.139603
    12  H    0.134114
    13  H    0.123389
    14  H    0.115094
    15  H    0.131151
    16  H    0.065651
    17  H    0.281274
    18  H    0.107951
    19  H    0.098451
 Sum of Mulliken charges =   0.00000

 Dipole moment (field-independent basis, Debye):
    X=             -1.9486    Y=             -2.6852    Z=              1.6140  Tot=              3.6895
 Quadrupole moment (field-independent basis, Debye-Ang):
   XX=            -59.0242   YY=            -49.0202   ZZ=            -53.6648
   XY=             -3.8364   XZ=             -0.7705   YZ=              1.5787

  Exact polarizability:  96.894  -6.804  84.060  -3.176  -2.002  57.795
 Approx polarizability: 131.942  -9.178 131.636  -4.603  -5.090  91.251

                      1                      2                      3
                      A                      A                      A
 Frequencies --     54.9878                80.2533               154.1175
 Red. masses --      3.8968                 3.8393                 1.0561
 Frc consts  --      0.0069                 0.0146                 0.0148
 IR Inten    --      2.3545                 0.2850                 0.1513

                      4                      5                      6
                      A                      A                      A
 Frequencies --    187.7585               192.0989               308.4650
 Red. masses --      3.3992                 3.0139                 1.0940
 Frc consts  --      0.0706                 0.0655                 0.0613
 IR Inten    --      1.8027                 0.3754               116.9892

                      7                      8                      9
                      A                      A                      A
 Frequencies --    349.6489               381.5338               409.3676
 Red. masses --      3.7854                 3.3474                 2.4860
 Frc consts  --      0.2727                 0.2871                 0.2455
 IR Inten    --      0.4219                 2.7426                 3.6530

                     10                     11                     12
                      A                      A                      A
 Frequencies --    425.3326               496.4126               602.7416
 Red. masses --      2.2221                 3.7970                 2.2212
 Frc consts  --      0.2369                 0.5513                 0.4755
 IR Inten    --     12.3465                 6.5598                 5.5245

                     13                     14                     15
                      A                      A                      A
 Frequencies --    617.1644               767.1395               818.4879
 Red. masses --      3.7008                 4.7809                 1.9983
 Frc consts  --      0.8305                 1.6577                 0.7887
 IR Inten    --     17.8402                 0.9142                 1.7987

                     16                     17                     18
                      A                      A                      A
 Frequencies --    845.3596               877.0229               908.8774
 Red. masses --      3.7541                 1.9051                 1.8903
 Frc consts  --      1.5807                 0.8634                 0.9200
 IR Inten    --      1.4799                 5.9786                 5.0522

                     19                     20                     21
                      A                      A                      A
 Frequencies --    953.1603               965.5880               993.9311
 Red. masses --      2.0345                 2.1099                 1.7684
 Frc consts  --      1.0890                 1.1590                 1.0293
 IR Inten    --     40.5997                64.6767                 0.7269

                     22                     23                     24
                      A                      A                      A
 Frequencies --   1027.7763              1044.6807              1070.4828
 Red. masses --      1.9740                 2.0088                 2.0651
 Frc consts  --      1.2285                 1.2917                 1.3943
 IR Inten    --      4.9945                 1.0298                 2.2176

                     25                     26                     27
                      A                      A                      A
 Frequencies --   1083.3809              1168.4285              1205.4975
 Red. masses --      2.2692                 1.1379                 1.2925
 Frc consts  --      1.5692                 0.9153                 1.1066
 IR Inten    --     13.6377                 4.1146                33.3717

                     28                     29                     30
                      A                      A                      A
 Frequencies --   1233.5210              1259.9177              1276.3315
 Red. masses --      1.4386                 1.7513                 1.5500
 Frc consts  --      1.2897                 1.6380                 1.4876
 IR Inten    --     32.9507               123.1716                43.4618

                     31                     32                     33
                      A                      A                      A
 Frequencies --   1313.4382              1325.7844              1368.9741
 Red. masses --      2.3275                 1.5807                 1.6091
 Frc consts  --      2.3657                 1.6370                 1.7768
 IR Inten    --     18.8707                 3.0327                11.3734

                     34                     35                     36
                      A                      A                      A
 Frequencies --   1380.1481              1421.9445              1458.9533
 Red. masses --      1.3569                 1.4281                 1.0852
 Frc consts  --      1.5228                 1.7012                 1.3610
 IR Inten    --     39.1209                 8.0117                 8.8024

                     37                     38                     39
                      A                      A                      A
 Frequencies --   1462.3829              1473.6881              1476.8092
 Red. masses --      1.0683                 1.0756                 1.0783
 Frc consts  --      1.3460                 1.3763                 1.3856
 IR Inten    --      9.3543                 6.0386                 3.4556

                     40                     41                     42
                      A                      A                      A
 Frequencies --   1666.4818              1775.1565              2998.4534
 Red. masses --      7.4234                10.6593                 1.0789
 Frc consts  --     12.1465                19.7903                 5.7149
 IR Inten    --    122.8555               121.8427                26.3686

                     43                     44                     45
                      A                      A                      A
 Frequencies --   3014.8906              3025.8589              3032.8906
 Red. masses --      1.0665                 1.0712                 1.0381
 Frc consts  --      5.7115                 5.7786                 5.6261
 IR Inten    --     40.8930                49.5688                 5.5092

                     46                     47                     48
                      A                      A                      A
 Frequencies --   3054.2877              3078.0168              3091.7743
 Red. masses --      1.0976                 1.0937                 1.0980
 Frc consts  --      6.0326                 6.1053                 6.1839
 IR Inten    --     23.2894                 9.0177                10.5183

                     49                     50                     51
                      A                      A                      A
 Frequencies --   3153.6334              3215.4285              3815.9209
 Red. masses --      1.1011                 1.0933                 1.0661
 Frc consts  --      6.4520                 6.6600                 9.1461
 IR Inten    --     12.2403                 1.6546                17.4078

 - Thermochemistry -
 -------------------
 Temperature   298.150 Kelvin.  Pressure   1.00000 Atm.
 Atom     1 has atomic number  6 and mass  12.00000

 Molecular mass:   126.06808 amu.
 Principal axes and moments of inertia in atomic units:
                           1         2         3
     Eigenvalues --   550.998551727.687632057.70806
           X            0.99938  -0.03491  -0.00446
           Y            0.03489   0.99938  -0.00464
           Z            0.00462   0.00448   0.99998
 This molecule is an asymmetric top.
 Rotational symmetry number  1.
 Warning -- assumption of classical behavior for rotation
           may cause significant error
 Rotational temperatures (Kelvin)      0.15719     0.05013     0.04209
 Rotational constants (GHZ):           3.27540     1.04460     0.87706
 Zero-point vibrational energy     414891.1 (Joules/Mol)
                                   99.16136 (Kcal/Mol)
 Warning -- explicit consideration of  13 degrees of freedom as
           vibrations may cause significant error
 Vibrational temperatures:     79.12   115.47   221.74   270.14   276.39
          (Kelvin)            443.81   503.07   548.94   588.99   611.96
                              714.23   867.21   887.96  1103.74  1177.62
                             1216.28  1261.84  1307.67  1371.38  1389.26
                             1430.04  1478.74  1503.06  1540.18  1558.74
                             1681.11  1734.44  1774.76  1812.74  1836.35
                             1889.74  1907.51  1969.65  1985.72  2045.86
                             2099.11  2104.04  2120.31  2124.80  2397.69
                             2554.05  4314.10  4337.75  4353.53  4363.65
                             4394.43  4428.57  4448.37  4537.37  4626.28
                             5490.25

 Zero-point correction=                           0.158024 (Hartree/Particle)
 Thermal correction to Energy=                    0.167192
 Thermal correction to Enthalpy=                  0.168136
 Thermal correction to Gibbs Free Energy=         0.123554
 Sum of electronic and zero-point Energies=           -423.061125
 Sum of electronic and thermal Energies=              -423.051957
 Sum of electronic and thermal Enthalpies=            -423.051013
 Sum of electronic and thermal Free Energies=         -423.095595

                     E (Thermal)             CV                S
                      KCal/Mol        Cal/Mol-Kelvin    Cal/Mol-Kelvin
 Total                  104.915             33.783             93.831
 Electronic               0.000              0.000              0.000
 Translational            0.889              2.981             40.409
 Rotational               0.889              2.981             29.062
 Vibrational            103.137             27.822             24.360
 Vibration     1          0.596              1.976              4.629
 Vibration     2          0.600              1.963              3.885
 Vibration     3          0.620              1.898              2.621
 Vibration     4          0.632              1.857              2.250
 Vibration     5          0.634              1.851              2.207
 Vibration     6          0.698              1.658              1.371
 Vibration     7          0.727              1.576              1.168
 Vibration     8          0.751              1.510              1.033
 Vibration     9          0.774              1.450              0.929
 Vibration    10          0.787              1.415              0.874
 Vibration    11          0.852              1.258              0.667
 Vibration    12          0.961              1.026              0.445
 Vibration    13          0.977              0.996              0.421

 Optimization completed.
    -- Stationary point found.
 Normal termination of Gaussian 09 at Tue Jan 28 04:37:10 2020.
