 Gaussian 09, Revision D.01,
 Gaussian 09:  ES64L-G09RevD.01 24-Apr-2013

 -----------------------------
 # b3lyp 6-31G(2df,p) opt Freq
 -----------------------------

 -----
 titel
 -----
 Symbolic Z-matrix:
 Charge =  0 Multiplicity = 1

 SCF Done:  E(RB3LYP) =  -423.161805419     A.U. after   13 cycles
 Optimization completed.
    -- Stationary point found.
 Normal termination of Gaussian 09 at Mon Jan 27 11:25:13 2020.

 ----------------------------------------------------------------------
 #N Geom=AllCheck Guess=TCheck SCRF=Check GenChk RB3LYP/6-31G(2df,p) Fr
 eq
 ----------------------------------------------------------------------

 Structure from the checkpoint file:  "/scratch/puck/g09_c0240e51-d5b9-490a-9751-dd32ac219add/Gau-22644.chk"
 -----
 titel
 -----
 Charge =  0 Multiplicity = 1

                         Standard orientation:
 ---------------------------------------------------------------------
 Center     Atomic      Atomic             Coordinates (Angstroms)
 Number     Number       Type             X           Y           Z
 ---------------------------------------------------------------------
      1          6           0        1.135767    1.222294   -0.682704
      2          6           0        0.105355    1.288451    0.495165
      3          6           0       -1.369874    1.197825    0.130155
      4          8           0       -1.649763    0.065875   -0.675657
      5          6           0       -1.379860   -1.155461   -0.017182
      6          6           0        0.063537   -1.285901    0.441253
      7          8           0        1.015817   -1.265008   -0.651770
      8          6           0        1.686078   -0.106381   -0.115092
      9          6           0        0.699008   -0.029581    1.077945
     10          1           0        0.706485    1.121149   -1.681296
     11          1           0        1.859306    2.041659   -0.673774
     12          1           0        0.267268    2.148910    1.149862
     13          1           0       -1.982480    1.170167    1.049160
     14          1           0       -1.682221    2.068379   -0.455963
     15          1           0       -2.038574   -1.277385    0.862237
     16          1           0       -1.615061   -1.949073   -0.733214
     17          1           0        0.175838   -2.202637    1.036551
     18          1           0        2.767026   -0.248361   -0.042068
     19          1           0        0.973911   -0.067222    2.130692
 ---------------------------------------------------------------------

 SCF Done:  E(RB3LYP) =  -423.161805419     A.U. after    1 cycles

 The electronic state is 1-A.
 Alpha  occ. eigenvalues --  -19.13868 -19.12826 -10.23258 -10.22993 -10.22676
 Alpha  occ. eigenvalues --  -10.22583 -10.19130 -10.18987 -10.17735  -1.04534
 Alpha  occ. eigenvalues --   -1.02387  -0.82898  -0.75444  -0.71211  -0.66779
 Alpha  occ. eigenvalues --   -0.60276  -0.59519  -0.52280  -0.50071  -0.48556
 Alpha  occ. eigenvalues --   -0.47586  -0.46552  -0.45512  -0.41728  -0.41004
 Alpha  occ. eigenvalues --   -0.38499  -0.36753  -0.35066  -0.33845  -0.30242
 Alpha  occ. eigenvalues --   -0.29812  -0.28514  -0.25491  -0.23630
 Alpha virt. eigenvalues --    0.07634   0.08355   0.10512   0.11424   0.12325
 Alpha virt. eigenvalues --    0.13987   0.15166   0.15931   0.16482   0.16696
 Alpha virt. eigenvalues --    0.18077   0.18736   0.19059   0.19293   0.21400

 Mulliken charges:
               1
     1  C   -0.253116
     2  C   -0.020890
     3  C   -0.097717
     4  O   -0.238745
     5  C   -0.103340
     6  C    0.125146
     7  O   -0.307536
     8  C    0.125124
     9  C   -0.130679
    10  H    0.120726
    11  H    0.097465
    12  H    0.073010
    13  H    0.082445
    14  H    0.108481
    15  H    0.082069
    16  H    0.118864
    17  H    0.073666
    18  H    0.074678
    19  H    0.070350
 Sum of Mulliken charges =   0.00000

 Dipole moment (field-independent basis, Debye):
    X=              0.2428    Y=              1.0224    Z=              2.2560  Tot=              2.4887
 Quadrupole moment (field-independent basis, Debye-Ang):
   XX=            -53.5813   YY=            -51.2068   ZZ=            -54.0338
   XY=              2.4550   XZ=             -0.6265   YZ=             -1.7158

  Exact polarizability:  77.042   2.950  78.484  -2.509  -2.297  65.664
 Approx polarizability: 105.465   3.082 110.829  -3.527  -0.829 104.125

                      1                      2                      3
                      A                      A                      A
 Frequencies --    150.7536               241.7793               304.6910
 Red. masses --      2.9959                 5.3913                 2.1684
 Frc consts  --      0.0401                 0.1857                 0.1186
 IR Inten    --      1.2620                 2.3855                 1.3370

                      4                      5                      6
                      A                      A                      A
 Frequencies --    385.6905               398.1422               452.6837
 Red. masses --      2.5184                 1.7268                 5.6189
 Frc consts  --      0.2207                 0.1613                 0.6784
 IR Inten    --      3.1973                 3.7532                 4.6014

                      7                      8                      9
                      A                      A                      A
 Frequencies --    570.9470               648.4592               734.7343
 Red. masses --      3.9351                 4.1128                 3.5799
 Frc consts  --      0.7558                 1.0190                 1.1386
 IR Inten    --      0.7555                 0.5905                14.1617

                     10                     11                     12
                      A                      A                      A
 Frequencies --    748.2599               776.7455               847.3759
 Red. masses --      2.4310                 2.3919                 1.8372
 Frc consts  --      0.8019                 0.8502                 0.7773
 IR Inten    --      4.6037                 3.7858                 5.7656

                     13                     14                     15
                      A                      A                      A
 Frequencies --    855.6907               877.6216               910.3594
 Red. masses --      2.8688                 2.7897                 2.2520
 Frc consts  --      1.2376                 1.2660                 1.0996
 IR Inten    --      6.3874                18.8625                12.5942

                     16                     17                     18
                      A                      A                      A
 Frequencies --    943.2657               952.5009              1002.1705
 Red. masses --      3.4083                 2.1051                 2.5730
 Frc consts  --      1.7867                 1.1253                 1.5226
 IR Inten    --      2.1233                11.2086                43.4387

                     19                     20                     21
                      A                      A                      A
 Frequencies --   1043.0306              1049.6823              1066.7233
 Red. masses --      1.9845                 2.9915                 1.7291
 Frc consts  --      1.2720                 1.9420                 1.1592
 IR Inten    --     28.4506                 2.6165                 4.3463

                     22                     23                     24
                      A                      A                      A
 Frequencies --   1080.7356              1108.8573              1138.9025
 Red. masses --      2.1315                 2.1243                 1.4120
 Frc consts  --      1.4668                 1.5389                 1.0791
 IR Inten    --     29.8806                 2.4183                 5.2171

                     25                     26                     27
                      A                      A                      A
 Frequencies --   1157.1303              1183.6306              1206.4935
 Red. masses --      3.8680                 1.8258                 1.6524
 Frc consts  --      3.0514                 1.5071                 1.4172
 IR Inten    --     67.5208                12.9590                10.1040

                     28                     29                     30
                      A                      A                      A
 Frequencies --   1223.1498              1266.9305              1282.0532
 Red. masses --      1.6116                 1.4315                 1.3325
 Frc consts  --      1.4206                 1.3538                 1.2904
 IR Inten    --      7.6447                 2.9170                 5.0797

                     31                     32                     33
                      A                      A                      A
 Frequencies --   1290.7756              1297.4621              1317.0462
 Red. masses --      1.3445                 1.5055                 1.3248
 Frc consts  --      1.3198                 1.4932                 1.3539
 IR Inten    --      0.6857                 0.9099                 4.8900

                     34                     35                     36
                      A                      A                      A
 Frequencies --   1340.0982              1355.4006              1366.2769
 Red. masses --      1.4972                 1.3648                 1.8481
 Frc consts  --      1.5841                 1.4773                 2.0326
 IR Inten    --      6.6458                10.0986                 0.7998

                     37                     38                     39
                      A                      A                      A
 Frequencies --   1387.6498              1422.0458              1456.8780
 Red. masses --      1.2807                 1.3147                 1.1149
 Frc consts  --      1.4529                 1.5664                 1.3943
 IR Inten    --      4.5531                 7.4123                 4.2615

                     40                     41                     42
                      A                      A                      A
 Frequencies --   1472.1445              1489.5651              2942.9578
 Red. masses --      1.0927                 1.1053                 1.0705
 Frc consts  --      1.3953                 1.4449                 5.4629
 IR Inten    --      3.6955                 3.8285                20.2653

                     43                     44                     45
                      A                      A                      A
 Frequencies --   2949.5733              3006.5627              3059.9986
 Red. masses --      1.0705                 1.0859                 1.0670
 Frc consts  --      5.4871                 5.7835                 5.8863
 IR Inten    --     98.7440                77.0095                16.1944

                     46                     47                     48
                      A                      A                      A
 Frequencies --   3068.0042              3073.4290              3078.8958
 Red. masses --      1.0861                 1.0879                 1.0854
 Frc consts  --      6.0231                 6.0544                 6.0625
 IR Inten    --      7.3893                66.5053                64.7763

                     49                     50                     51
                      A                      A                      A
 Frequencies --   3083.7246              3122.0344              3129.7138
 Red. masses --      1.0907                 1.0912                 1.1062
 Frc consts  --      6.1110                 6.2665                 6.3842
 IR Inten    --     19.3004                31.9989                18.4488

 - Thermochemistry -
 -------------------
 Temperature   298.150 Kelvin.  Pressure   1.00000 Atm.
 Atom     1 has atomic number  6 and mass  12.00000

 Molecular mass:   126.06808 amu.
 Principal axes and moments of inertia in atomic units:
                           1         2         3
     Eigenvalues --   695.25915 856.454331180.08054
           X            0.99618   0.08605  -0.01465
           Y           -0.08644   0.99586  -0.02825
           Z            0.01216   0.02941   0.99949
 This molecule is an asymmetric top.
 Rotational symmetry number  1.
 Warning -- assumption of classical behavior for rotation
           may cause significant error
 Rotational temperatures (Kelvin)      0.12458     0.10113     0.07340
 Rotational constants (GHZ):           2.59578     2.10722     1.52934
 Zero-point vibrational energy     426584.9 (Joules/Mol)
                                  101.95624 (Kcal/Mol)
 Warning -- explicit consideration of   7 degrees of freedom as
           vibrations may cause significant error
 Vibrational temperatures:    216.90   347.87   438.38   554.92   572.84
          (Kelvin)            651.31   821.46   932.99  1057.12  1076.58
                             1117.56  1219.18  1231.15  1262.70  1309.80
                             1357.15  1370.43  1441.90  1500.69  1510.26
                             1534.77  1554.94  1595.40  1638.62  1664.85
                             1702.98  1735.87  1759.84  1822.83  1844.59
                             1857.14  1866.76  1894.93  1928.10  1950.12
                             1965.77  1996.52  2046.00  2096.12  2118.08
                             2143.15  4234.25  4243.77  4325.77  4402.65
                             4414.17  4421.97  4429.84  4436.79  4491.91
                             4502.95

 Zero-point correction=                           0.162478 (Hartree/Particle)
 Thermal correction to Energy=                    0.169067
 Thermal correction to Enthalpy=                  0.170011
 Thermal correction to Gibbs Free Energy=         0.131762
 Sum of electronic and zero-point Energies=           -422.999328
 Sum of electronic and thermal Energies=              -422.992738
 Sum of electronic and thermal Enthalpies=            -422.991794
 Sum of electronic and thermal Free Energies=         -423.030044

                     E (Thermal)             CV                S
                      KCal/Mol        Cal/Mol-Kelvin    Cal/Mol-Kelvin
 Total                  106.091             27.480             80.503
 Electronic               0.000              0.000              0.000
 Translational            0.889              2.981             40.409
 Rotational               0.889              2.981             28.043
 Vibrational            104.314             21.519             12.052
 Vibration     1          0.618              1.902              2.663
 Vibration     2          0.658              1.776              1.790
 Vibration     3          0.696              1.665              1.391
 Vibration     4          0.754              1.501              1.017
 Vibration     5          0.764              1.474              0.970
 Vibration     6          0.811              1.355              0.788
 Vibration     7          0.927              1.094              0.502

 Optimization completed.
    -- Stationary point found.
 Normal termination of Gaussian 09 at Mon Jan 27 13:01:20 2020.
