 Gaussian 09, Revision D.01,
 Gaussian 09:  ES64L-G09RevD.01 24-Apr-2013

 -----------------------------
 # b3lyp 6-31G(2df,p) opt Freq
 -----------------------------

 -----
 titel
 -----
 Symbolic Z-matrix:
 Charge =  0 Multiplicity = 1

 SCF Done:  E(RB3LYP) =  -423.107541208     A.U. after   13 cycles
 Optimization completed.
    -- Stationary point found.
 Normal termination of Gaussian 09 at Tue Jan 28 12:11:11 2020.

 ----------------------------------------------------------------------
 #N Geom=AllCheck Guess=TCheck SCRF=Check GenChk RB3LYP/6-31G(2df,p) Fr
 eq
 ----------------------------------------------------------------------

 Structure from the checkpoint file:  "/scratch/puck/g09_fadee7d1-8d53-4e73-9955-537016cc1e1f/Gau-117633.chk"
 -----
 titel
 -----
 Charge =  0 Multiplicity = 1

                         Standard orientation:
 ---------------------------------------------------------------------
 Center     Atomic      Atomic             Coordinates (Angstroms)
 Number     Number       Type             X           Y           Z
 ---------------------------------------------------------------------
      1          8           0        3.487220   -0.128213   -0.117630
      2          6           0        2.178597    0.420472   -0.112391
      3          6           0        1.199090   -0.728483    0.116878
      4          6           0       -0.228643   -0.289891    0.125007
      5          6           0       -1.522211   -0.928912    0.635529
      6          6           0       -2.216756   -0.732683   -0.710682
      7          6           0       -1.197892    0.415613   -0.918013
      8          8           0       -1.582697    1.406387    0.075674
      9          6           0       -1.095984    0.491242    1.055753
     10          1           0        4.113399    0.587062   -0.261480
     11          1           0        2.057926    1.171670    0.683519
     12          1           0        1.948993    0.918338   -1.068159
     13          1           0        1.365697   -1.488557   -0.657190
     14          1           0        1.438325   -1.207720    1.074216
     15          1           0       -1.626178   -1.739138    1.346628
     16          1           0       -2.024348   -1.571261   -1.384953
     17          1           0       -3.274548   -0.452198   -0.734642
     18          1           0       -0.966014    0.844572   -1.891124
     19          1           0       -0.966638    0.827703    2.076343
 ---------------------------------------------------------------------

 SCF Done:  E(RB3LYP) =  -423.107541208     A.U. after    1 cycles

 The electronic state is 1-A.
 Alpha  occ. eigenvalues --  -19.13457 -19.13307 -10.24038 -10.23492 -10.22807
 Alpha  occ. eigenvalues --  -10.19778 -10.19256 -10.18908 -10.18601  -1.05809
 Alpha  occ. eigenvalues --   -1.01566  -0.85807  -0.76539  -0.72251  -0.64619
 Alpha  occ. eigenvalues --   -0.61625  -0.56113  -0.53541  -0.52553  -0.48157
 Alpha  occ. eigenvalues --   -0.47584  -0.45367  -0.43387  -0.41290  -0.39916
 Alpha  occ. eigenvalues --   -0.38634  -0.37315  -0.35904  -0.33473  -0.32679
 Alpha  occ. eigenvalues --   -0.28487  -0.26796  -0.25530  -0.22776
 Alpha virt. eigenvalues --    0.07530   0.08425   0.09833   0.10750   0.12208
 Alpha virt. eigenvalues --    0.13249   0.13806   0.14776   0.16003   0.16689
 Alpha virt. eigenvalues --    0.17086   0.18954   0.20169   0.20784   0.21399

 Mulliken charges:
               1
     1  O   -0.418841
     2  C   -0.066324
     3  C   -0.352715
     4  C    0.315525
     5  C   -0.183944
     6  C   -0.231421
     7  C    0.018051
     8  O   -0.294471
     9  C    0.038059
    10  H    0.286713
    11  H    0.093574
    12  H    0.089006
    13  H    0.111353
    14  H    0.113036
    15  H    0.090015
    16  H    0.103063
    17  H    0.100026
    18  H    0.084388
    19  H    0.104908
 Sum of Mulliken charges =   0.00000

 Dipole moment (field-independent basis, Debye):
    X=              0.8349    Y=             -0.2367    Z=             -0.1796  Tot=              0.8862
 Quadrupole moment (field-independent basis, Debye-Ang):
   XX=            -54.3074   YY=            -55.1296   ZZ=            -49.4085
   XY=              8.6207   XZ=             -0.4175   YZ=             -0.6356

  Exact polarizability:  85.826   2.870  68.645   1.091  -0.252  70.137
 Approx polarizability: 109.712   0.063 108.390  -0.452  -0.142 107.436

                      1                      2                      3
                      A                      A                      A
 Frequencies --     78.5378                87.2840               106.5160
 Red. masses --      2.5499                 2.7399                 4.7371
 Frc consts  --      0.0093                 0.0123                 0.0317
 IR Inten    --      0.9798                 7.4722                 2.7600

                      4                      5                      6
                      A                      A                      A
 Frequencies --    257.8977               260.9067               328.4462
 Red. masses --      1.0944                 2.3242                 4.0030
 Frc consts  --      0.0429                 0.0932                 0.2544
 IR Inten    --    100.2404                 3.9113                 6.5062

                      7                      8                      9
                      A                      A                      A
 Frequencies --    340.4200               476.0141               549.4555
 Red. masses --      3.8720                 2.3057                 4.0955
 Frc consts  --      0.2644                 0.3078                 0.7285
 IR Inten    --      3.3202                 0.7169                10.1916

                     10                     11                     12
                      A                      A                      A
 Frequencies --    668.2848               746.1291               774.6735
 Red. masses --      2.9402                 2.7667                 3.5585
 Frc consts  --      0.7737                 0.9075                 1.2582
 IR Inten    --      1.3242                 8.2365                 6.9073

                     13                     14                     15
                      A                      A                      A
 Frequencies --    796.2058               828.0221               880.5410
 Red. masses --      1.8041                 2.1006                 1.6793
 Frc consts  --      0.6738                 0.8485                 0.7672
 IR Inten    --      0.9930                 4.9972                 4.5599

                     16                     17                     18
                      A                      A                      A
 Frequencies --    913.7713               929.8903               946.2976
 Red. masses --      2.4281                 1.6661                 3.5496
 Frc consts  --      1.1945                 0.8488                 1.8728
 IR Inten    --     37.4871                10.5875                20.4318

                     19                     20                     21
                      A                      A                      A
 Frequencies --    972.9069              1007.2107              1022.3397
 Red. masses --      1.7123                 2.1535                 2.3414
 Frc consts  --      0.9550                 1.2872                 1.4418
 IR Inten    --      2.3172                14.9018                30.5620

                     22                     23                     24
                      A                      A                      A
 Frequencies --   1026.3008              1040.2970              1080.9485
 Red. masses --      1.8975                 2.3338                 3.9496
 Frc consts  --      1.1776                 1.4881                 2.7190
 IR Inten    --      2.5809                21.6459                53.7434

                     25                     26                     27
                      A                      A                      A
 Frequencies --   1094.0419              1130.3617              1151.7245
 Red. masses --      2.8402                 1.3627                 1.7370
 Frc consts  --      2.0029                 1.0259                 1.3575
 IR Inten    --     18.2866                 1.2704                 3.3846

                     28                     29                     30
                      A                      A                      A
 Frequencies --   1167.6350              1218.7947              1225.9661
 Red. masses --      2.0248                 1.3667                 1.7627
 Frc consts  --      1.6265                 1.1962                 1.5609
 IR Inten    --      1.6303                 3.0274                 5.4821

                     31                     32                     33
                      A                      A                      A
 Frequencies --   1237.4794              1245.4388              1272.6198
 Red. masses --      1.2579                 1.2407                 1.6589
 Frc consts  --      1.1349                 1.1339                 1.5829
 IR Inten    --      0.5243                42.5312                 8.8539

                     34                     35                     36
                      A                      A                      A
 Frequencies --   1311.3456              1317.9207              1338.2194
 Red. masses --      1.1356                 1.6187                 1.4233
 Frc consts  --      1.1505                 1.6565                 1.5018
 IR Inten    --      1.1512                 8.3050                 7.1700

                     37                     38                     39
                      A                      A                      A
 Frequencies --   1457.2675              1464.9384              1480.1710
 Red. masses --      2.2473                 1.9952                 1.0899
 Frc consts  --      2.8119                 2.5227                 1.4069
 IR Inten    --      1.2904                 3.8699                 2.1280

                     40                     41                     42
                      A                      A                      A
 Frequencies --   1490.2240              1526.4805              2970.0383
 Red. masses --      1.2062                 1.0855                 1.0559
 Frc consts  --      1.5783                 1.4903                 5.4879
 IR Inten    --      1.8067                 2.7100                45.3063

                     43                     44                     45
                      A                      A                      A
 Frequencies --   2998.5143              3024.1707              3048.0663
 Red. masses --      1.1042                 1.0594                 1.0573
 Frc consts  --      5.8491                 5.7086                 5.7877
 IR Inten    --     38.4077                31.9063                49.2346

                     46                     47                     48
                      A                      A                      A
 Frequencies --   3064.5281              3110.8551              3138.8300
 Red. masses --      1.1027                 1.1074                 1.0924
 Frc consts  --      6.1017                 6.3140                 6.3413
 IR Inten    --     29.4953                23.4699                34.1684

                     49                     50                     51
                      A                      A                      A
 Frequencies --   3192.9269              3206.3904              3831.9320
 Red. masses --      1.0916                 1.0963                 1.0664
 Frc consts  --      6.5566                 6.6404                 9.2257
 IR Inten    --      8.4707                17.6265                21.9861

 - Thermochemistry -
 -------------------
 Temperature   298.150 Kelvin.  Pressure   1.00000 Atm.
 Atom     1 has atomic number  8 and mass  15.99491

 Molecular mass:   126.06808 amu.
 Principal axes and moments of inertia in atomic units:
                           1         2         3
     Eigenvalues --   453.956681883.068411974.64912
           X            0.99976   0.02155   0.00376
           Y           -0.02151   0.99969  -0.01222
           Z           -0.00402   0.01214   0.99992
 This molecule is an asymmetric top.
 Rotational symmetry number  1.
 Warning -- assumption of classical behavior for rotation
           may cause significant error
 Rotational temperatures (Kelvin)      0.19080     0.04600     0.04386
 Rotational constants (GHZ):           3.97558     0.95840     0.91396
 Zero-point vibrational energy     417713.1 (Joules/Mol)
                                   99.83583 (Kcal/Mol)
 Warning -- explicit consideration of   9 degrees of freedom as
           vibrations may cause significant error
 Vibrational temperatures:    113.00   125.58   153.25   371.06   375.39
          (Kelvin)            472.56   489.79   684.88   790.54   961.51
                             1073.51  1114.58  1145.56  1191.34  1266.90
                             1314.71  1337.90  1361.51  1399.79  1449.15
                             1470.92  1476.62  1496.75  1555.24  1574.08
                             1626.34  1657.07  1679.96  1753.57  1763.89
                             1780.45  1791.91  1831.01  1886.73  1896.19
                             1925.40  2096.68  2107.72  2129.63  2144.10
                             2196.26  4273.22  4314.19  4351.10  4385.48
                             4409.17  4475.82  4516.07  4593.90  4613.27
                             5513.29

 Zero-point correction=                           0.159099 (Hartree/Particle)
 Thermal correction to Energy=                    0.167405
 Thermal correction to Enthalpy=                  0.168349
 Thermal correction to Gibbs Free Energy=         0.125507
 Sum of electronic and zero-point Energies=           -422.948443
 Sum of electronic and thermal Energies=              -422.940137
 Sum of electronic and thermal Enthalpies=            -422.939192
 Sum of electronic and thermal Free Energies=         -422.982034

                     E (Thermal)             CV                S
                      KCal/Mol        Cal/Mol-Kelvin    Cal/Mol-Kelvin
 Total                  105.048             31.309             90.169
 Electronic               0.000              0.000              0.000
 Translational            0.889              2.981             40.409
 Rotational               0.889              2.981             28.914
 Vibrational            103.271             25.348             20.846
 Vibration     1          0.600              1.964              3.927
 Vibration     2          0.601              1.958              3.720
 Vibration     3          0.605              1.944              3.331
 Vibration     4          0.667              1.749              1.676
 Vibration     5          0.669              1.744              1.656
 Vibration     6          0.712              1.619              1.268
 Vibration     7          0.720              1.595              1.210
 Vibration     8          0.833              1.303              0.721
 Vibration     9          0.905              1.141              0.545

 Optimization completed.
    -- Stationary point found.
 Normal termination of Gaussian 09 at Tue Jan 28 12:55:00 2020.
