 Gaussian 09, Revision D.01,
 Gaussian 09:  ES64L-G09RevD.01 24-Apr-2013

 -----------------------------
 # b3lyp 6-31G(2df,p) opt Freq
 -----------------------------

 -----
 titel
 -----
 Symbolic Z-matrix:
 Charge =  0 Multiplicity = 1

 SCF Done:  E(RB3LYP) =  -423.136070682     A.U. after   12 cycles
 Optimization completed.
    -- Stationary point found.
 Normal termination of Gaussian 09 at Mon Jan 27 23:45:26 2020.

 ----------------------------------------------------------------------
 #N Geom=AllCheck Guess=TCheck SCRF=Check GenChk RB3LYP/6-31G(2df,p) Fr
 eq
 ----------------------------------------------------------------------

 Structure from the checkpoint file:  "/scratch/puck/g09_95414e7c-5e22-491f-9d8d-696f9b653efc/Gau-193902.chk"
 -----
 titel
 -----
 Charge =  0 Multiplicity = 1

                         Standard orientation:
 ---------------------------------------------------------------------
 Center     Atomic      Atomic             Coordinates (Angstroms)
 Number     Number       Type             X           Y           Z
 ---------------------------------------------------------------------
      1          8           0        2.503786   -0.726170   -0.230854
      2          6           0        1.137061   -0.430140   -0.446862
      3          6           0        0.796094    1.078571   -0.337398
      4          6           0       -0.615389    1.420874   -0.876675
      5          6           0       -1.254932    0.865549    0.417298
      6          6           0       -1.278762   -0.673657    0.462504
      7          8           0       -1.769070   -1.290538   -0.705715
      8          6           0        0.240264   -0.721902    0.782424
      9          6           0        0.170384    0.822251    1.087651
     10          1           0        2.775591   -0.298835    0.589427
     11          1           0        0.867942   -0.930225   -1.380942
     12          1           0        1.616789    1.765977   -0.550613
     13          1           0       -0.754426    2.503847   -0.937145
     14          1           0       -0.923344    0.967725   -1.822769
     15          1           0       -2.124155    1.385879    0.819195
     16          1           0       -1.839019   -0.999148    1.352060
     17          1           0       -1.710075   -2.245306   -0.596951
     18          1           0        0.598537   -1.494013    1.466680
     19          1           0        0.446117    1.308485    2.019956
 ---------------------------------------------------------------------

 SCF Done:  E(RB3LYP) =  -423.136070682     A.U. after    1 cycles

 The electronic state is 1-A.
 Alpha  occ. eigenvalues --  -19.13932 -19.13262 -10.23227 -10.22273 -10.18941
 Alpha  occ. eigenvalues --  -10.18400 -10.18141 -10.17939 -10.17735  -1.02282
 Alpha  occ. eigenvalues --   -1.01465  -0.89000  -0.73383  -0.72332  -0.64168
 Alpha  occ. eigenvalues --   -0.58991  -0.58543  -0.53076  -0.51580  -0.49852
 Alpha  occ. eigenvalues --   -0.46277  -0.44668  -0.44142  -0.40672  -0.38621
 Alpha  occ. eigenvalues --   -0.36888  -0.36316  -0.33299  -0.32269  -0.30134
 Alpha  occ. eigenvalues --   -0.28320  -0.27420  -0.26041  -0.24246
 Alpha virt. eigenvalues --    0.06475   0.07660   0.09175   0.10478   0.11881
 Alpha virt. eigenvalues --    0.14472   0.15269   0.15987   0.16488   0.17374
 Alpha virt. eigenvalues --    0.18652   0.19620   0.19797   0.21653   0.22720

 Mulliken charges:
               1
     1  O   -0.446124
     2  C    0.160345
     3  C   -0.081813
     4  C   -0.235029
     5  C   -0.068757
     6  C    0.139901
     7  O   -0.429773
     8  C   -0.152152
     9  C   -0.061993
    10  H    0.276218
    11  H    0.087521
    12  H    0.064243
    13  H    0.098704
    14  H    0.111371
    15  H    0.064889
    16  H    0.067003
    17  H    0.284455
    18  H    0.058577
    19  H    0.062413
 Sum of Mulliken charges =   0.00000

 Dipole moment (field-independent basis, Debye):
    X=             -0.4948    Y=              0.0834    Z=              1.8752  Tot=              1.9411
 Quadrupole moment (field-independent basis, Debye-Ang):
   XX=            -57.0932   YY=            -48.7589   ZZ=            -52.7184
   XY=              3.9734   XZ=              1.5644   YZ=             -0.6712

  Exact polarizability:  77.439   0.053  75.145   0.513  -1.110  69.031
 Approx polarizability: 109.482  -0.080 108.658   2.136   1.023 106.394

                      1                      2                      3
                      A                      A                      A
 Frequencies --    144.9661               174.8529               251.4170
 Red. masses --      5.1014                 3.7842                 1.1897
 Frc consts  --      0.0632                 0.0682                 0.0443
 IR Inten    --      1.5534                 2.7090                84.4895

                      4                      5                      6
                      A                      A                      A
 Frequencies --    272.5212               286.8205               356.1521
 Red. masses --      2.4462                 1.2655                 2.5221
 Frc consts  --      0.1070                 0.0613                 0.1885
 IR Inten    --     17.7062                60.3771                42.3641

                      7                      8                      9
                      A                      A                      A
 Frequencies --    398.5888               485.7869               563.8115
 Red. masses --      3.1009                 3.5068                 4.8743
 Frc consts  --      0.2903                 0.4876                 0.9129
 IR Inten    --      2.3896                 6.1755                 5.8832

                     10                     11                     12
                      A                      A                      A
 Frequencies --    617.2667               697.1214               795.1373
 Red. masses --      3.8355                 3.6267                 2.1833
 Frc consts  --      0.8610                 1.0384                 0.8133
 IR Inten    --      3.9450                 0.1909                 1.6013

                     13                     14                     15
                      A                      A                      A
 Frequencies --    828.1765               837.3913               880.2673
 Red. masses --      1.7489                 1.7819                 2.4073
 Frc consts  --      0.7067                 0.7362                 1.0990
 IR Inten    --      3.8130                 3.3204                 1.7207

                     16                     17                     18
                      A                      A                      A
 Frequencies --    890.7478               900.2912               959.4423
 Red. masses --      2.1975                 2.9142                 2.6293
 Frc consts  --      1.0273                 1.3917                 1.4260
 IR Inten    --     11.2393                19.6940                 2.0358

                     19                     20                     21
                      A                      A                      A
 Frequencies --    978.0040              1001.9274              1032.3227
 Red. masses --      2.1623                 2.0531                 1.9818
 Frc consts  --      1.2186                 1.2143                 1.2443
 IR Inten    --      6.1457                 4.8387                 6.2952

                     22                     23                     24
                      A                      A                      A
 Frequencies --   1046.3149              1088.4026              1101.7710
 Red. masses --      2.3912                 1.7026                 1.6077
 Frc consts  --      1.5424                 1.1884                 1.1498
 IR Inten    --     23.9355                27.0865                 7.4368

                     25                     26                     27
                      A                      A                      A
 Frequencies --   1108.0851              1116.5214              1142.2670
 Red. masses --      2.0040                 1.9199                 2.9642
 Frc consts  --      1.4498                 1.4101                 2.2788
 IR Inten    --     59.9501                 5.2988                85.2663

                     28                     29                     30
                      A                      A                      A
 Frequencies --   1176.2469              1192.6413              1206.7385
 Red. masses --      1.2827                 1.4951                 1.5735
 Frc consts  --      1.0456                 1.2530                 1.3500
 IR Inten    --      5.7140                 2.1348                12.5804

                     31                     32                     33
                      A                      A                      A
 Frequencies --   1232.7702              1250.6090              1254.0461
 Red. masses --      1.3299                 1.7139                 1.5919
 Frc consts  --      1.1908                 1.5793                 1.4750
 IR Inten    --     59.0184                 8.6749                 1.3863

                     34                     35                     36
                      A                      A                      A
 Frequencies --   1259.7703              1291.6441              1319.2537
 Red. masses --      1.3786                 1.6069                 1.7353
 Frc consts  --      1.2890                 1.5795                 1.7794
 IR Inten    --     10.8552                 1.6216                 7.5839

                     37                     38                     39
                      A                      A                      A
 Frequencies --   1328.9994              1345.6105              1416.8652
 Red. masses --      1.5246                 1.3979                 1.5106
 Frc consts  --      1.5866                 1.4912                 1.7867
 IR Inten    --      0.3440                19.3213                 7.0958

                     40                     41                     42
                      A                      A                      A
 Frequencies --   1424.4555              1482.7455              2982.0979
 Red. masses --      1.2796                 1.1101                 1.0847
 Frc consts  --      1.5297                 1.4380                 5.6832
 IR Inten    --     68.2821                 3.6544                56.3873

                     43                     44                     45
                      A                      A                      A
 Frequencies --   3053.8615              3078.2127              3083.7600
 Red. masses --      1.0583                 1.0853                 1.0894
 Frc consts  --      5.8152                 6.0590                 6.1039
 IR Inten    --     31.4746                30.0377                45.7784

                     46                     47                     48
                      A                      A                      A
 Frequencies --   3089.9546              3103.1115              3109.6042
 Red. masses --      1.0898                 1.0942                 1.1019
 Frc consts  --      6.1307                 6.2076                 6.2777
 IR Inten    --     38.9628                33.7688                32.5772

                     49                     50                     51
                      A                      A                      A
 Frequencies --   3144.5595              3792.6819              3814.3090
 Red. masses --      1.0933                 1.0657                 1.0661
 Frc consts  --      6.3697                 9.0320                 9.1385
 IR Inten    --     36.3925                11.2116                24.2018

 - Thermochemistry -
 -------------------
 Temperature   298.150 Kelvin.  Pressure   1.00000 Atm.
 Atom     1 has atomic number  8 and mass  15.99491

 Molecular mass:   126.06808 amu.
 Principal axes and moments of inertia in atomic units:
                           1         2         3
     Eigenvalues --   684.125841090.909831318.82807
           X            0.99997   0.00752   0.00265
           Y           -0.00742   0.99929  -0.03695
           Z           -0.00293   0.03693   0.99931
 This molecule is an asymmetric top.
 Rotational symmetry number  1.
 Warning -- assumption of classical behavior for rotation
           may cause significant error
 Rotational temperatures (Kelvin)      0.12661     0.07940     0.06567
 Rotational constants (GHZ):           2.63803     1.65434     1.36844
 Zero-point vibrational energy     421031.2 (Joules/Mol)
                                  100.62888 (Kcal/Mol)
 Warning -- explicit consideration of  10 degrees of freedom as
           vibrations may cause significant error
 Vibrational temperatures:    208.57   251.57   361.73   392.10   412.67
          (Kelvin)            512.42   573.48   698.94   811.20   888.11
                             1003.00  1144.02  1191.56  1204.82  1266.51
                             1281.59  1295.32  1380.42  1407.13  1441.55
                             1485.28  1505.41  1565.97  1585.20  1594.29
                             1606.42  1643.47  1692.35  1715.94  1736.23
                             1773.68  1799.35  1804.29  1812.53  1858.39
                             1898.11  1912.13  1936.03  2038.55  2049.47
                             2133.34  4290.57  4393.82  4428.86  4436.84
                             4445.75  4464.68  4474.02  4524.31  5456.82
                             5487.93

 Zero-point correction=                           0.160362 (Hartree/Particle)
 Thermal correction to Energy=                    0.168027
 Thermal correction to Enthalpy=                  0.168971
 Thermal correction to Gibbs Free Energy=         0.128618
 Sum of electronic and zero-point Energies=           -422.975708
 Sum of electronic and thermal Energies=              -422.968043
 Sum of electronic and thermal Enthalpies=            -422.967099
 Sum of electronic and thermal Free Energies=         -423.007453

                     E (Thermal)             CV                S
                      KCal/Mol        Cal/Mol-Kelvin    Cal/Mol-Kelvin
 Total                  105.439             30.966             84.931
 Electronic               0.000              0.000              0.000
 Translational            0.889              2.981             40.409
 Rotational               0.889              2.981             28.378
 Vibrational            103.661             25.004             16.145
 Vibration     1          0.616              1.908              2.737
 Vibration     2          0.627              1.873              2.383
 Vibration     3          0.663              1.760              1.721
 Vibration     4          0.676              1.724              1.580
 Vibration     5          0.684              1.698              1.493
 Vibration     6          0.732              1.563              1.139
 Vibration     7          0.765              1.473              0.968
 Vibration     8          0.842              1.282              0.695
 Vibration     9          0.920              1.110              0.516
 Vibration    10          0.977              0.995              0.421

 Normal termination of Gaussian 09 at Tue Jan 28 00:32:02 2020.
