 Gaussian 09, Revision D.01,
 Gaussian 09:  ES64L-G09RevD.01 24-Apr-2013

 -----------------------------
 # b3lyp 6-31G(2df,p) opt Freq
 -----------------------------

 -----
 titel
 -----
 Symbolic Z-matrix:
 Charge =  0 Multiplicity = 1

 SCF Done:  E(RB3LYP) =  -423.095195204     A.U. after   14 cycles
 Optimization completed.
    -- Stationary point found.
 Normal termination of Gaussian 09 at Tue Jan 28 10:05:11 2020.

 ----------------------------------------------------------------------
 #N Geom=AllCheck Guess=TCheck SCRF=Check GenChk RB3LYP/6-31G(2df,p) Fr
 eq
 ----------------------------------------------------------------------

 Structure from the checkpoint file:  "/scratch/puck/g09_3598b976-2ec3-45b6-9849-6b5179414e94/Gau-20046.chk"
 -----
 titel
 -----
 Charge =  0 Multiplicity = 1

                         Standard orientation:
 ---------------------------------------------------------------------
 Center     Atomic      Atomic             Coordinates (Angstroms)
 Number     Number       Type             X           Y           Z
 ---------------------------------------------------------------------
      1          6           0        0.612223    2.087805    0.150576
      2          6           0        0.808873    0.617885   -0.079101
      3          6           0        1.617501   -0.132833   -1.164731
      4          6           0        1.018640   -1.286619   -0.332099
      5          6           0        1.135320   -0.474621    0.991782
      6          8           0       -0.253858   -0.676724    1.393989
      7          6           0       -0.300885   -0.499584   -0.065784
      8          6           0       -1.659821   -0.535097   -0.692688
      9          8           0       -2.492576    0.469262   -0.139915
     10          1           0       -0.020147    2.249856    1.029062
     11          1           0        1.569444    2.593783    0.317290
     12          1           0        0.124476    2.561093   -0.707433
     13          1           0        1.264089   -0.034734   -2.195372
     14          1           0        2.704906   -0.019520   -1.126346
     15          1           0        1.121183   -2.365483   -0.445311
     16          1           0        1.907611   -0.496793    1.760808
     17          1           0       -1.583944   -0.340027   -1.767952
     18          1           0       -2.093849   -1.539498   -0.563297
     19          1           0       -2.413405    0.389401    0.818229
 ---------------------------------------------------------------------

 SCF Done:  E(RB3LYP) =  -423.095195204     A.U. after    1 cycles

 The electronic state is 1-A.
 Alpha  occ. eigenvalues --  -19.13628 -19.13116 -10.24673 -10.24649 -10.23379
 Alpha  occ. eigenvalues --  -10.20638 -10.20327 -10.19109 -10.17892  -1.06241
 Alpha  occ. eigenvalues --   -1.01676  -0.86954  -0.73394  -0.72564  -0.65316
 Alpha  occ. eigenvalues --   -0.61962  -0.61102  -0.52545  -0.48583  -0.47801
 Alpha  occ. eigenvalues --   -0.47061  -0.45317  -0.43631  -0.42569  -0.40732
 Alpha  occ. eigenvalues --   -0.38728  -0.37711  -0.35557  -0.31950  -0.31182
 Alpha  occ. eigenvalues --   -0.30178  -0.29268  -0.26606  -0.23662
 Alpha virt. eigenvalues --    0.07060   0.08957   0.10860   0.11789   0.12242
 Alpha virt. eigenvalues --    0.12988   0.14312   0.14633   0.15503   0.16007
 Alpha virt. eigenvalues --    0.16838   0.17514   0.17767   0.19633   0.20487

 Mulliken charges:
               1
     1  C   -0.517837
     2  C    0.269008
     3  C   -0.326966
     4  C   -0.155463
     5  C    0.045796
     6  O   -0.378767
     7  C    0.421995
     8  C   -0.209540
     9  O   -0.415479
    10  H    0.130577
    11  H    0.117416
    12  H    0.129587
    13  H    0.100019
    14  H    0.097862
    15  H    0.083687
    16  H    0.092879
    17  H    0.117165
    18  H    0.101382
    19  H    0.296678
 Sum of Mulliken charges =   0.00000

 Dipole moment (field-independent basis, Debye):
    X=              1.7490    Y=             -0.2723    Z=             -0.6280  Tot=              1.8782
 Quadrupole moment (field-independent basis, Debye-Ang):
   XX=            -54.7826   YY=            -52.9572   ZZ=            -53.1272
   XY=              1.6686   XZ=             -0.0425   YZ=              2.2121

  Exact polarizability:  79.065  -0.010  75.273  -0.033   1.388  71.297
 Approx polarizability: 112.534  -0.911 107.711  -0.980   0.012 112.421

                      1                      2                      3
                      A                      A                      A
 Frequencies --     86.5245               124.8508               208.5524
 Red. masses --      3.8156                 3.8956                 1.0889
 Frc consts  --      0.0168                 0.0358                 0.0279
 IR Inten    --      5.1410                 0.6415                 0.1596

                      4                      5                      6
                      A                      A                      A
 Frequencies --    235.6850               248.9350               289.7297
 Red. masses --      1.9235                 2.8249                 2.6979
 Frc consts  --      0.0630                 0.1031                 0.1334
 IR Inten    --      5.5528                 2.9053                 4.4158

                      7                      8                      9
                      A                      A                      A
 Frequencies --    376.5358               420.4910               475.0305
 Red. masses --      1.4992                 1.9060                 2.5389
 Frc consts  --      0.1252                 0.1986                 0.3375
 IR Inten    --     68.2583                68.6448                 3.0446

                     10                     11                     12
                      A                      A                      A
 Frequencies --    528.4806               655.9167               697.6754
 Red. masses --      3.6454                 3.5964                 3.4777
 Frc consts  --      0.5999                 0.9116                 0.9974
 IR Inten    --      1.2570                12.8180                 2.9855

                     13                     14                     15
                      A                      A                      A
 Frequencies --    736.6437               774.0723               809.8402
 Red. masses --      3.3173                 4.8634                 2.8575
 Frc consts  --      1.0606                 1.7169                 1.1042
 IR Inten    --     10.2449                10.9630                 5.6845

                     16                     17                     18
                      A                      A                      A
 Frequencies --    858.0075               884.6943               920.3285
 Red. masses --      2.5735                 2.6949                 2.0178
 Frc consts  --      1.1162                 1.2427                 1.0070
 IR Inten    --     12.7068                12.0244                 1.5052

                     19                     20                     21
                      A                      A                      A
 Frequencies --    943.9831               965.3911              1011.2972
 Red. masses --      2.4696                 1.7778                 1.4145
 Frc consts  --      1.2966                 0.9762                 0.8523
 IR Inten    --     21.7019                21.6542                 4.0890

                     22                     23                     24
                      A                      A                      A
 Frequencies --   1030.4597              1062.8994              1085.8089
 Red. masses --      1.4242                 3.6105                 1.8936
 Frc consts  --      0.8910                 2.4032                 1.3153
 IR Inten    --      5.6919                69.9342                 7.8754

                     25                     26                     27
                      A                      A                      A
 Frequencies --   1109.0028              1142.8840              1154.2188
 Red. masses --      1.8652                 2.1458                 1.4844
 Frc consts  --      1.3516                 1.6514                 1.1652
 IR Inten    --      0.6175                 4.7966                 2.6270

                     28                     29                     30
                      A                      A                      A
 Frequencies --   1169.3337              1196.7671              1226.8224
 Red. masses --      1.9721                 1.4766                 1.6493
 Frc consts  --      1.5887                 1.2461                 1.4626
 IR Inten    --      2.1998                 0.4509                 9.6429

                     31                     32                     33
                      A                      A                      A
 Frequencies --   1231.2794              1274.3128              1324.1263
 Red. masses --      1.7293                 1.9380                 2.5045
 Frc consts  --      1.5446                 1.8542                 2.5872
 IR Inten    --     20.7437                13.8223                 7.7895

                     34                     35                     36
                      A                      A                      A
 Frequencies --   1370.8554              1374.3163              1410.8151
 Red. masses --      1.7450                 1.7691                 1.4908
 Frc consts  --      1.9321                 1.9687                 1.7482
 IR Inten    --      7.2426                17.0212                12.6461

                     37                     38                     39
                      A                      A                      A
 Frequencies --   1441.0223              1484.3589              1489.3206
 Red. masses --      1.5538                 1.0497                 1.0616
 Frc consts  --      1.9011                 1.3626                 1.3874
 IR Inten    --     41.6497                 4.9125                 2.6819

                     40                     41                     42
                      A                      A                      A
 Frequencies --   1491.7634              1517.8530              2980.0898
 Red. masses --      1.0829                 1.1547                 1.0694
 Frc consts  --      1.4198                 1.5674                 5.5957
 IR Inten    --      3.6439                 1.6495                52.6424

                     43                     44                     45
                      A                      A                      A
 Frequencies --   3032.3760              3047.6182              3072.5742
 Red. masses --      1.0354                 1.0553                 1.0921
 Frc consts  --      5.6095                 5.7748                 6.0744
 IR Inten    --     24.9447                42.7909                19.9188

                     46                     47                     48
                      A                      A                      A
 Frequencies --   3098.1734              3102.0545              3108.6850
 Red. masses --      1.1010                 1.1090                 1.1008
 Frc consts  --      6.2266                 6.2878                 6.2675
 IR Inten    --     10.2518                35.9009                13.5752

                     49                     50                     51
                      A                      A                      A
 Frequencies --   3115.5963              3128.9915              3793.0558
 Red. masses --      1.0889                 1.0960                 1.0659
 Frc consts  --      6.2275                 6.3221                 9.0352
 IR Inten    --     42.3216                44.6622                26.5219

 - Thermochemistry -
 -------------------
 Temperature   298.150 Kelvin.  Pressure   1.00000 Atm.
 Atom     1 has atomic number  6 and mass  12.00000

 Molecular mass:   126.06808 amu.
 Principal axes and moments of inertia in atomic units:
                           1         2         3
     Eigenvalues --   735.547691133.544551284.06111
           X            0.99949   0.03174  -0.00226
           Y           -0.03147   0.99646   0.07793
           Z            0.00472  -0.07782   0.99696
 This molecule is an asymmetric top.
 Rotational symmetry number  1.
 Warning -- assumption of classical behavior for rotation
           may cause significant error
 Rotational temperatures (Kelvin)      0.11775     0.07641     0.06745
 Rotational constants (GHZ):           2.45360     1.59212     1.40549
 Zero-point vibrational energy     414626.3 (Joules/Mol)
                                   99.09806 (Kcal/Mol)
 Warning -- explicit consideration of  10 degrees of freedom as
           vibrations may cause significant error
 Vibrational temperatures:    124.49   179.63   300.06   339.10   358.16
          (Kelvin)            416.86   541.75   604.99   683.46   760.36
                              943.72  1003.80  1059.86  1113.72  1165.18
                             1234.48  1272.88  1324.15  1358.18  1388.98
                             1455.03  1482.60  1529.27  1562.23  1595.61
                             1644.35  1660.66  1682.41  1721.88  1765.12
                             1771.53  1833.45  1905.12  1972.35  1977.33
                             2029.85  2073.31  2135.66  2142.80  2146.31
                             2183.85  4287.68  4362.91  4384.84  4420.74
                             4457.57  4463.16  4472.70  4482.64  4501.92
                             5457.35

 Zero-point correction=                           0.157923 (Hartree/Particle)
 Thermal correction to Energy=                    0.166341
 Thermal correction to Enthalpy=                  0.167285
 Thermal correction to Gibbs Free Energy=         0.125075
 Sum of electronic and zero-point Energies=           -422.937272
 Sum of electronic and thermal Energies=              -422.928855
 Sum of electronic and thermal Enthalpies=            -422.927910
 Sum of electronic and thermal Free Energies=         -422.970120

                     E (Thermal)             CV                S
                      KCal/Mol        Cal/Mol-Kelvin    Cal/Mol-Kelvin
 Total                  104.380             32.516             88.838
 Electronic               0.000              0.000              0.000
 Translational            0.889              2.981             40.409
 Rotational               0.889              2.981             28.461
 Vibrational            102.603             26.555             19.968
 Vibration     1          0.601              1.959              3.737
 Vibration     2          0.610              1.928              3.024
 Vibration     3          0.642              1.828              2.056
 Vibration     4          0.655              1.786              1.835
 Vibration     5          0.662              1.765              1.738
 Vibration     6          0.686              1.693              1.476
 Vibration     7          0.747              1.520              1.053
 Vibration     8          0.783              1.426              0.890
 Vibration     9          0.832              1.305              0.724
 Vibration    10          0.883              1.187              0.591

 Optimization completed.
    -- Stationary point found.
 Normal termination of Gaussian 09 at Tue Jan 28 10:49:34 2020.
