 Gaussian 09, Revision D.01,
 Gaussian 09:  ES64L-G09RevD.01 24-Apr-2013

 -----------------------------
 # b3lyp 6-31G(2df,p) opt Freq
 -----------------------------

 -----
 titel
 -----
 Symbolic Z-matrix:
 Charge =  0 Multiplicity = 1

 SCF Done:  E(RB3LYP) =  -423.145818553     A.U. after   14 cycles
 Optimization completed.
    -- Stationary point found.
 Normal termination of Gaussian 09 at Tue Jan 28 12:07:05 2020.

 ----------------------------------------------------------------------
 #N Geom=AllCheck Guess=TCheck SCRF=Check GenChk RB3LYP/6-31G(2df,p) Fr
 eq
 ----------------------------------------------------------------------

 Structure from the checkpoint file:  "/scratch/puck/g09_61d91b12-679d-4893-aa18-affef9695f79/Gau-1491.chk"
 -----
 titel
 -----
 Charge =  0 Multiplicity = 1

                         Standard orientation:
 ---------------------------------------------------------------------
 Center     Atomic      Atomic             Coordinates (Angstroms)
 Number     Number       Type             X           Y           Z
 ---------------------------------------------------------------------
      1          6           0        4.559121   -0.538087    0.104091
      2          8           0        3.191592   -0.395626    0.411018
      3          6           0        2.511390    0.386487   -0.551781
      4          6           0        1.104603    0.511007   -0.194702
      5          6           0       -0.058456    0.634601    0.088319
      6          6           0       -1.471494    0.750508    0.422404
      7          6           0       -2.321532   -0.405764   -0.155473
      8          6           0       -3.758291   -0.331248    0.310314
      9          8           0       -4.720748   -0.364980   -0.410746
     10          1           0        4.712036   -1.037423   -0.866174
     11          1           0        5.076009    0.434541    0.073514
     12          1           0        5.004500   -1.150580    0.891001
     13          1           0        2.968477    1.389286   -0.624400
     14          1           0        2.604318   -0.071033   -1.552706
     15          1           0       -1.587306    0.777780    1.514285
     16          1           0       -1.860336    1.707915    0.052769
     17          1           0       -2.297355   -0.411614   -1.247533
     18          1           0       -1.903708   -1.356945    0.200826
     19          1           0       -3.875433   -0.242103    1.417211
 ---------------------------------------------------------------------

 SCF Done:  E(RB3LYP) =  -423.145818553     A.U. after    1 cycles

 The electronic state is 1-A.
 Alpha  occ. eigenvalues --  -19.14705 -19.14452 -10.27646 -10.25497 -10.22947
 Alpha  occ. eigenvalues --  -10.22462 -10.20429 -10.18392 -10.17861  -1.05131
 Alpha  occ. eigenvalues --   -1.04067  -0.81936  -0.77285  -0.72143  -0.67534
 Alpha  occ. eigenvalues --   -0.64556  -0.58210  -0.51233  -0.49291  -0.48942
 Alpha  occ. eigenvalues --   -0.48422  -0.47292  -0.45724  -0.42581  -0.41589
 Alpha  occ. eigenvalues --   -0.41077  -0.40175  -0.38306  -0.36389  -0.33001
 Alpha  occ. eigenvalues --   -0.27472  -0.26729  -0.26048  -0.24682
 Alpha virt. eigenvalues --   -0.02767   0.03123   0.05038   0.09429   0.10245
 Alpha virt. eigenvalues --    0.12112   0.13247   0.14085   0.14897   0.15506
 Alpha virt. eigenvalues --    0.16139   0.16365   0.18436   0.19173   0.21928

 Mulliken charges:
               1
     1  C   -0.218954
     2  O   -0.228440
     3  C   -0.202392
     4  C    0.057647
     5  C    0.101299
     6  C   -0.369015
     7  C   -0.261328
     8  C    0.155307
     9  O   -0.231503
    10  H    0.105247
    11  H    0.105337
    12  H    0.131805
    13  H    0.114923
    14  H    0.114232
    15  H    0.138555
    16  H    0.144056
    17  H    0.133956
    18  H    0.137082
    19  H    0.072184
 Sum of Mulliken charges =   0.00000

 Dipole moment (field-independent basis, Debye):
    X=              2.6918    Y=              0.4861    Z=              0.2371  Tot=              2.7456
 Quadrupole moment (field-independent basis, Debye-Ang):
   XX=            -60.3876   YY=            -52.2386   ZZ=            -52.8251
   XY=             -1.2448   XZ=             -8.4619   YZ=             -0.3044

  Exact polarizability: 127.752  -2.968  60.053  -4.157   0.794  65.679
 Approx polarizability: 161.580  -5.404  87.162  -4.929   0.775 100.561

                      1                      2                      3
                      A                      A                      A
 Frequencies --     16.2721                52.9277                59.2598
 Red. masses --      3.2433                 3.2165                 2.7455
 Frc consts  --      0.0005                 0.0053                 0.0057
 IR Inten    --      2.7709                 1.5565                 1.4641

                      4                      5                      6
                      A                      A                      A
 Frequencies --     74.2919               100.8314               125.6013
 Red. masses --      3.1446                 3.9005                 3.1553
 Frc consts  --      0.0102                 0.0234                 0.0293
 IR Inten    --     10.8765                 2.3575                 1.7036

                      7                      8                      9
                      A                      A                      A
 Frequencies --    233.2420               264.4283               286.1874
 Red. masses --      1.1706                 3.0057                 3.9528
 Frc consts  --      0.0375                 0.1238                 0.1907
 IR Inten    --      2.5213                 5.3926                 2.4867

                     10                     11                     12
                      A                      A                      A
 Frequencies --    305.2129               382.2662               439.6228
 Red. masses --      3.2439                 3.4076                 5.6043
 Frc consts  --      0.1780                 0.2934                 0.6382
 IR Inten    --      1.3336                 0.5870                 3.1957

                     13                     14                     15
                      A                      A                      A
 Frequencies --    518.8322               551.7978               755.4071
 Red. masses --      3.8753                 4.1498                 1.3094
 Frc consts  --      0.6146                 0.7445                 0.4402
 IR Inten    --      8.9200                 8.5341                 1.4793

                     16                     17                     18
                      A                      A                      A
 Frequencies --    810.7498               851.4692               977.4342
 Red. masses --      3.0487                 1.6866                 4.5194
 Frc consts  --      1.1807                 0.7204                 2.5439
 IR Inten    --      2.2004                 5.2646                29.4338

                     19                     20                     21
                      A                      A                      A
 Frequencies --    990.4309              1027.5256              1075.8893
 Red. masses --      3.1914                 1.6081                 2.6980
 Frc consts  --      1.8445                 1.0004                 1.8401
 IR Inten    --     11.0980                 2.3335                18.5371

                     22                     23                     24
                      A                      A                      A
 Frequencies --   1092.3766              1137.5996              1179.8149
 Red. masses --      2.0506                 5.7077                 3.3648
 Frc consts  --      1.4417                 4.3520                 2.7595
 IR Inten    --     19.1699               129.4918                64.0934

                     25                     26                     27
                      A                      A                      A
 Frequencies --   1182.6898              1198.3219              1220.7482
 Red. masses --      1.2904                 1.2785                 1.5533
 Frc consts  --      1.0635                 1.0817                 1.3638
 IR Inten    --      3.5249                11.4179                37.7781

                     28                     29                     30
                      A                      A                      A
 Frequencies --   1253.2524              1263.8670              1304.7421
 Red. masses --      1.0820                 1.3680                 1.1079
 Frc consts  --      1.0013                 1.2875                 1.1113
 IR Inten    --      4.7186                 1.4889                 4.3033

                     31                     32                     33
                      A                      A                      A
 Frequencies --   1364.2534              1411.5690              1431.1379
 Red. masses --      1.5201                 1.3714                 1.1944
 Frc consts  --      1.6669                 1.6100                 1.4414
 IR Inten    --     28.3137               112.6594                 5.8258

                     34                     35                     36
                      A                      A                      A
 Frequencies --   1461.2813              1477.4288              1478.0120
 Red. masses --      1.0805                 1.1013                 1.1544
 Frc consts  --      1.3593                 1.4163                 1.4858
 IR Inten    --      2.1811                 4.5279                 0.8012

                     37                     38                     39
                      A                      A                      A
 Frequencies --   1485.0193              1496.3104              1516.7997
 Red. masses --      1.0467                 1.0704                 1.0755
 Frc consts  --      1.3600                 1.4120                 1.4579
 IR Inten    --      5.3280                 3.2210                 3.2917

                     40                     41                     42
                      A                      A                      A
 Frequencies --   1839.5608              2376.4315              2845.6854
 Red. masses --     10.2255                11.8903                 1.0814
 Frc consts  --     20.3874                39.5635                 5.1595
 IR Inten    --    199.2605                 9.3726               116.2345

                     43                     44                     45
                      A                      A                      A
 Frequencies --   2942.5458              2959.1501              2968.7594
 Red. masses --      1.0532                 1.1027                 1.0382
 Frc consts  --      5.3729                 5.6891                 5.3909
 IR Inten    --     30.4664                46.0187                78.7821

                     46                     47                     48
                      A                      A                      A
 Frequencies --   3011.2720              3015.9540              3031.4635
 Red. masses --      1.1031                 1.0590                 1.0686
 Frc consts  --      5.8933                 5.6752                 5.7859
 IR Inten    --     57.4947                17.3344                 6.8436

                     49                     50                     51
                      A                      A                      A
 Frequencies --   3050.1155              3118.0231              3121.3855
 Red. masses --      1.0963                 1.0976                 1.0955
 Frc consts  --      6.0092                 6.2871                 6.2886
 IR Inten    --     10.3600                10.5873                25.2504

 - Thermochemistry -
 -------------------
 Temperature   298.150 Kelvin.  Pressure   1.00000 Atm.
 Atom     1 has atomic number  6 and mass  12.00000

 Molecular mass:   126.06808 amu.
 Principal axes and moments of inertia in atomic units:
                           1         2         3
     Eigenvalues --   220.177774506.034714558.01196
           X            0.99996  -0.00346  -0.00878
           Y            0.00367   0.99970   0.02404
           Z            0.00870  -0.02407   0.99967
 This molecule is an asymmetric top.
 Rotational symmetry number  1.
 Rotational temperatures (Kelvin)      0.39338     0.01922     0.01900
 Rotational constants (GHZ):           8.19675     0.40052     0.39595
 Zero-point vibrational energy     407539.3 (Joules/Mol)
                                   97.40423 (Kcal/Mol)
 Warning -- explicit consideration of  14 degrees of freedom as
           vibrations may cause significant error
 Vibrational temperatures:     23.41    76.15    85.26   106.89   145.07
          (Kelvin)            180.71   335.58   380.45   411.76   439.13
                              550.00   632.52   746.48   793.91  1086.86
                             1166.49  1225.07  1406.31  1425.01  1478.38
                             1547.96  1571.68  1636.75  1697.49  1701.62
                             1724.12  1756.38  1803.15  1818.42  1877.23
                             1962.85  2030.93  2059.09  2102.46  2125.69
                             2126.53  2136.61  2152.85  2182.33  2646.71
                             3419.15  4094.30  4233.66  4257.55  4271.38
                             4332.54  4339.28  4361.59  4388.43  4486.13
                             4490.97

 Zero-point correction=                           0.155224 (Hartree/Particle)
 Thermal correction to Energy=                    0.166219
 Thermal correction to Enthalpy=                  0.167164
 Thermal correction to Gibbs Free Energy=         0.115907
 Sum of electronic and zero-point Energies=           -422.990595
 Sum of electronic and thermal Energies=              -422.979599
 Sum of electronic and thermal Enthalpies=            -422.978655
 Sum of electronic and thermal Free Energies=         -423.029911

                     E (Thermal)             CV                S
                      KCal/Mol        Cal/Mol-Kelvin    Cal/Mol-Kelvin
 Total                  104.304             35.906            107.878
 Electronic               0.000              0.000              0.000
 Translational            0.889              2.981             40.409
 Rotational               0.889              2.981             29.893
 Vibrational            102.527             29.945             37.577
 Vibration     1          0.593              1.986              7.044
 Vibration     2          0.596              1.976              4.705
 Vibration     3          0.597              1.974              4.482
 Vibration     4          0.599              1.966              4.036
 Vibration     5          0.604              1.948              3.438
 Vibration     6          0.611              1.927              3.012
 Vibration     7          0.654              1.790              1.854
 Vibration     8          0.671              1.738              1.632
 Vibration     9          0.684              1.699              1.496
 Vibration    10          0.696              1.664              1.388
 Vibration    11          0.752              1.508              1.030
 Vibration    12          0.800              1.384              0.828
 Vibration    13          0.874              1.208              0.613
 Vibration    14          0.907              1.136              0.540

 Optimization completed.
    -- Stationary point found.
 Normal termination of Gaussian 09 at Tue Jan 28 12:39:35 2020.
