 Gaussian 09, Revision D.01,
 Gaussian 09:  ES64L-G09RevD.01 24-Apr-2013

 -----------------------------
 # b3lyp 6-31G(2df,p) opt Freq
 -----------------------------

 -----
 titel
 -----
 Symbolic Z-matrix:
 Charge =  0 Multiplicity = 1

 SCF Done:  E(RB3LYP) =  -423.167745872     A.U. after   13 cycles
 Optimization completed.
    -- Stationary point found.
 Normal termination of Gaussian 09 at Mon Jan 27 17:36:18 2020.

 ----------------------------------------------------------------------
 #N Geom=AllCheck Guess=TCheck SCRF=Check GenChk RB3LYP/6-31G(2df,p) Fr
 eq
 ----------------------------------------------------------------------

 Structure from the checkpoint file:  "/scratch/puck/g09_b0273c8d-9acb-4f73-96c1-a48f23907266/Gau-73164.chk"
 -----
 titel
 -----
 Charge =  0 Multiplicity = 1

                         Standard orientation:
 ---------------------------------------------------------------------
 Center     Atomic      Atomic             Coordinates (Angstroms)
 Number     Number       Type             X           Y           Z
 ---------------------------------------------------------------------
      1          8           0       -2.307187   -0.634768    0.006925
      2          6           0       -1.066139   -0.023418   -0.167715
      3          6           0       -0.924563    1.462062   -0.320001
      4          6           0       -0.430113    0.768201    0.946828
      5          6           0        1.005383    0.199716    1.047506
      6          6           0        1.811468    0.587405   -0.197505
      7          8           0        1.128318   -0.103243   -1.265865
      8          6           0        0.114072   -0.911004   -0.645572
      9          6           0        0.747998   -1.294115    0.701028
     10          1           0       -2.768626   -0.619258   -0.838953
     11          1           0       -0.236220    1.863242   -1.052905
     12          1           0       -1.839230    2.032251   -0.190167
     13          1           0       -0.974413    0.960752    1.863951
     14          1           0        1.510866    0.411058    1.989873
     15          1           0        1.815182    1.663712   -0.399205
     16          1           0        2.850955    0.239844   -0.138385
     17          1           0       -0.169043   -1.706834   -1.335037
     18          1           0        0.039045   -1.773206    1.379483
     19          1           0        1.653801   -1.900547    0.605453
 ---------------------------------------------------------------------

 SCF Done:  E(RB3LYP) =  -423.167745872     A.U. after    1 cycles

 The electronic state is 1-A.
 Alpha  occ. eigenvalues --  -19.14474 -19.13282 -10.22948 -10.22879 -10.22245
 Alpha  occ. eigenvalues --  -10.19482 -10.18591 -10.18299 -10.17967  -1.03759
 Alpha  occ. eigenvalues --   -1.02293  -0.86216  -0.77200  -0.73627  -0.61782
 Alpha  occ. eigenvalues --   -0.61144  -0.58283  -0.53488  -0.53177  -0.50025
 Alpha  occ. eigenvalues --   -0.47920  -0.44520  -0.41557  -0.40834  -0.40377
 Alpha  occ. eigenvalues --   -0.37634  -0.35826  -0.35188  -0.34480  -0.32327
 Alpha  occ. eigenvalues --   -0.30227  -0.27497  -0.25655  -0.23741
 Alpha virt. eigenvalues --    0.07970   0.09339   0.11096   0.11901   0.12404
 Alpha virt. eigenvalues --    0.14630   0.15260   0.15586   0.16189   0.17900
 Alpha virt. eigenvalues --    0.18183   0.19569   0.20565   0.21641   0.22294

 Mulliken charges:
               1
     1  O   -0.472879
     2  C    0.398710
     3  C   -0.366113
     4  C   -0.097325
     5  C   -0.055411
     6  C   -0.090942
     7  O   -0.278057
     8  C    0.030789
     9  C   -0.228970
    10  H    0.283389
    11  H    0.130015
    12  H    0.108689
    13  H    0.094599
    14  H    0.068171
    15  H    0.101666
    16  H    0.096094
    17  H    0.071601
    18  H    0.112088
    19  H    0.093886
 Sum of Mulliken charges =   0.00000

 Dipole moment (field-independent basis, Debye):
    X=             -0.1340    Y=              0.2712    Z=              0.3225  Tot=              0.4422
 Quadrupole moment (field-independent basis, Debye-Ang):
   XX=            -51.2263   YY=            -52.2948   ZZ=            -53.6149
   XY=             -0.4609   XZ=              5.8899   YZ=              0.9786

  Exact polarizability:  79.978  -0.658  73.186   3.476  -0.380  66.391
 Approx polarizability: 110.949   2.390 108.291   4.334   0.089 105.946

                      1                      2                      3
                      A                      A                      A
 Frequencies --    205.9399               280.9954               317.4695
 Red. masses --      3.5737                 2.4961                 1.8080
 Frc consts  --      0.0893                 0.1161                 0.1074
 IR Inten    --      7.5913                 2.9849                54.7981

                      4                      5                      6
                      A                      A                      A
 Frequencies --    327.7800               386.9746               453.1023
 Red. masses --      2.2326                 2.6273                 3.2693
 Frc consts  --      0.1413                 0.2318                 0.3955
 IR Inten    --     38.2458                11.4814                 0.9407

                      7                      8                      9
                      A                      A                      A
 Frequencies --    480.3059               514.4891               578.0964
 Red. masses --      1.9790                 2.8096                 3.7491
 Frc consts  --      0.2690                 0.4382                 0.7382
 IR Inten    --      3.5192                 0.4730                 1.3435

                     10                     11                     12
                      A                      A                      A
 Frequencies --    696.4503               754.1514               782.4707
 Red. masses --      3.1860                 3.7726                 3.9568
 Frc consts  --      0.9105                 1.2642                 1.4273
 IR Inten    --      4.5284                 0.2476                 2.1760

                     13                     14                     15
                      A                      A                      A
 Frequencies --    841.3700               888.7835               896.6211
 Red. masses --      2.5089                 2.5434                 2.3329
 Frc consts  --      1.0464                 1.1837                 1.1050
 IR Inten    --      3.7797                19.3576                11.7363

                     16                     17                     18
                      A                      A                      A
 Frequencies --    906.8803               925.6437               948.9477
 Red. masses --      2.0695                 3.2692                 1.7899
 Frc consts  --      1.0028                 1.6504                 0.9496
 IR Inten    --     10.1547                16.0504                 5.2883

                     19                     20                     21
                      A                      A                      A
 Frequencies --    961.3559               968.3519              1005.1642
 Red. masses --      1.9363                 1.8495                 2.1796
 Frc consts  --      1.0544                 1.0218                 1.2975
 IR Inten    --     22.9633                 3.2587                14.2863

                     22                     23                     24
                      A                      A                      A
 Frequencies --   1014.3395              1038.0896              1069.1105
 Red. masses --      1.7029                 1.9062                 1.4404
 Frc consts  --      1.0323                 1.2103                 0.9700
 IR Inten    --      4.6351                 4.5634                23.7893

                     25                     26                     27
                      A                      A                      A
 Frequencies --   1088.2931              1099.2553              1139.9043
 Red. masses --      2.1121                 1.5922                 1.1980
 Frc consts  --      1.4738                 1.1336                 0.9172
 IR Inten    --     35.4910                 4.9498                 3.9117

                     28                     29                     30
                      A                      A                      A
 Frequencies --   1169.4012              1210.1074              1231.6236
 Red. masses --      1.7133                 1.2127                 2.2655
 Frc consts  --      1.3804                 1.0463                 2.0247
 IR Inten    --     10.8102                 1.7199                92.1963

                     31                     32                     33
                      A                      A                      A
 Frequencies --   1244.8048              1269.7945              1279.3044
 Red. masses --      1.7304                 1.7092                 1.3763
 Frc consts  --      1.5798                 1.6237                 1.3271
 IR Inten    --     11.3554                 5.4837                 3.0671

                     34                     35                     36
                      A                      A                      A
 Frequencies --   1295.3606              1319.5256              1325.4910
 Red. masses --      1.9006                 1.6456                 1.4123
 Frc consts  --      1.8790                 1.6881                 1.4620
 IR Inten    --      1.1018                 7.1620                34.1538

                     37                     38                     39
                      A                      A                      A
 Frequencies --   1379.8203              1399.7837              1483.6271
 Red. masses --      1.3991                 1.7419                 1.4459
 Frc consts  --      1.5694                 2.0109                 1.8751
 IR Inten    --      2.1514                 8.4359                 6.5168

                     40                     41                     42
                      A                      A                      A
 Frequencies --   1491.1259              1532.7097              3017.1392
 Red. masses --      1.1365                 1.0892                 1.0625
 Frc consts  --      1.4888                 1.5076                 5.6985
 IR Inten    --      5.8257                 0.5761                68.3793

                     43                     44                     45
                      A                      A                      A
 Frequencies --   3059.3952              3066.3115              3115.4707
 Red. masses --      1.0605                 1.1018                 1.0873
 Frc consts  --      5.8481                 6.1036                 6.2182
 IR Inten    --     20.9852                44.3293                52.7219

                     46                     47                     48
                      A                      A                      A
 Frequencies --   3119.8366              3124.9979              3137.0497
 Red. masses --      1.0914                 1.1060                 1.0550
 Frc consts  --      6.2587                 6.3636                 6.1169
 IR Inten    --     14.1907                18.8781                12.2216

                     49                     50                     51
                      A                      A                      A
 Frequencies --   3181.4989              3229.9042              3791.5776
 Red. masses --      1.0915                 1.1146                 1.0662
 Frc consts  --      6.5092                 6.8512                 9.0305
 IR Inten    --      8.4471                 5.2564                20.5824

 - Thermochemistry -
 -------------------
 Temperature   298.150 Kelvin.  Pressure   1.00000 Atm.
 Atom     1 has atomic number  8 and mass  15.99491

 Molecular mass:   126.06808 amu.
 Principal axes and moments of inertia in atomic units:
                           1         2         3
     Eigenvalues --   613.093881052.569861123.77240
           X            0.99944  -0.01368   0.03062
           Y            0.01561   0.99785  -0.06361
           Z           -0.02968   0.06405   0.99751
 This molecule is an asymmetric top.
 Rotational symmetry number  1.
 Warning -- assumption of classical behavior for rotation
           may cause significant error
 Rotational temperatures (Kelvin)      0.14127     0.08229     0.07707
 Rotational constants (GHZ):           2.94366     1.71460     1.60597
 Zero-point vibrational energy     424949.4 (Joules/Mol)
                                  101.56535 (Kcal/Mol)
 Warning -- explicit consideration of   9 degrees of freedom as
           vibrations may cause significant error
 Vibrational temperatures:    296.30   404.29   456.77   471.60   556.77
          (Kelvin)            651.91   691.05   740.23   831.75  1002.04
                             1085.05  1125.80  1210.54  1278.76  1290.04
                             1304.80  1331.79  1365.32  1383.17  1393.24
                             1446.21  1459.41  1493.58  1538.21  1565.81
                             1581.58  1640.07  1682.51  1741.07  1772.03
                             1790.99  1826.95  1840.63  1863.73  1898.50
                             1907.08  1985.25  2013.97  2134.61  2145.39
                             2205.22  4340.98  4401.78  4411.73  4482.46
                             4488.74  4496.17  4513.51  4577.46  4647.11
                             5455.23

 Zero-point correction=                           0.161855 (Hartree/Particle)
 Thermal correction to Energy=                    0.168731
 Thermal correction to Enthalpy=                  0.169675
 Thermal correction to Gibbs Free Energy=         0.131180
 Sum of electronic and zero-point Energies=           -423.005891
 Sum of electronic and thermal Energies=              -422.999015
 Sum of electronic and thermal Enthalpies=            -422.998071
 Sum of electronic and thermal Free Energies=         -423.036566

                     E (Thermal)             CV                S
                      KCal/Mol        Cal/Mol-Kelvin    Cal/Mol-Kelvin
 Total                  105.880             29.457             81.020
 Electronic               0.000              0.000              0.000
 Translational            0.889              2.981             40.409
 Rotational               0.889              2.981             28.074
 Vibrational            104.103             23.495             12.537
 Vibration     1          0.640              1.831              2.079
 Vibration     2          0.681              1.709              1.528
 Vibration     3          0.704              1.640              1.323
 Vibration     4          0.711              1.620              1.271
 Vibration     5          0.755              1.498              1.012
 Vibration     6          0.812              1.354              0.786
 Vibration     7          0.837              1.294              0.709
 Vibration     8          0.870              1.218              0.623
 Vibration     9          0.935              1.079              0.489

 Optimization completed.
    -- Stationary point found.
 Normal termination of Gaussian 09 at Mon Jan 27 18:37:51 2020.
