 Gaussian 09, Revision D.01,
 Gaussian 09:  ES64L-G09RevD.01 24-Apr-2013

 -----------------------------
 # b3lyp 6-31G(2df,p) opt Freq
 -----------------------------

 -----
 titel
 -----
 Symbolic Z-matrix:
 Charge =  0 Multiplicity = 1

 SCF Done:  E(RB3LYP) =  -423.179917767     A.U. after   14 cycles
 Optimization completed.
    -- Stationary point found.
 Normal termination of Gaussian 09 at Mon Jan 27 16:30:33 2020.

 ----------------------------------------------------------------------
 #N Geom=AllCheck Guess=TCheck SCRF=Check GenChk RB3LYP/6-31G(2df,p) Fr
 eq
 ----------------------------------------------------------------------

 Structure from the checkpoint file:  "/scratch/puck/g09_8365a7b2-d12c-4e03-b78e-162fbd58da5a/Gau-12254.chk"
 -----
 titel
 -----
 Charge =  0 Multiplicity = 1

                         Standard orientation:
 ---------------------------------------------------------------------
 Center     Atomic      Atomic             Coordinates (Angstroms)
 Number     Number       Type             X           Y           Z
 ---------------------------------------------------------------------
      1          6           0        2.311863   -0.090948   -0.653476
      2          6           0        0.941753    0.053599    0.007679
      3          8           0        1.119760   -0.158118    1.401414
      4          6           0        0.372666    1.476580   -0.217785
      5          6           0       -1.097977    1.593073    0.092638
      6          6           0       -1.950181    0.576597   -0.043483
      7          6           0       -1.478710   -0.743868   -0.526206
      8          8           0       -0.865526   -1.633580    0.445053
      9          6           0       -0.034609   -1.012515   -0.543622
     10          1           0        3.001265    0.661231   -0.259498
     11          1           0        2.727013   -1.079419   -0.437708
     12          1           0        2.244653    0.035553   -1.739171
     13          1           0        0.329088   -0.627130    1.703519
     14          1           0        0.947007    2.157415    0.418334
     15          1           0        0.548681    1.799494   -1.254669
     16          1           0       -1.462244    2.561324    0.426749
     17          1           0       -3.006723    0.689959    0.179380
     18          1           0       -2.124338   -1.273479   -1.225506
     19          1           0        0.372894   -1.706468   -1.277634
 ---------------------------------------------------------------------

 SCF Done:  E(RB3LYP) =  -423.179917767     A.U. after    1 cycles

 The electronic state is 1-A.
 Alpha  occ. eigenvalues --  -19.16141 -19.12018 -10.24486 -10.24182 -10.23922
 Alpha  occ. eigenvalues --  -10.19688 -10.18884 -10.18635 -10.17478  -1.07813
 Alpha  occ. eigenvalues --   -1.00604  -0.81823  -0.76585  -0.70688  -0.67161
 Alpha  occ. eigenvalues --   -0.63501  -0.58490  -0.53689  -0.52271  -0.48663
 Alpha  occ. eigenvalues --   -0.45903  -0.45580  -0.43230  -0.41375  -0.39921
 Alpha  occ. eigenvalues --   -0.38712  -0.37954  -0.36192  -0.35176  -0.32576
 Alpha  occ. eigenvalues --   -0.30532  -0.28150  -0.26637  -0.24798
 Alpha virt. eigenvalues --   -0.00560   0.08518   0.09101   0.10982   0.12315
 Alpha virt. eigenvalues --    0.12989   0.14782   0.15468   0.16401   0.16648
 Alpha virt. eigenvalues --    0.17671   0.18838   0.19700   0.21621   0.23602

 Mulliken charges:
               1
     1  C   -0.424877
     2  C    0.340239
     3  O   -0.470078
     4  C   -0.280922
     5  C   -0.065358
     6  C   -0.083456
     7  C    0.008154
     8  O   -0.267715
     9  C   -0.019638
    10  H    0.124307
    11  H    0.123917
    12  H    0.108965
    13  H    0.290904
    14  H    0.119058
    15  H    0.107255
    16  H    0.099313
    17  H    0.096469
    18  H    0.099552
    19  H    0.093911
 Sum of Mulliken charges =   0.00000

 Dipole moment (field-independent basis, Debye):
    X=             -0.8758    Y=              1.0061    Z=             -2.0884  Tot=              2.4780
 Quadrupole moment (field-independent basis, Debye-Ang):
   XX=            -51.8916   YY=            -52.9999   ZZ=            -54.2765
   XY=             -0.7850   XZ=             -1.9566   YZ=              2.1275

  Exact polarizability:  87.221   2.751  78.091  -1.687   3.711  60.398
 Approx polarizability: 121.427  11.679 120.565  -0.603   1.120  96.878

                      1                      2                      3
                      A                      A                      A
 Frequencies --     82.5906               232.3128               247.4558
 Red. masses --      3.5945                 1.8613                 1.3170
 Frc consts  --      0.0144                 0.0592                 0.0475
 IR Inten    --      0.3541                 1.1258                 0.5436

                      4                      5                      6
                      A                      A                      A
 Frequencies --    279.4797               329.1454               341.4481
 Red. masses --      2.6584                 3.5267                 3.9480
 Frc consts  --      0.1223                 0.2251                 0.2712
 IR Inten    --      0.6816                 2.9789                 9.8385

                      7                      8                      9
                      A                      A                      A
 Frequencies --    397.0714               448.0772               485.2048
 Red. masses --      2.6717                 1.4246                 2.0412
 Frc consts  --      0.2482                 0.1685                 0.2831
 IR Inten    --      3.5989                38.5210                15.3148

                     10                     11                     12
                      A                      A                      A
 Frequencies --    509.5727               542.6976               576.4757
 Red. masses --      3.7780                 3.8441                 3.6164
 Frc consts  --      0.5780                 0.6671                 0.7081
 IR Inten    --      0.0901                 1.2894                19.3937

                     13                     14                     15
                      A                      A                      A
 Frequencies --    711.8977               723.4951               839.4328
 Red. masses --      2.3355                 2.4388                 3.6032
 Frc consts  --      0.6974                 0.7521                 1.4959
 IR Inten    --     10.8712                15.1846                 9.2025

                     16                     17                     18
                      A                      A                      A
 Frequencies --    855.6174               875.7265               915.0557
 Red. masses --      2.9945                 2.7158                 2.5322
 Frc consts  --      1.2916                 1.2271                 1.2492
 IR Inten    --     24.8634                 3.3506                17.8528

                     19                     20                     21
                      A                      A                      A
 Frequencies --    923.4598               966.4887               981.1909
 Red. masses --      2.6708                 2.3909                 2.0354
 Frc consts  --      1.3419                 1.3159                 1.1546
 IR Inten    --     12.0203                24.7250                 9.8195

                     22                     23                     24
                      A                      A                      A
 Frequencies --    998.6170              1029.4357              1066.0575
 Red. masses --      1.3890                 1.9361                 1.3767
 Frc consts  --      0.8161                 1.2089                 0.9218
 IR Inten    --      6.2454                 9.3469                10.6196

                     25                     26                     27
                      A                      A                      A
 Frequencies --   1107.6475              1140.9042              1163.1444
 Red. masses --      2.5293                 1.4436                 1.4920
 Frc consts  --      1.8283                 1.1071                 1.1893
 IR Inten    --     36.2904                 4.0253                 4.6660

                     28                     29                     30
                      A                      A                      A
 Frequencies --   1189.2042              1217.3533              1274.3640
 Red. masses --      1.4725                 1.6721                 1.3834
 Frc consts  --      1.2269                 1.4600                 1.3237
 IR Inten    --      4.1140                28.0456                 0.3049

                     31                     32                     33
                      A                      A                      A
 Frequencies --   1289.7966              1337.1012              1350.9422
 Red. masses --      1.4845                 1.4137                 1.3617
 Frc consts  --      1.4550                 1.4891                 1.4643
 IR Inten    --      6.2586                 6.2619                39.2210

                     34                     35                     36
                      A                      A                      A
 Frequencies --   1402.5907              1415.6069              1433.6029
 Red. masses --      1.2794                 1.4997                 1.5187
 Frc consts  --      1.4829                 1.7706                 1.8390
 IR Inten    --      5.1711                 1.9226                63.9985

                     37                     38                     39
                      A                      A                      A
 Frequencies --   1453.4798              1460.4989              1485.5095
 Red. masses --      2.3049                 1.3265                 1.0729
 Frc consts  --      2.8689                 1.6671                 1.3950
 IR Inten    --      9.4016                16.5571                 4.7049

                     40                     41                     42
                      A                      A                      A
 Frequencies --   1496.4680              1711.1246              3002.3028
 Red. masses --      1.0608                 6.6159                 1.0690
 Frc consts  --      1.3996                11.4130                 5.6771
 IR Inten    --      0.3449                 7.8648                20.5502

                     43                     44                     45
                      A                      A                      A
 Frequencies --   3037.5935              3076.6894              3110.2970
 Red. masses --      1.0352                 1.0912                 1.0930
 Frc consts  --      5.6280                 6.0858                 6.2300
 IR Inten    --     16.2937                10.4357                21.6273

                     46                     47                     48
                      A                      A                      A
 Frequencies --   3112.4846              3119.9222              3124.0142
 Red. masses --      1.0945                 1.1013                 1.0915
 Frc consts  --      6.2473                 6.3158                 6.2762
 IR Inten    --     12.3533                11.3891                48.0524

                     49                     50                     51
                      A                      A                      A
 Frequencies --   3155.1345              3181.7839              3730.8253
 Red. masses --      1.0851                 1.0969                 1.0650
 Frc consts  --      6.3643                 6.5428                 8.7343
 IR Inten    --      9.1743                25.0397                57.1011

 - Thermochemistry -
 -------------------
 Temperature   298.150 Kelvin.  Pressure   1.00000 Atm.
 Atom     1 has atomic number  6 and mass  12.00000

 Molecular mass:   126.06808 amu.
 Principal axes and moments of inertia in atomic units:
                           1         2         3
     Eigenvalues --   723.883031043.310661350.53816
           X            0.99948  -0.01730  -0.02708
           Y            0.01815   0.99934   0.03145
           Z            0.02652  -0.03192   0.99914
 This molecule is an asymmetric top.
 Rotational symmetry number  1.
 Warning -- assumption of classical behavior for rotation
           may cause significant error
 Rotational temperatures (Kelvin)      0.11965     0.08302     0.06413
 Rotational constants (GHZ):           2.49314     1.72982     1.33631
 Zero-point vibrational energy     418324.5 (Joules/Mol)
                                   99.98195 (Kcal/Mol)
 Warning -- explicit consideration of  12 degrees of freedom as
           vibrations may cause significant error
 Vibrational temperatures:    118.83   334.25   356.03   402.11   473.57
          (Kelvin)            491.27   571.30   644.68   698.10   733.16
                              780.82   829.42  1024.26  1040.95  1207.75
                             1231.04  1259.97  1316.56  1328.65  1390.56
                             1411.71  1436.79  1481.13  1533.82  1593.66
                             1641.50  1673.50  1711.00  1751.50  1833.52
                             1855.73  1923.79  1943.70  2018.01  2036.74
                             2062.63  2091.23  2101.33  2137.31  2153.08
                             2461.92  4319.64  4370.41  4426.66  4475.02
                             4478.17  4488.87  4494.75  4539.53  4577.87
                             5367.82

 Zero-point correction=                           0.159331 (Hartree/Particle)
 Thermal correction to Energy=                    0.167403
 Thermal correction to Enthalpy=                  0.168347
 Thermal correction to Gibbs Free Energy=         0.127170
 Sum of electronic and zero-point Energies=           -423.020586
 Sum of electronic and thermal Energies=              -423.012515
 Sum of electronic and thermal Enthalpies=            -423.011571
 Sum of electronic and thermal Free Energies=         -423.052748

                     E (Thermal)             CV                S
                      KCal/Mol        Cal/Mol-Kelvin    Cal/Mol-Kelvin
 Total                  105.047             32.459             86.664
 Electronic               0.000              0.000              0.000
 Translational            0.889              2.981             40.409
 Rotational               0.889              2.981             28.413
 Vibrational            103.269             26.497             17.842
 Vibration     1          0.600              1.961              3.828
 Vibration     2          0.653              1.792              1.861
 Vibration     3          0.661              1.767              1.749
 Vibration     4          0.680              1.712              1.537
 Vibration     5          0.712              1.617              1.264
 Vibration     6          0.721              1.593              1.205
 Vibration     7          0.764              1.476              0.973
 Vibration     8          0.807              1.365              0.802
 Vibration     9          0.841              1.283              0.696
 Vibration    10          0.865              1.229              0.635
 Vibration    11          0.898              1.156              0.560
 Vibration    12          0.933              1.082              0.492

 Optimization completed.
    -- Stationary point found.
 Normal termination of Gaussian 09 at Mon Jan 27 18:31:24 2020.
