 Gaussian 09, Revision D.01,
 Gaussian 09:  ES64L-G09RevD.01 24-Apr-2013

 -----------------------------
 # b3lyp 6-31G(2df,p) opt Freq
 -----------------------------

 -----
 titel
 -----
 Symbolic Z-matrix:
 Charge =  0 Multiplicity = 1

 SCF Done:  E(RB3LYP) =  -423.126777396     A.U. after   12 cycles
 Optimization completed.
    -- Stationary point found.
 Normal termination of Gaussian 09 at Mon Jan 27 22:01:40 2020.

 ----------------------------------------------------------------------
 #N Geom=AllCheck Guess=TCheck SCRF=Check GenChk RB3LYP/6-31G(2df,p) Fr
 eq
 ----------------------------------------------------------------------

 Structure from the checkpoint file:  "/scratch/puck/g09_8f261c9c-2e6d-44ec-941c-3f8917143ca2/Gau-98644.chk"
 -----
 titel
 -----
 Charge =  0 Multiplicity = 1

                         Standard orientation:
 ---------------------------------------------------------------------
 Center     Atomic      Atomic             Coordinates (Angstroms)
 Number     Number       Type             X           Y           Z
 ---------------------------------------------------------------------
      1          8           0        2.340024   -1.211837    0.027367
      2          6           0        1.058031   -0.804390    0.437846
      3          6           0        0.069238   -0.482732   -0.669284
      4          6           0       -1.205070    0.034273   -0.035482
      5          6           0       -2.356594   -0.767986    0.504167
      6          6           0       -2.543234    0.136431   -0.697477
      7          6           0       -0.447888    1.189200    0.662665
      8          6           0        0.842675    0.633968    0.079576
      9          8           0        1.886754    1.443699   -0.291310
     10          1           0        2.267426   -2.053851   -0.432815
     11          1           0        0.727260   -1.240905    1.383953
     12          1           0        0.176989   -0.892458   -1.668310
     13          1           0       -2.358865   -1.840958    0.340241
     14          1           0       -2.801687   -0.459526    1.444711
     15          1           0       -2.670175   -0.327705   -1.670481
     16          1           0       -3.110333    1.052700   -0.565344
     17          1           0       -0.695662    2.163393    0.232141
     18          1           0       -0.504479    1.250363    1.755304
     19          1           0        2.652356    0.861477   -0.399929
 ---------------------------------------------------------------------

 SCF Done:  E(RB3LYP) =  -423.126777396     A.U. after    1 cycles

 The electronic state is 1-A.
 Alpha  occ. eigenvalues --  -19.15820 -19.14041 -10.23844 -10.23375 -10.19924
 Alpha  occ. eigenvalues --  -10.18369 -10.18278 -10.18250 -10.18095  -1.05048
 Alpha  occ. eigenvalues --   -1.01951  -0.89144  -0.82674  -0.70639  -0.62717
 Alpha  occ. eigenvalues --   -0.59948  -0.58134  -0.52959  -0.52283  -0.51544
 Alpha  occ. eigenvalues --   -0.48525  -0.46706  -0.42762  -0.40435  -0.39383
 Alpha  occ. eigenvalues --   -0.37380  -0.36440  -0.35486  -0.32668  -0.31716
 Alpha  occ. eigenvalues --   -0.30066  -0.28627  -0.25230  -0.21719
 Alpha virt. eigenvalues --    0.06335   0.09617   0.10787   0.10988   0.12665
 Alpha virt. eigenvalues --    0.13044   0.13828   0.14629   0.15869   0.16915
 Alpha virt. eigenvalues --    0.17521   0.20322   0.21397   0.23074   0.23757

 Mulliken charges:
               1
     1  O   -0.447368
     2  C    0.006258
     3  C   -0.304347
     4  C    0.397471
     5  C   -0.323987
     6  C   -0.335427
     7  C   -0.386911
     8  C    0.446319
     9  O   -0.466521
    10  H    0.294946
    11  H    0.083833
    12  H    0.084411
    13  H    0.108628
    14  H    0.111529
    15  H    0.111438
    16  H    0.112100
    17  H    0.117394
    18  H    0.096455
    19  H    0.293779
 Sum of Mulliken charges =   0.00000

 Dipole moment (field-independent basis, Debye):
    X=             -0.5852    Y=             -2.0613    Z=             -0.4107  Tot=              2.1818
 Quadrupole moment (field-independent basis, Debye-Ang):
   XX=            -53.9962   YY=            -51.6138   ZZ=            -51.9975
   XY=             -4.6898   XZ=             -2.0555   YZ=              2.6170

  Exact polarizability:  89.054  -0.933  73.798  -0.216   1.513  66.484
 Approx polarizability: 116.834   1.024 111.388   0.648   1.994 102.288

                      1                      2                      3
                      A                      A                      A
 Frequencies --    110.5598               193.1166               224.7383
 Red. masses --      3.7462                 2.7097                 3.2717
 Frc consts  --      0.0270                 0.0595                 0.0974
 IR Inten    --      0.8604                 1.6961                 5.8243

                      4                      5                      6
                      A                      A                      A
 Frequencies --    264.6633               291.0354               309.7318
 Red. masses --      2.4396                 1.5379                 2.0383
 Frc consts  --      0.1007                 0.0767                 0.1152
 IR Inten    --     11.3577                62.6855                 3.2290

                      7                      8                      9
                      A                      A                      A
 Frequencies --    386.7302               419.8103               440.1831
 Red. masses --      2.6705                 2.7043                 2.6838
 Frc consts  --      0.2353                 0.2808                 0.3064
 IR Inten    --      4.9881                 4.5448                16.9448

                     10                     11                     12
                      A                      A                      A
 Frequencies --    465.5687               474.8673               611.3052
 Red. masses --      1.5413                 2.3966                 3.9302
 Frc consts  --      0.1968                 0.3184                 0.8653
 IR Inten    --     86.4855                 9.6293                11.6120

                     13                     14                     15
                      A                      A                      A
 Frequencies --    717.5807               771.0469               786.3808
 Red. masses --      3.7131                 1.3171                 1.7763
 Frc consts  --      1.1265                 0.4614                 0.6472
 IR Inten    --      3.6570                 4.6024                 8.2887

                     16                     17                     18
                      A                      A                      A
 Frequencies --    844.2311               860.6574               898.0665
 Red. masses --      5.0152                 2.2170                 1.3882
 Frc consts  --      2.1060                 0.9676                 0.6596
 IR Inten    --      9.7405                 9.8197                 2.5657

                     19                     20                     21
                      A                      A                      A
 Frequencies --    922.9376               941.6813               985.9985
 Red. masses --      1.6476                 1.6974                 2.2453
 Frc consts  --      0.8269                 0.8869                 1.2861
 IR Inten    --      1.2773                 4.7282                 1.5804

                     22                     23                     24
                      A                      A                      A
 Frequencies --   1020.1965              1051.6976              1068.5271
 Red. masses --      2.0486                 1.4400                 2.4762
 Frc consts  --      1.2563                 0.9384                 1.6658
 IR Inten    --      2.0378                 8.3241                 8.4699

                     25                     26                     27
                      A                      A                      A
 Frequencies --   1074.5543              1079.9333              1103.4932
 Red. masses --      1.7410                 1.5965                 1.9843
 Frc consts  --      1.1844                 1.0970                 1.4236
 IR Inten    --     32.0512                16.0811                21.3493

                     28                     29                     30
                      A                      A                      A
 Frequencies --   1148.6378              1151.8861              1187.1553
 Red. masses --      1.5371                 1.5907                 1.3002
 Frc consts  --      1.1949                 1.2435                 1.0797
 IR Inten    --     74.1581                11.8038                 1.2173

                     31                     32                     33
                      A                      A                      A
 Frequencies --   1195.5802              1237.1259              1250.5914
 Red. masses --      1.8867                 1.6815                 2.0483
 Frc consts  --      1.5890                 1.5162                 1.8875
 IR Inten    --     24.9020                14.4818                15.0037

                     34                     35                     36
                      A                      A                      A
 Frequencies --   1283.0562              1343.6760              1388.6497
 Red. masses --      1.3098                 1.5886                 2.4817
 Frc consts  --      1.2704                 1.6899                 2.8196
 IR Inten    --     77.2721                98.2763                 5.3263

                     37                     38                     39
                      A                      A                      A
 Frequencies --   1427.8165              1441.8359              1465.1451
 Red. masses --      1.8606                 2.8127                 1.0881
 Frc consts  --      2.2349                 3.4451                 1.3761
 IR Inten    --      6.2347                84.5106                 1.2307

                     40                     41                     42
                      A                      A                      A
 Frequencies --   1491.2266              1507.7297              3036.4388
 Red. masses --      1.2215                 1.6296                 1.0610
 Frc consts  --      1.6004                 2.1826                 5.7634
 IR Inten    --     14.0364                 0.8055                41.9085

                     43                     44                     45
                      A                      A                      A
 Frequencies --   3058.2044              3097.9841              3120.7492
 Red. masses --      1.0877                 1.1038                 1.0506
 Frc consts  --      5.9938                 6.2418                 6.0283
 IR Inten    --     40.5735                16.5193                21.7270

                     46                     47                     48
                      A                      A                      A
 Frequencies --   3125.3182              3165.0821              3198.7815
 Red. masses --      1.0578                 1.0927                 1.1178
 Frc consts  --      6.0873                 6.4493                 6.7388
 IR Inten    --     12.4269                13.6879                 0.1893

                     49                     50                     51
                      A                      A                      A
 Frequencies --   3213.9701              3744.2148              3816.0360
 Red. masses --      1.1155                 1.0645                 1.0667
 Frc consts  --      6.7891                 8.7923                 9.1516
 IR Inten    --     17.6731                57.7386                29.9125

 - Thermochemistry -
 -------------------
 Temperature   298.150 Kelvin.  Pressure   1.00000 Atm.
 Atom     1 has atomic number  8 and mass  15.99491

 Molecular mass:   126.06808 amu.
 Principal axes and moments of inertia in atomic units:
                           1         2         3
     Eigenvalues --   542.260071468.521991747.57085
           X            0.99996  -0.00858  -0.00318
           Y            0.00864   0.99974   0.02127
           Z            0.00299  -0.02129   0.99977
 This molecule is an asymmetric top.
 Rotational symmetry number  1.
 Warning -- assumption of classical behavior for rotation
           may cause significant error
 Rotational temperatures (Kelvin)      0.15973     0.05898     0.04956
 Rotational constants (GHZ):           3.32818     1.22895     1.03271
 Zero-point vibrational energy     415201.0 (Joules/Mol)
                                   99.23542 (Kcal/Mol)
 Warning -- explicit consideration of  12 degrees of freedom as
           vibrations may cause significant error
 Vibrational temperatures:    159.07   277.85   323.35   380.79   418.73
          (Kelvin)            445.63   556.42   604.01   633.32   669.85
                              683.23   879.53  1032.44  1109.36  1131.43
                             1214.66  1238.29  1292.12  1327.90  1354.87
                             1418.63  1467.83  1513.16  1537.37  1546.04
                             1553.78  1587.68  1652.63  1657.31  1708.05
                             1720.17  1779.95  1799.32  1846.03  1933.25
                             1997.95  2054.31  2074.48  2108.01  2145.54
                             2169.28  4368.75  4400.07  4457.30  4490.06
                             4496.63  4553.84  4602.33  4624.18  5387.08
                             5490.42

 Zero-point correction=                           0.158142 (Hartree/Particle)
 Thermal correction to Energy=                    0.166549
 Thermal correction to Enthalpy=                  0.167493
 Thermal correction to Gibbs Free Energy=         0.125685
 Sum of electronic and zero-point Energies=           -422.968636
 Sum of electronic and thermal Energies=              -422.960228
 Sum of electronic and thermal Enthalpies=            -422.959284
 Sum of electronic and thermal Free Energies=         -423.001092

                     E (Thermal)             CV                S
                      KCal/Mol        Cal/Mol-Kelvin    Cal/Mol-Kelvin
 Total                  104.511             33.642             87.993
 Electronic               0.000              0.000              0.000
 Translational            0.889              2.981             40.409
 Rotational               0.889              2.981             28.722
 Vibrational            102.734             27.681             18.862
 Vibration     1          0.606              1.941              3.259
 Vibration     2          0.635              1.849              2.198
 Vibration     3          0.649              1.803              1.921
 Vibration     4          0.671              1.738              1.631
 Vibration     5          0.687              1.690              1.468
 Vibration     6          0.699              1.655              1.364
 Vibration     7          0.755              1.499              1.013
 Vibration     8          0.782              1.427              0.893
 Vibration     9          0.800              1.383              0.826
 Vibration    10          0.823              1.326              0.750
 Vibration    11          0.832              1.306              0.724
 Vibration    12          0.970              1.008              0.431

 Normal termination of Gaussian 09 at Mon Jan 27 22:51:01 2020.
