 Gaussian 09, Revision D.01,
 Gaussian 09:  ES64L-G09RevD.01 24-Apr-2013

 -----------------------------
 # b3lyp 6-31G(2df,p) opt Freq
 -----------------------------

 -----
 titel
 -----
 Symbolic Z-matrix:
 Charge =  0 Multiplicity = 1

 SCF Done:  E(RB3LYP) =  -423.248161660     A.U. after   14 cycles
 Optimization completed.
    -- Stationary point found.
 Normal termination of Gaussian 09 at Mon Jan 27 22:00:25 2020.

 ----------------------------------------------------------------------
 #N Geom=AllCheck Guess=TCheck SCRF=Check GenChk RB3LYP/6-31G(2df,p) Fr
 eq
 ----------------------------------------------------------------------

 Structure from the checkpoint file:  "/scratch/puck/g09_409b8a91-738e-4d0f-8b54-24f0b6e20792/Gau-26421.chk"
 -----
 titel
 -----
 Charge =  0 Multiplicity = 1

                         Standard orientation:
 ---------------------------------------------------------------------
 Center     Atomic      Atomic             Coordinates (Angstroms)
 Number     Number       Type             X           Y           Z
 ---------------------------------------------------------------------
      1          6           0        2.595017    0.326337   -0.091653
      2          6           0        1.147687   -0.074530   -0.063596
      3          6           0        0.103315    0.765682    0.066346
      4          6           0        0.173845    2.259670    0.242577
      5          6           0       -1.293460    0.255618   -0.081775
      6          8           0       -2.234285    0.988628   -0.259847
      7          8           0       -1.504035   -1.086409   -0.064306
      8          6           0       -0.443396   -1.923887    0.403521
      9          6           0        0.882378   -1.552216   -0.234007
     10          1           0        3.127457   -0.095208    0.770818
     11          1           0        3.080326   -0.088723   -0.984264
     12          1           0        2.749176    1.404896   -0.094519
     13          1           0        1.189762    2.613551    0.419608
     14          1           0       -0.230354    2.770360   -0.636916
     15          1           0       -0.450110    2.570058    1.086348
     16          1           0       -0.373477   -1.834607    1.496081
     17          1           0       -0.746964   -2.944823    0.161141
     18          1           0        1.684102   -2.140290    0.228551
     19          1           0        0.884328   -1.813008   -1.302101
 ---------------------------------------------------------------------

 SCF Done:  E(RB3LYP) =  -423.248161660     A.U. after    1 cycles

 The electronic state is 1-A.
 Alpha  occ. eigenvalues --  -19.17095 -19.10927 -10.29440 -10.24765 -10.21569
 Alpha  occ. eigenvalues --  -10.20481 -10.20023 -10.19751 -10.18034  -1.08809
 Alpha  occ. eigenvalues --   -1.00588  -0.84233  -0.77314  -0.73668  -0.69243
 Alpha  occ. eigenvalues --   -0.63939  -0.58908  -0.53359  -0.50360  -0.48341
 Alpha  occ. eigenvalues --   -0.45814  -0.43922  -0.42674  -0.41997  -0.40679
 Alpha  occ. eigenvalues --   -0.40320  -0.39614  -0.38906  -0.37790  -0.35922
 Alpha  occ. eigenvalues --   -0.32108  -0.28538  -0.25849  -0.25368
 Alpha virt. eigenvalues --   -0.03282   0.07303   0.08791   0.10065   0.11873
 Alpha virt. eigenvalues --    0.12822   0.13723   0.14584   0.15532   0.16026
 Alpha virt. eigenvalues --    0.17478   0.19018   0.20284   0.21041   0.21899

 Mulliken charges:
               1
     1  C   -0.487734
     2  C    0.207236
     3  C    0.049061
     4  C   -0.478478
     5  C    0.387819
     6  O   -0.336044
     7  O   -0.231145
     8  C   -0.084264
     9  C   -0.307595
    10  H    0.134892
    11  H    0.135661
    12  H    0.134797
    13  H    0.113690
    14  H    0.147048
    15  H    0.141572
    16  H    0.110932
    17  H    0.121889
    18  H    0.112869
    19  H    0.127793
 Sum of Mulliken charges =   0.00000

 Dipole moment (field-independent basis, Debye):
    X=              4.5372    Y=             -1.7010    Z=              0.6791  Tot=              4.8929
 Quadrupole moment (field-independent basis, Debye-Ang):
   XX=            -60.3421   YY=            -49.8000   ZZ=            -52.2038
   XY=              1.9320   XZ=             -1.6564   YZ=              0.0379

  Exact polarizability:  93.470 -10.193  90.884  -0.614   0.539  55.608
 Approx polarizability: 145.095 -28.264 130.165   0.728   0.747  86.918

                      1                      2                      3
                      A                      A                      A
 Frequencies --     82.4267               102.8788               126.4479
 Red. masses --      1.0632                 4.3771                 1.6327
 Frc consts  --      0.0043                 0.0273                 0.0154
 IR Inten    --      0.0743                 1.4942                 1.5276

                      4                      5                      6
                      A                      A                      A
 Frequencies --    145.7888               227.8376               315.2481
 Red. masses --      1.3992                 2.5263                 2.7111
 Frc consts  --      0.0175                 0.0773                 0.1587
 IR Inten    --      0.3023                 1.6255                 1.1984

                      7                      8                      9
                      A                      A                      A
 Frequencies --    327.9638               343.0723               447.1749
 Red. masses --      3.1279                 2.4711                 5.2357
 Frc consts  --      0.1982                 0.1714                 0.6168
 IR Inten    --      5.0525                 0.0762                 1.5234

                     10                     11                     12
                      A                      A                      A
 Frequencies --    468.9590               509.2725               536.9131
 Red. masses --      2.8885                 4.2125                 4.3245
 Frc consts  --      0.3743                 0.6437                 0.7345
 IR Inten    --      2.0483                 2.6709                 2.1365

                     13                     14                     15
                      A                      A                      A
 Frequencies --    658.2567               673.0852               781.2432
 Red. masses --      2.4874                 5.5683                 5.8463
 Frc consts  --      0.6350                 1.4863                 2.1023
 IR Inten    --      7.4243                 2.6850                12.3206

                     16                     17                     18
                      A                      A                      A
 Frequencies --    840.8730               907.6894               940.1242
 Red. masses --      2.2720                 2.1712                 2.1520
 Frc consts  --      0.9465                 1.0540                 1.1206
 IR Inten    --      2.3904                13.1429                 4.1792

                     19                     20                     21
                      A                      A                      A
 Frequencies --   1004.7611              1013.7548              1065.0922
 Red. masses --      1.3538                 1.5310                 1.5293
 Frc consts  --      0.8052                 0.9270                 1.0222
 IR Inten    --      1.3908                 2.9727                 1.6100

                     22                     23                     24
                      A                      A                      A
 Frequencies --   1090.2069              1101.7923              1113.5865
 Red. masses --      2.7642                 2.0720                 2.8339
 Frc consts  --      1.9357                 1.4820                 2.0706
 IR Inten    --     50.6331                 7.2235                 8.5788

                     25                     26                     27
                      A                      A                      A
 Frequencies --   1165.0224              1177.9219              1234.0192
 Red. masses --      4.8111                 3.2815                 1.2761
 Frc consts  --      3.8474                 2.6826                 1.1450
 IR Inten    --    133.1626                33.9501                 3.8899

                     28                     29                     30
                      A                      A                      A
 Frequencies --   1274.3326              1324.8104              1378.5671
 Red. masses --      1.5150                 1.8680                 1.7668
 Frc consts  --      1.4496                 1.9317                 1.9783
 IR Inten    --      5.7904                85.0692                 9.1270

                     31                     32                     33
                      A                      A                      A
 Frequencies --   1408.3570              1419.0384              1430.3153
 Red. masses --      1.3991                 1.2225                 1.4483
 Frc consts  --      1.6350                 1.4504                 1.7457
 IR Inten    --      4.8431                 1.3856                31.8024

                     34                     35                     36
                      A                      A                      A
 Frequencies --   1466.1859              1471.0087              1478.5019
 Red. masses --      1.0954                 1.0507                 1.0479
 Frc consts  --      1.3874                 1.3395                 1.3497
 IR Inten    --      3.3226                 4.1015                 5.8773

                     37                     38                     39
                      A                      A                      A
 Frequencies --   1482.3823              1493.5240              1508.6711
 Red. masses --      1.0492                 1.0720                 1.0964
 Frc consts  --      1.3584                 1.4089                 1.4703
 IR Inten    --      8.6893                 4.5090                 6.5405

                     40                     41                     42
                      A                      A                      A
 Frequencies --   1713.2681              1809.9288              3008.6506
 Red. masses --      7.2788                12.5834                 1.0673
 Frc consts  --     12.5881                24.2869                 5.6921
 IR Inten    --     18.4785               341.3248                11.9211

                     43                     44                     45
                      A                      A                      A
 Frequencies --   3018.9759              3022.5796              3050.6836
 Red. masses --      1.0635                 1.0447                 1.0378
 Frc consts  --      5.7111                 5.6236                 5.6906
 IR Inten    --     35.2938                27.4406                14.1704

                     46                     47                     48
                      A                      A                      A
 Frequencies --   3059.8407              3065.3658              3101.6933
 Red. masses --      1.0947                 1.0977                 1.0990
 Frc consts  --      6.0387                 6.0769                 6.2293
 IR Inten    --     22.5100                18.4819                 8.3615

                     49                     50                     51
                      A                      A                      A
 Frequencies --   3104.3538              3139.1849              3153.7134
 Red. masses --      1.0975                 1.1001                 1.0946
 Frc consts  --      6.2318                 6.3876                 6.4141
 IR Inten    --     30.6807                 9.8886                24.4588

 - Thermochemistry -
 -------------------
 Temperature   298.150 Kelvin.  Pressure   1.00000 Atm.
 Atom     1 has atomic number  6 and mass  12.00000

 Molecular mass:   126.06808 amu.
 Principal axes and moments of inertia in atomic units:
                           1         2         3
     Eigenvalues --   834.367711033.077261780.87634
           X            0.99911   0.04148  -0.00772
           Y           -0.04145   0.99914   0.00304
           Z            0.00784  -0.00272   0.99997
 This molecule is an asymmetric top.
 Rotational symmetry number  1.
 Warning -- assumption of classical behavior for rotation
           may cause significant error
 Rotational temperatures (Kelvin)      0.10381     0.08384     0.04864
 Rotational constants (GHZ):           2.16300     1.74696     1.01340
 Zero-point vibrational energy     417409.1 (Joules/Mol)
                                   99.76316 (Kcal/Mol)
 Warning -- explicit consideration of  12 degrees of freedom as
           vibrations may cause significant error
 Vibrational temperatures:    118.59   148.02   181.93   209.76   327.81
          (Kelvin)            453.57   471.87   493.60   643.38   674.73
                              732.73   772.50   947.08   968.42  1124.03
                             1209.83  1305.96  1352.63  1445.63  1458.57
                             1532.43  1568.56  1585.23  1602.20  1676.21
                             1694.76  1775.48  1833.48  1906.10  1983.45
                             2026.31  2041.68  2057.90  2109.51  2116.45
                             2127.23  2132.81  2148.85  2170.64  2465.01
                             2604.08  4328.77  4343.63  4348.81  4389.25
                             4402.42  4410.37  4462.64  4466.47  4516.58
                             4537.48

 Zero-point correction=                           0.158983 (Hartree/Particle)
 Thermal correction to Energy=                    0.168071
 Thermal correction to Enthalpy=                  0.169016
 Thermal correction to Gibbs Free Energy=         0.124940
 Sum of electronic and zero-point Energies=           -423.089179
 Sum of electronic and thermal Energies=              -423.080090
 Sum of electronic and thermal Enthalpies=            -423.079146
 Sum of electronic and thermal Free Energies=         -423.123221

                     E (Thermal)             CV                S
                      KCal/Mol        Cal/Mol-Kelvin    Cal/Mol-Kelvin
 Total                  105.466             33.197             92.764
 Electronic               0.000              0.000              0.000
 Translational            0.889              2.981             40.409
 Rotational               0.889              2.981             28.819
 Vibrational            103.689             27.236             23.536
 Vibration     1          0.600              1.961              3.832
 Vibration     2          0.605              1.947              3.399
 Vibration     3          0.611              1.927              2.999
 Vibration     4          0.617              1.907              2.726
 Vibration     5          0.651              1.799              1.896
 Vibration     6          0.703              1.645              1.335
 Vibration     7          0.711              1.620              1.270
 Vibration     8          0.722              1.589              1.198
 Vibration     9          0.806              1.367              0.804
 Vibration    10          0.826              1.319              0.740
 Vibration    11          0.864              1.229              0.635
 Vibration    12          0.892              1.168              0.572

 Normal termination of Gaussian 09 at Mon Jan 27 22:44:37 2020.
