 Gaussian 09, Revision D.01,
 Gaussian 09:  ES64L-G09RevD.01 24-Apr-2013

 -----------------------------
 # b3lyp 6-31G(2df,p) opt Freq
 -----------------------------

 -----
 titel
 -----
 Symbolic Z-matrix:
 Charge =  0 Multiplicity = 1

 SCF Done:  E(RB3LYP) =  -423.117221741     A.U. after   14 cycles
 Optimization completed.
    -- Stationary point found.
 Normal termination of Gaussian 09 at Tue Jan 28 10:19:57 2020.

 ----------------------------------------------------------------------
 #N Geom=AllCheck Guess=TCheck SCRF=Check GenChk RB3LYP/6-31G(2df,p) Fr
 eq
 ----------------------------------------------------------------------

 Structure from the checkpoint file:  "/scratch/puck/g09_10ebc6a9-95ca-49a1-8ad2-aa364639f661/Gau-1052.chk"
 -----
 titel
 -----
 Charge =  0 Multiplicity = 1

                         Standard orientation:
 ---------------------------------------------------------------------
 Center     Atomic      Atomic             Coordinates (Angstroms)
 Number     Number       Type             X           Y           Z
 ---------------------------------------------------------------------
      1          6           0       -2.875204   -0.198896    0.214168
      2          6           0       -1.743094    0.792436   -0.088460
      3          6           0       -0.399207    0.143903   -0.130442
      4          8           0       -0.114855   -0.828848   -1.139981
      5          6           0        1.275867   -0.783873   -0.728076
      6          6           0        1.271952   -1.462356    0.664803
      7          6           0        0.466344   -0.247815    1.118205
      8          6           0        1.012765    0.616214    0.001988
      9          8           0        1.652988    1.822397    0.081324
     10          1           0       -3.847777    0.301767    0.198310
     11          1           0       -2.891320   -1.001906   -0.527945
     12          1           0       -2.741918   -0.656257    1.199461
     13          1           0       -1.930131    1.284833   -1.051367
     14          1           0       -1.715966    1.584733    0.669144
     15          1           0        1.975416   -1.040297   -1.521271
     16          1           0        0.813379   -2.454778    0.709459
     17          1           0        2.267887   -1.474830    1.115205
     18          1           0        0.181719    0.058574    2.116967
     19          1           0        1.527117    2.292087   -0.751821
 ---------------------------------------------------------------------

 SCF Done:  E(RB3LYP) =  -423.117221741     A.U. after    1 cycles

 The electronic state is 1-A.
 Alpha  occ. eigenvalues --  -19.16342 -19.13294 -10.23811 -10.23580 -10.23395
 Alpha  occ. eigenvalues --  -10.19009 -10.18821 -10.18414 -10.17362  -1.06429
 Alpha  occ. eigenvalues --   -1.03760  -0.84786  -0.78218  -0.71278  -0.64272
 Alpha  occ. eigenvalues --   -0.62404  -0.57520  -0.55030  -0.50252  -0.47855
 Alpha  occ. eigenvalues --   -0.47029  -0.43592  -0.42991  -0.40699  -0.39474
 Alpha  occ. eigenvalues --   -0.37933  -0.36443  -0.35829  -0.35045  -0.34198
 Alpha  occ. eigenvalues --   -0.32464  -0.25752  -0.25565  -0.22292
 Alpha virt. eigenvalues --    0.06647   0.08587   0.10460   0.11424   0.12927
 Alpha virt. eigenvalues --    0.14148   0.15349   0.15777   0.16194   0.16418
 Alpha virt. eigenvalues --    0.17379   0.18515   0.20033   0.20783   0.22232

 Mulliken charges:
               1
     1  C   -0.374075
     2  C   -0.315602
     3  C    0.388278
     4  O   -0.322596
     5  C   -0.014538
     6  C   -0.230725
     7  C   -0.197295
     8  C    0.252306
     9  O   -0.446583
    10  H    0.109776
    11  H    0.136807
    12  H    0.118932
    13  H    0.105954
    14  H    0.110262
    15  H    0.084756
    16  H    0.100310
    17  H    0.106862
    18  H    0.093061
    19  H    0.294110
 Sum of Mulliken charges =   0.00000

 Dipole moment (field-independent basis, Debye):
    X=              0.0245    Y=              0.9358    Z=             -0.1204  Tot=              0.9438
 Quadrupole moment (field-independent basis, Debye-Ang):
   XX=            -52.2711   YY=            -51.9891   ZZ=            -52.7963
   XY=             -2.6245   XZ=             -3.3762   YZ=             -4.1246

  Exact polarizability:  83.247  -3.640  74.110  -0.734  -2.515  68.149
 Approx polarizability: 110.931  -0.936 108.431   1.089  -1.014 108.483

                      1                      2                      3
                      A                      A                      A
 Frequencies --     71.7194               119.3997               201.3604
 Red. masses --      2.4545                 3.4437                 1.2329
 Frc consts  --      0.0074                 0.0289                 0.0295
 IR Inten    --      0.0737                 0.3746                 0.3514

                      4                      5                      6
                      A                      A                      A
 Frequencies --    229.3805               292.9997               324.4619
 Red. masses --      2.6361                 3.1688                 2.0308
 Frc consts  --      0.0817                 0.1603                 0.1260
 IR Inten    --      4.2068                 4.6159                 8.0358

                      7                      8                      9
                      A                      A                      A
 Frequencies --    372.0369               380.9176               491.4901
 Red. masses --      1.8297                 1.5402                 3.4214
 Frc consts  --      0.1492                 0.1317                 0.4869
 IR Inten    --     31.4981                69.7075                 3.0955

                     10                     11                     12
                      A                      A                      A
 Frequencies --    585.1857               593.5979               691.8560
 Red. masses --      3.3524                 4.2669                 4.2408
 Frc consts  --      0.6764                 0.8858                 1.1960
 IR Inten    --      8.8260                 1.3960                 5.5477

                     13                     14                     15
                      A                      A                      A
 Frequencies --    732.3852               787.1636               797.5458
 Red. masses --      2.9827                 2.0390                 2.2751
 Frc consts  --      0.9426                 0.7444                 0.8526
 IR Inten    --      5.8081                 5.5763                 0.6398

                     16                     17                     18
                      A                      A                      A
 Frequencies --    858.6055               906.9556               935.6062
 Red. masses --      3.0246                 1.5775                 3.5327
 Frc consts  --      1.3137                 0.7645                 1.8220
 IR Inten    --      8.4068                 3.9940                46.5052

                     19                     20                     21
                      A                      A                      A
 Frequencies --    943.8949               950.2278               978.1358
 Red. masses --      1.7371                 1.7271                 2.0065
 Frc consts  --      0.9118                 0.9188                 1.1310
 IR Inten    --      8.3330                18.8936                 5.7636

                     22                     23                     24
                      A                      A                      A
 Frequencies --   1013.5616              1048.1222              1073.6103
 Red. masses --      3.0218                 2.7098                 2.5961
 Frc consts  --      1.8290                 1.7540                 1.7630
 IR Inten    --     13.4380                15.8622                 4.3191

                     25                     26                     27
                      A                      A                      A
 Frequencies --   1100.5985              1115.1930              1135.6387
 Red. masses --      1.9442                 1.4103                 1.5805
 Frc consts  --      1.3875                 1.0334                 1.2010
 IR Inten    --      5.2830                11.6254                 1.5298

                     28                     29                     30
                      A                      A                      A
 Frequencies --   1172.3203              1213.1752              1258.4433
 Red. masses --      1.9882                 1.9161                 1.5668
 Frc consts  --      1.6099                 1.6616                 1.4620
 IR Inten    --     10.9854                33.8031                23.4802

                     31                     32                     33
                      A                      A                      A
 Frequencies --   1264.9014              1293.0094              1318.5148
 Red. masses --      1.4495                 1.7352                 1.4365
 Frc consts  --      1.3664                 1.7092                 1.4714
 IR Inten    --     10.4957               104.6883                10.7853

                     34                     35                     36
                      A                      A                      A
 Frequencies --   1339.2612              1393.7577              1407.4458
 Red. masses --      1.4155                 2.3697                 1.2555
 Frc consts  --      1.4959                 2.7122                 1.4653
 IR Inten    --     13.8480                 3.3917                 3.3920

                     37                     38                     39
                      A                      A                      A
 Frequencies --   1471.7590              1481.3659              1495.1775
 Red. masses --      1.0995                 1.2725                 1.0664
 Frc consts  --      1.4032                 1.6452                 1.4046
 IR Inten    --      0.4199                 9.3073                 6.0740

                     40                     41                     42
                      A                      A                      A
 Frequencies --   1503.8304              1514.5598              3023.5559
 Red. masses --      1.3485                 2.0201                 1.0614
 Frc consts  --      1.7969                 2.7301                 5.7172
 IR Inten    --     15.8219                36.0237                25.9451

                     43                     44                     45
                      A                      A                      A
 Frequencies --   3041.3009              3051.5293              3062.7574
 Red. masses --      1.0347                 1.0567                 1.0993
 Frc consts  --      5.6387                 5.7975                 6.0757
 IR Inten    --     24.8473                43.4712                10.8868

                     46                     47                     48
                      A                      A                      A
 Frequencies --   3111.3322              3113.7234              3120.1863
 Red. masses --      1.1022                 1.1082                 1.1020
 Frc consts  --      6.2864                 6.3303                 6.3213
 IR Inten    --     37.2192                19.2811                22.6103

                     49                     50                     51
                      A                      A                      A
 Frequencies --   3142.1066              3200.1451              3779.6617
 Red. masses --      1.0926                 1.0933                 1.0660
 Frc consts  --      6.3556                 6.5969                 8.9723
 IR Inten    --     37.4101                 8.5869                25.4599

 - Thermochemistry -
 -------------------
 Temperature   298.150 Kelvin.  Pressure   1.00000 Atm.
 Atom     1 has atomic number  6 and mass  12.00000

 Molecular mass:   126.06808 amu.
 Principal axes and moments of inertia in atomic units:
                           1         2         3
     Eigenvalues --   684.724921234.622491486.13337
           X            0.99930  -0.03611  -0.00935
           Y            0.03556   0.99790  -0.05421
           Z            0.01129   0.05384   0.99849
 This molecule is an asymmetric top.
 Rotational symmetry number  1.
 Warning -- assumption of classical behavior for rotation
           may cause significant error
 Rotational temperatures (Kelvin)      0.12649     0.07015     0.05828
 Rotational constants (GHZ):           2.63572     1.46178     1.21439
 Zero-point vibrational energy     415735.0 (Joules/Mol)
                                   99.36306 (Kcal/Mol)
 Warning -- explicit consideration of  11 degrees of freedom as
           vibrations may cause significant error
 Vibrational temperatures:    103.19   171.79   289.71   330.03   421.56
          (Kelvin)            466.83   535.28   548.05   707.14   841.95
                              854.05   995.43  1053.74  1132.55  1147.49
                             1235.34  1304.91  1346.13  1358.05  1367.16
                             1407.32  1458.29  1508.01  1544.68  1583.51
                             1604.51  1633.93  1686.71  1745.49  1810.62
                             1819.91  1860.35  1897.05  1926.90  2005.30
                             2025.00  2117.53  2131.35  2151.22  2163.67
                             2179.11  4350.22  4375.75  4390.46  4406.62
                             4476.51  4479.95  4489.25  4520.78  4604.29
                             5438.08

 Zero-point correction=                           0.158345 (Hartree/Particle)
 Thermal correction to Energy=                    0.166755
 Thermal correction to Enthalpy=                  0.167699
 Thermal correction to Gibbs Free Energy=         0.125309
 Sum of electronic and zero-point Energies=           -422.958877
 Sum of electronic and thermal Energies=              -422.950467
 Sum of electronic and thermal Enthalpies=            -422.949523
 Sum of electronic and thermal Free Energies=         -422.991913

                     E (Thermal)             CV                S
                      KCal/Mol        Cal/Mol-Kelvin    Cal/Mol-Kelvin
 Total                  104.640             32.514             89.217
 Electronic               0.000              0.000              0.000
 Translational            0.889              2.981             40.409
 Rotational               0.889              2.981             28.620
 Vibrational            102.863             26.553             20.188
 Vibration     1          0.598              1.967              4.106
 Vibration     2          0.609              1.933              3.110
 Vibration     3          0.638              1.838              2.121
 Vibration     4          0.652              1.796              1.884
 Vibration     5          0.688              1.687              1.457
 Vibration     6          0.709              1.627              1.288
 Vibration     7          0.744              1.530              1.071
 Vibration     8          0.751              1.511              1.036
 Vibration     9          0.847              1.269              0.680
 Vibration    10          0.942              1.063              0.476
 Vibration    11          0.951              1.045              0.461

 Optimization completed.
    -- Stationary point found.
 Normal termination of Gaussian 09 at Tue Jan 28 12:23:13 2020.
