 Gaussian 09, Revision D.01,
 Gaussian 09:  ES64L-G09RevD.01 24-Apr-2013

 -----------------------------
 # b3lyp 6-31G(2df,p) opt Freq
 -----------------------------

 -----
 titel
 -----
 Symbolic Z-matrix:
 Charge =  0 Multiplicity = 1

 SCF Done:  E(RB3LYP) =  -423.128557672     A.U. after   13 cycles
 Optimization completed.
    -- Stationary point found.
 Normal termination of Gaussian 09 at Tue Jan 28 02:54:04 2020.

 ----------------------------------------------------------------------
 #N Geom=AllCheck Guess=TCheck SCRF=Check GenChk RB3LYP/6-31G(2df,p) Fr
 eq
 ----------------------------------------------------------------------

 Structure from the checkpoint file:  "/scratch/puck/g09_4c43cca6-2513-4afd-b459-70e89137fdfb/Gau-90248.chk"
 -----
 titel
 -----
 Charge =  0 Multiplicity = 1

                         Standard orientation:
 ---------------------------------------------------------------------
 Center     Atomic      Atomic             Coordinates (Angstroms)
 Number     Number       Type             X           Y           Z
 ---------------------------------------------------------------------
      1          8           0       -2.792942   -0.015341   -0.524641
      2          6           0       -1.646956   -0.175102    0.278996
      3          6           0       -0.900550    1.138473    0.704282
      4          6           0        0.378864    0.578808    0.076051
      5          6           0        1.631423    1.192866   -0.556664
      6          6           0        2.430420   -0.091805   -0.150790
      7          6           0        1.212705   -0.583131    0.683775
      8          8           0        0.415271   -1.607299    0.049153
      9          6           0       -0.410605   -0.596729   -0.561406
     10          1           0       -3.490354    0.369319    0.016330
     11          1           0       -1.815026   -0.874169    1.108832
     12          1           0       -1.297189    1.985580    0.134802
     13          1           0       -0.876410    1.397162    1.766827
     14          1           0        1.577465    1.439466   -1.620702
     15          1           0        1.978599    2.079487   -0.016980
     16          1           0        2.658151   -0.770864   -0.974681
     17          1           0        3.342346    0.092416    0.421592
     18          1           0        1.365747   -0.768501    1.750868
     19          1           0       -0.593765   -0.749062   -1.628439
 ---------------------------------------------------------------------

 SCF Done:  E(RB3LYP) =  -423.128557672     A.U. after    1 cycles

 The electronic state is 1-A.
 Alpha  occ. eigenvalues --  -19.13996 -19.13046 -10.23123 -10.23053 -10.22652
 Alpha  occ. eigenvalues --  -10.19062 -10.18512 -10.18277 -10.18216  -1.04095
 Alpha  occ. eigenvalues --   -1.02030  -0.83697  -0.79408  -0.66526  -0.64611
 Alpha  occ. eigenvalues --   -0.63431  -0.58456  -0.52397  -0.50620  -0.49909
 Alpha  occ. eigenvalues --   -0.47014  -0.43959  -0.43108  -0.40359  -0.40260
 Alpha  occ. eigenvalues --   -0.38513  -0.36464  -0.35597  -0.32617  -0.32103
 Alpha  occ. eigenvalues --   -0.28737  -0.27602  -0.25621  -0.23557
 Alpha virt. eigenvalues --    0.06031   0.07917   0.09864   0.10732   0.11359
 Alpha virt. eigenvalues --    0.13567   0.14382   0.15233   0.17147   0.17256
 Alpha virt. eigenvalues --    0.17982   0.19381   0.19692   0.20633   0.21693

 Mulliken charges:
               1
     1  O   -0.433936
     2  C    0.118463
     3  C   -0.396570
     4  C    0.321276
     5  C   -0.342766
     6  C   -0.234903
     7  C    0.069099
     8  O   -0.306100
     9  C    0.052507
    10  H    0.285187
    11  H    0.078180
    12  H    0.108564
    13  H    0.096004
    14  H    0.102904
    15  H    0.105538
    16  H    0.116812
    17  H    0.102920
    18  H    0.072288
    19  H    0.084534
 Sum of Mulliken charges =   0.00000

 Dipole moment (field-independent basis, Debye):
    X=             -0.0456    Y=              2.0928    Z=              1.2774  Tot=              2.4522
 Quadrupole moment (field-independent basis, Debye-Ang):
   XX=            -48.5362   YY=            -56.9299   ZZ=            -51.8691
   XY=             -1.2909   XZ=             -3.1343   YZ=              0.2217

  Exact polarizability:  89.114  -0.700  68.596   0.330   0.130  67.351
 Approx polarizability: 113.719  -1.170 104.197   3.891   0.706 103.468

                      1                      2                      3
                      A                      A                      A
 Frequencies --     84.2701               162.3671               238.3383
 Red. masses --      3.5929                 2.0128                 1.2466
 Frc consts  --      0.0150                 0.0313                 0.0417
 IR Inten    --      0.7128                 1.1898                74.2794

                      4                      5                      6
                      A                      A                      A
 Frequencies --    276.6453               320.3082               339.0122
 Red. masses --      2.5243                 2.6886                 3.1558
 Frc consts  --      0.1138                 0.1625                 0.2137
 IR Inten    --     18.9347                 9.1942                13.1391

                      7                      8                      9
                      A                      A                      A
 Frequencies --    413.3119               448.3041               515.9623
 Red. masses --      3.1664                 4.4975                 2.5358
 Frc consts  --      0.3187                 0.5326                 0.3977
 IR Inten    --      9.6847                 1.5942                 3.0615

                     10                     11                     12
                      A                      A                      A
 Frequencies --    672.4550               688.8186               762.8165
 Red. masses --      2.8971                 2.1178                 1.7972
 Frc consts  --      0.7719                 0.5920                 0.6161
 IR Inten    --      0.1655                 0.6732                 0.4670

                     13                     14                     15
                      A                      A                      A
 Frequencies --    822.6267               848.8782               859.7920
 Red. masses --      2.2958                 2.4270                 2.0271
 Frc consts  --      0.9153                 1.0304                 0.8829
 IR Inten    --     11.7384                 6.5191                12.6720

                     16                     17                     18
                      A                      A                      A
 Frequencies --    903.7453               931.1012               941.5887
 Red. masses --      2.1125                 2.7786                 2.3106
 Frc consts  --      1.0166                 1.4193                 1.2070
 IR Inten    --      5.6191                 8.9422                 1.2861

                     19                     20                     21
                      A                      A                      A
 Frequencies --    968.5034              1024.1009              1030.6741
 Red. masses --      2.9537                 2.6665                 3.1008
 Frc consts  --      1.6324                 1.6477                 1.9407
 IR Inten    --     29.8646                 7.1168                43.1501

                     22                     23                     24
                      A                      A                      A
 Frequencies --   1041.3059              1098.8640              1129.1772
 Red. masses --      2.8509                 2.1262                 2.3468
 Frc consts  --      1.8213                 1.5127                 1.7630
 IR Inten    --     90.4033                 7.3854                25.1378

                     25                     26                     27
                      A                      A                      A
 Frequencies --   1146.5908              1172.6281              1176.5554
 Red. masses --      2.0637                 1.6869                 1.5322
 Frc consts  --      1.5985                 1.3666                 1.2497
 IR Inten    --     12.8547                17.7351                15.0894

                     28                     29                     30
                      A                      A                      A
 Frequencies --   1187.9530              1206.0660              1209.9747
 Red. masses --      1.3886                 1.4337                 1.5230
 Frc consts  --      1.1546                 1.2287                 1.3137
 IR Inten    --      0.3476                 5.8417                 1.9947

                     31                     32                     33
                      A                      A                      A
 Frequencies --   1231.4194              1258.3404              1277.2852
 Red. masses --      1.2469                 1.4754                 1.3817
 Frc consts  --      1.1140                 1.3764                 1.3281
 IR Inten    --      0.9885                 2.9710                 5.8306

                     34                     35                     36
                      A                      A                      A
 Frequencies --   1295.5007              1310.1403              1329.7019
 Red. masses --      1.5575                 2.1880                 2.0298
 Frc consts  --      1.5401                 2.2128                 2.1145
 IR Inten    --     11.1506                24.7148                25.4563

                     37                     38                     39
                      A                      A                      A
 Frequencies --   1339.1610              1415.9008              1463.7303
 Red. masses --      1.4401                 1.4933                 1.0897
 Frc consts  --      1.5216                 1.7638                 1.3756
 IR Inten    --      5.4555                 2.9650                 1.6058

                     40                     41                     42
                      A                      A                      A
 Frequencies --   1471.7352              1490.0950              3015.7781
 Red. masses --      1.1387                 1.1161                 1.0856
 Frc consts  --      1.4532                 1.4601                 5.8170
 IR Inten    --      2.4525                 1.1817                36.6427

                     43                     44                     45
                      A                      A                      A
 Frequencies --   3042.9340              3048.5605              3063.4918
 Red. masses --      1.0577                 1.0583                 1.0772
 Frc consts  --      5.7701                 5.7951                 5.9563
 IR Inten    --     27.5312                45.2687                37.0713

                     46                     47                     48
                      A                      A                      A
 Frequencies --   3073.3668              3082.4390              3094.1604
 Red. masses --      1.0704                 1.0885                 1.1074
 Frc consts  --      5.9567                 6.0933                 6.2465
 IR Inten    --     59.6137                19.6443                11.5741

                     49                     50                     51
                      A                      A                      A
 Frequencies --   3099.9082              3131.0138              3811.6843
 Red. masses --      1.1078                 1.1079                 1.0661
 Frc consts  --      6.2718                 6.3989                 9.1261
 IR Inten    --     26.5726                25.7813                22.1059

 - Thermochemistry -
 -------------------
 Temperature   298.150 Kelvin.  Pressure   1.00000 Atm.
 Atom     1 has atomic number  8 and mass  15.99491

 Molecular mass:   126.06808 amu.
 Principal axes and moments of inertia in atomic units:
                           1         2         3
     Eigenvalues --   501.331571349.228221574.39914
           X            0.99990   0.00265  -0.01379
           Y           -0.00263   1.00000   0.00144
           Z            0.01380  -0.00141   0.99990
 This molecule is an asymmetric top.
 Rotational symmetry number  1.
 Warning -- assumption of classical behavior for rotation
           may cause significant error
 Rotational temperatures (Kelvin)      0.17277     0.06420     0.05501
 Rotational constants (GHZ):           3.59990     1.33761     1.14630
 Zero-point vibrational energy     418508.0 (Joules/Mol)
                                  100.02582 (Kcal/Mol)
 Warning -- explicit consideration of   9 degrees of freedom as
           vibrations may cause significant error
 Vibrational temperatures:    121.25   233.61   342.92   398.03   460.85
          (Kelvin)            487.76   594.66   645.01   742.35   967.51
                              991.06  1097.52  1183.57  1221.34  1237.05
                             1300.29  1339.65  1354.73  1393.46  1473.45
                             1482.91  1498.21  1581.02  1624.63  1649.69
                             1687.15  1692.80  1709.20  1735.26  1740.88
                             1771.74  1810.47  1837.73  1863.93  1885.00
                             1913.14  1926.75  2037.16  2105.98  2117.50
                             2143.91  4339.03  4378.10  4386.19  4407.68
                             4421.88  4434.94  4451.80  4460.07  4504.82
                             5484.16

 Zero-point correction=                           0.159401 (Hartree/Particle)
 Thermal correction to Energy=                    0.167196
 Thermal correction to Enthalpy=                  0.168141
 Thermal correction to Gibbs Free Energy=         0.127183
 Sum of electronic and zero-point Energies=           -422.969156
 Sum of electronic and thermal Energies=              -422.961361
 Sum of electronic and thermal Enthalpies=            -422.960417
 Sum of electronic and thermal Free Energies=         -423.001375

                     E (Thermal)             CV                S
                      KCal/Mol        Cal/Mol-Kelvin    Cal/Mol-Kelvin
 Total                  104.917             30.852             86.203
 Electronic               0.000              0.000              0.000
 Translational            0.889              2.981             40.409
 Rotational               0.889              2.981             28.456
 Vibrational            103.140             24.890             17.339
 Vibration     1          0.601              1.960              3.789
 Vibration     2          0.622              1.889              2.522
 Vibration     3          0.656              1.782              1.815
 Vibration     4          0.678              1.717              1.554
 Vibration     5          0.706              1.635              1.309
 Vibration     6          0.719              1.598              1.217
 Vibration     7          0.777              1.441              0.915
 Vibration     8          0.807              1.365              0.801
 Vibration     9          0.871              1.215              0.619

 Normal termination of Gaussian 09 at Tue Jan 28 03:36:30 2020.
