 Gaussian 09, Revision D.01,
 Gaussian 09:  ES64L-G09RevD.01 24-Apr-2013

 -----------------------------
 # b3lyp 6-31G(2df,p) opt Freq
 -----------------------------

 -----
 titel
 -----
 Symbolic Z-matrix:
 Charge =  0 Multiplicity = 1

 SCF Done:  E(RB3LYP) =  -423.160009858     A.U. after   14 cycles
 Optimization completed.
    -- Stationary point found.
 Normal termination of Gaussian 09 at Tue Jan 28 08:12:12 2020.

 ----------------------------------------------------------------------
 #N Geom=AllCheck Guess=TCheck SCRF=Check GenChk RB3LYP/6-31G(2df,p) Fr
 eq
 ----------------------------------------------------------------------

 Structure from the checkpoint file:  "/scratch/puck/g09_d96d753e-4dbe-4dfa-b548-882daf0157df/Gau-186247.chk"
 -----
 titel
 -----
 Charge =  0 Multiplicity = 1

                         Standard orientation:
 ---------------------------------------------------------------------
 Center     Atomic      Atomic             Coordinates (Angstroms)
 Number     Number       Type             X           Y           Z
 ---------------------------------------------------------------------
      1          6           0       -3.427079   -0.999589   -0.282476
      2          8           0       -2.095695   -0.832267    0.155193
      3          6           0       -1.499252    0.391067   -0.255599
      4          6           0       -1.953054    1.584110    0.604590
      5          6           0       -0.047798    0.231985   -0.192764
      6          6           0        1.155591    0.151684   -0.146228
      7          6           0        2.601425    0.042213   -0.088718
      8          6           0        3.130693   -1.256593    0.484002
      9          8           0        3.322008    0.937700   -0.475862
     10          1           0       -3.730261   -2.007016    0.011164
     11          1           0       -4.119861   -0.279990    0.176738
     12          1           0       -3.508426   -0.909632   -1.376949
     13          1           0       -1.769364    0.591498   -1.307169
     14          1           0       -1.699686    1.404504    1.652055
     15          1           0       -1.458288    2.500461    0.272767
     16          1           0       -3.033470    1.726601    0.520464
     17          1           0        2.767371   -2.103721   -0.107623
     18          1           0        4.221491   -1.238114    0.483192
     19          1           0        2.756847   -1.397323    1.503874
 ---------------------------------------------------------------------

 SCF Done:  E(RB3LYP) =  -423.160009858     A.U. after    1 cycles

 The electronic state is 1-A.
 Alpha  occ. eigenvalues --  -19.15227 -19.13137 -10.28688 -10.26994 -10.23444
 Alpha  occ. eigenvalues --  -10.20171 -10.19154 -10.18989 -10.18964  -1.04569
 Alpha  occ. eigenvalues --   -1.04176  -0.80802  -0.76799  -0.73033  -0.69892
 Alpha  occ. eigenvalues --   -0.64345  -0.60347  -0.51826  -0.50689  -0.47836
 Alpha  occ. eigenvalues --   -0.46625  -0.44424  -0.43644  -0.42559  -0.41579
 Alpha  occ. eigenvalues --   -0.40237  -0.39822  -0.38060  -0.36564  -0.32962
 Alpha  occ. eigenvalues --   -0.28831  -0.28296  -0.26465  -0.25603
 Alpha virt. eigenvalues --   -0.04720   0.02485   0.07488   0.10135   0.11556
 Alpha virt. eigenvalues --    0.12482   0.13248   0.14667   0.15001   0.16188
 Alpha virt. eigenvalues --    0.16468   0.17526   0.18415   0.19035   0.21111

 Mulliken charges:
               1
     1  C   -0.233821
     2  O   -0.242026
     3  C   -0.047504
     4  C   -0.395691
     5  C    0.038099
     6  C    0.096069
     7  C    0.242392
     8  C   -0.476972
     9  O   -0.277266
    10  H    0.134948
    11  H    0.110814
    12  H    0.109182
    13  H    0.103395
    14  H    0.138970
    15  H    0.137394
    16  H    0.123005
    17  H    0.148671
    18  H    0.142060
    19  H    0.148280
 Sum of Mulliken charges =   0.00000

 Dipole moment (field-independent basis, Debye):
    X=             -3.1891    Y=             -1.1064    Z=              0.3395  Tot=              3.3926
 Quadrupole moment (field-independent basis, Debye-Ang):
   XX=            -52.0921   YY=            -53.5968   ZZ=            -52.7420
   XY=             -8.0037   XZ=              4.8991   YZ=              1.3264

  Exact polarizability: 123.793  -0.107  71.996   0.711  -1.947  58.992
 Approx polarizability: 172.943   7.541 102.790  -1.619  -6.651  88.081

                      1                      2                      3
                      A                      A                      A
 Frequencies --     26.1000                60.2317                69.7245
 Red. masses --      3.6209                 3.1103                 2.9802
 Frc consts  --      0.0015                 0.0066                 0.0085
 IR Inten    --      5.2836                 1.5250                 3.7098

                      4                      5                      6
                      A                      A                      A
 Frequencies --    101.8274               124.8548               178.0889
 Red. masses --      2.1830                 1.1705                 3.4513
 Frc consts  --      0.0133                 0.0108                 0.0645
 IR Inten    --      0.2621                 0.0332                 1.6781

                      7                      8                      9
                      A                      A                      A
 Frequencies --    201.8140               226.3414               255.9577
 Red. masses --      1.4423                 1.3830                 2.3843
 Frc consts  --      0.0346                 0.0417                 0.0920
 IR Inten    --      1.7019                 0.1695                 0.1524

                     10                     11                     12
                      A                      A                      A
 Frequencies --    327.3821               364.7196               433.2689
 Red. masses --      4.1663                 3.8102                 2.9931
 Frc consts  --      0.2631                 0.2986                 0.3310
 IR Inten    --      0.4058                 2.2123                 5.8479

                     13                     14                     15
                      A                      A                      A
 Frequencies --    532.8911               534.9426               601.5485
 Red. masses --      4.3561                 4.5184                 3.3123
 Frc consts  --      0.7288                 0.7618                 0.7062
 IR Inten    --      4.8924                 7.9257                 5.4778

                     16                     17                     18
                      A                      A                      A
 Frequencies --    615.0470               709.5881               840.7969
 Red. masses --      4.4281                 3.2678                 2.5677
 Frc consts  --      0.9869                 0.9694                 1.0695
 IR Inten    --      5.4814                 9.8350                 5.2816

                     19                     20                     21
                      A                      A                      A
 Frequencies --    937.7392               982.8168              1039.4736
 Red. masses --      2.6529                 1.9337                 2.5785
 Frc consts  --      1.3745                 1.1005                 1.6415
 IR Inten    --     30.1761                19.4161                12.8552

                     22                     23                     24
                      A                      A                      A
 Frequencies --   1043.2107              1086.4051              1113.2483
 Red. masses --      1.8415                 1.8889                 2.9192
 Frc consts  --      1.1808                 1.3136                 2.1315
 IR Inten    --      4.8760                 6.3945                61.4196

                     25                     26                     27
                      A                      A                      A
 Frequencies --   1154.7021              1180.4503              1217.2033
 Red. masses --      2.8804                 1.2876                 1.5714
 Frc consts  --      2.2628                 1.0571                 1.3717
 IR Inten    --    132.3626                 4.1932                61.7106

                     28                     29                     30
                      A                      A                      A
 Frequencies --   1243.9810              1333.3041              1367.9146
 Red. masses --      3.2140                 1.3331                 1.3746
 Frc consts  --      2.9304                 1.3963                 1.5155
 IR Inten    --    198.3215                18.4115               102.2381

                     31                     32                     33
                      A                      A                      A
 Frequencies --   1382.2011              1397.8952              1460.4362
 Red. masses --      1.3170                 1.2224                 1.0541
 Frc consts  --      1.4825                 1.4073                 1.3247
 IR Inten    --     41.1426                 7.8896                12.5760

                     34                     35                     36
                      A                      A                      A
 Frequencies --   1468.3119              1475.7185              1482.0664
 Red. masses --      1.0471                 1.1132                 1.0523
 Frc consts  --      1.3301                 1.4284                 1.3618
 IR Inten    --      7.1821                 0.8123                 5.1930

                     37                     38                     39
                      A                      A                      A
 Frequencies --   1491.1100              1499.7606              1510.9277
 Red. masses --      1.0559                 1.0664                 1.0624
 Frc consts  --      1.3832                 1.4132                 1.4289
 IR Inten    --      3.4311                 2.7891                 7.6649

                     40                     41                     42
                      A                      A                      A
 Frequencies --   1767.9224              2331.3509              2952.1181
 Red. masses --     11.0766                11.9680                 1.0799
 Frc consts  --     20.3978                38.3254                 5.5449
 IR Inten    --    207.0206                79.9315                22.7309

                     43                     44                     45
                      A                      A                      A
 Frequencies --   2980.2802              3031.4842              3040.2236
 Red. masses --      1.0388                 1.0997                 1.0354
 Frc consts  --      5.4360                 5.9544                 5.6385
 IR Inten    --     61.0259                46.7099                 1.2232

                     46                     47                     48
                      A                      A                      A
 Frequencies --   3052.6146              3104.6853              3120.1846
 Red. masses --      1.0348                 1.0986                 1.0964
 Frc consts  --      5.6811                 6.2390                 6.2887
 IR Inten    --     20.3581                 4.9534                25.1597

                     49                     50                     51
                      A                      A                      A
 Frequencies --   3128.7326              3137.6828              3152.1733
 Red. masses --      1.1021                 1.1034                 1.1032
 Frc consts  --      6.3561                 6.4001                 6.4583
 IR Inten    --     20.8937                13.1181                10.3256

 - Thermochemistry -
 -------------------
 Temperature   298.150 Kelvin.  Pressure   1.00000 Atm.
 Atom     1 has atomic number  6 and mass  12.00000

 Molecular mass:   126.06808 amu.
 Principal axes and moments of inertia in atomic units:
                           1         2         3
     Eigenvalues --   486.123662829.329763151.85905
           X            0.99969  -0.02324   0.00938
           Y            0.02306   0.99957   0.01822
           Z           -0.00980  -0.01800   0.99979
 This molecule is an asymmetric top.
 Rotational symmetry number  1.
 Warning -- assumption of classical behavior for rotation
           may cause significant error
 Rotational temperatures (Kelvin)      0.17817     0.03061     0.02748
 Rotational constants (GHZ):           3.71251     0.63787     0.57260
 Zero-point vibrational energy     405973.4 (Joules/Mol)
                                   97.02997 (Kcal/Mol)
 Warning -- explicit consideration of  16 degrees of freedom as
           vibrations may cause significant error
 Vibrational temperatures:     37.55    86.66   100.32   146.51   179.64
          (Kelvin)            256.23   290.36   325.65   368.27   471.03
                              524.75   623.38   766.71   769.66   865.49
                              884.91  1020.94  1209.72  1349.20  1414.05
                             1495.57  1500.95  1563.09  1601.71  1661.36
                             1698.40  1751.28  1789.81  1918.32  1968.12
                             1988.68  2011.26  2101.24  2112.57  2123.23
                             2132.36  2145.37  2157.82  2173.89  2543.64
                             3354.29  4247.43  4287.95  4361.62  4374.20
                             4392.03  4466.94  4489.24  4501.54  4514.42
                             4535.27

 Zero-point correction=                           0.154627 (Hartree/Particle)
 Thermal correction to Energy=                    0.165763
 Thermal correction to Enthalpy=                  0.166707
 Thermal correction to Gibbs Free Energy=         0.116320
 Sum of electronic and zero-point Energies=           -423.005383
 Sum of electronic and thermal Energies=              -422.994247
 Sum of electronic and thermal Enthalpies=            -422.993303
 Sum of electronic and thermal Free Energies=         -423.043690

                     E (Thermal)             CV                S
                      KCal/Mol        Cal/Mol-Kelvin    Cal/Mol-Kelvin
 Total                  104.018             37.323            106.049
 Electronic               0.000              0.000              0.000
 Translational            0.889              2.981             40.409
 Rotational               0.889              2.981             29.851
 Vibrational            102.240             31.361             35.790
 Vibration     1          0.593              1.985              6.106
 Vibration     2          0.597              1.973              4.450
 Vibration     3          0.598              1.969              4.161
 Vibration     4          0.604              1.948              3.419
 Vibration     5          0.610              1.928              3.024
 Vibration     6          0.629              1.869              2.348
 Vibration     7          0.639              1.837              2.117
 Vibration     8          0.650              1.801              1.908
 Vibration     9          0.666              1.753              1.689
 Vibration    10          0.711              1.621              1.273
 Vibration    11          0.738              1.545              1.102
 Vibration    12          0.794              1.398              0.848
 Vibration    13          0.888              1.177              0.581
 Vibration    14          0.890              1.173              0.576
 Vibration    15          0.960              1.029              0.447
 Vibration    16          0.975              1.000              0.424

 Optimization completed.
    -- Stationary point found.
 Normal termination of Gaussian 09 at Tue Jan 28 08:37:37 2020.
