 Gaussian 09, Revision D.01,
 Gaussian 09:  ES64L-G09RevD.01 24-Apr-2013

 -----------------------------
 # b3lyp 6-31G(2df,p) opt Freq
 -----------------------------

 -----
 titel
 -----
 Symbolic Z-matrix:
 Charge =  0 Multiplicity = 1

 SCF Done:  E(RB3LYP) =  -423.221601151     A.U. after   14 cycles
 Optimization completed.
    -- Stationary point found.
 Normal termination of Gaussian 09 at Tue Jan 28 00:01:11 2020.

 ----------------------------------------------------------------------
 #N Geom=AllCheck Guess=TCheck SCRF=Check GenChk RB3LYP/6-31G(2df,p) Fr
 eq
 ----------------------------------------------------------------------

 Structure from the checkpoint file:  "/scratch/puck/g09_d7226eb0-e1f4-44e9-b253-bc199ae82e90/Gau-104926.chk"
 -----
 titel
 -----
 Charge =  0 Multiplicity = 1

                         Standard orientation:
 ---------------------------------------------------------------------
 Center     Atomic      Atomic             Coordinates (Angstroms)
 Number     Number       Type             X           Y           Z
 ---------------------------------------------------------------------
      1          6           0       -2.490596   -0.946004   -0.466247
      2          6           0       -1.279198   -0.662651    0.427753
      3          6           0       -0.021784   -1.452169    0.125669
      4          6           0        1.092626   -0.711726    0.085383
      5          6           0        2.487983   -1.154668   -0.206160
      6          6           0        0.788075    0.730267    0.434437
      7          8           0        1.421919    1.686716   -0.381579
      8          6           0       -0.737749    0.761806    0.277398
      9          8           0       -1.344287    1.748380   -0.056935
     10          1           0       -2.865508   -1.960226   -0.300663
     11          1           0       -3.295616   -0.238382   -0.252459
     12          1           0       -2.225330   -0.847126   -1.523024
     13          1           0       -1.580490   -0.797606    1.479508
     14          1           0       -0.049464   -2.524465   -0.041773
     15          1           0        3.142467   -0.995671    0.660373
     16          1           0        2.525783   -2.212877   -0.477947
     17          1           0        2.908076   -0.562580   -1.026396
     18          1           0        1.036604    0.916698    1.497621
     19          1           0        0.746287    2.352339   -0.576524
 ---------------------------------------------------------------------

 SCF Done:  E(RB3LYP) =  -423.221601151     A.U. after    1 cycles

 The electronic state is 1-A.
 Alpha  occ. eigenvalues --  -19.14974 -19.13722 -10.27489 -10.23953 -10.20625
 Alpha  occ. eigenvalues --  -10.19796 -10.18924 -10.18529 -10.18325  -1.06250
 Alpha  occ. eigenvalues --   -1.01791  -0.85447  -0.77057  -0.71766  -0.67777
 Alpha  occ. eigenvalues --   -0.63368  -0.55422  -0.53883  -0.50133  -0.48465
 Alpha  occ. eigenvalues --   -0.46289  -0.44220  -0.42617  -0.41341  -0.41059
 Alpha  occ. eigenvalues --   -0.39502  -0.38326  -0.37028  -0.36645  -0.35013
 Alpha  occ. eigenvalues --   -0.34490  -0.27563  -0.25376  -0.24940
 Alpha virt. eigenvalues --   -0.02582   0.01028   0.09987   0.10967   0.11499
 Alpha virt. eigenvalues --    0.13030   0.14170   0.15459   0.16294   0.16490
 Alpha virt. eigenvalues --    0.17253   0.17890   0.20011   0.22026   0.23458

 Mulliken charges:
               1
     1  C   -0.392023
     2  C   -0.149384
     3  C   -0.179862
     4  C    0.285400
     5  C   -0.492206
     6  C   -0.032577
     7  O   -0.442162
     8  C    0.355057
     9  O   -0.325021
    10  H    0.116411
    11  H    0.136434
    12  H    0.126250
    13  H    0.109471
    14  H    0.096164
    15  H    0.129523
    16  H    0.121827
    17  H    0.150324
    18  H    0.092389
    19  H    0.293985
 Sum of Mulliken charges =   0.00000

 Dipole moment (field-independent basis, Debye):
    X=             -0.0555    Y=             -2.1907    Z=              0.9080  Tot=              2.3721
 Quadrupole moment (field-independent basis, Debye-Ang):
   XX=            -55.0663   YY=            -54.1782   ZZ=            -52.0960
   XY=              1.0511   XZ=              0.0116   YZ=              0.5288

  Exact polarizability:  95.925   2.876  81.571  -0.326  -0.646  57.305
 Approx polarizability: 132.683   6.440 123.469  -1.085  -4.546  90.203

                      1                      2                      3
                      A                      A                      A
 Frequencies --     63.9713               142.3816               186.0205
 Red. masses --      6.1576                 2.4039                 1.0707
 Frc consts  --      0.0148                 0.0287                 0.0218
 IR Inten    --      0.7451                 0.7542                 0.6666

                      4                      5                      6
                      A                      A                      A
 Frequencies --    187.5762               212.2778               222.2008
 Red. masses --      1.1284                 2.6776                 3.4418
 Frc consts  --      0.0234                 0.0711                 0.1001
 IR Inten    --      0.1314                 0.4143                10.7239

                      7                      8                      9
                      A                      A                      A
 Frequencies --    293.8937               321.1713               357.8402
 Red. masses --      5.2051                 2.9618                 1.2032
 Frc consts  --      0.2649                 0.1800                 0.0908
 IR Inten    --     13.3202                 6.1575                56.8257

                     10                     11                     12
                      A                      A                      A
 Frequencies --    391.0647               496.6750               559.7478
 Red. masses --      2.6971                 4.7729                 4.1819
 Frc consts  --      0.2430                 0.6937                 0.7720
 IR Inten    --     18.9942                 2.4541                 0.7032

                     13                     14                     15
                      A                      A                      A
 Frequencies --    578.8476               635.4964               695.4155
 Red. masses --      3.3239                 3.3305                 4.3086
 Frc consts  --      0.6562                 0.7925                 1.2276
 IR Inten    --      1.5780                 1.8048                 4.1638

                     16                     17                     18
                      A                      A                      A
 Frequencies --    812.4494               863.6328               902.8044
 Red. masses --      1.9275                 2.1921                 2.0085
 Frc consts  --      0.7496                 0.9633                 0.9645
 IR Inten    --      2.8819                 2.4950                10.6529

                     19                     20                     21
                      A                      A                      A
 Frequencies --    912.3819              1000.3139              1016.3129
 Red. masses --      2.2192                 3.4171                 1.5098
 Frc consts  --      1.0884                 2.0146                 0.9188
 IR Inten    --      5.8380                53.0034                 0.3632

                     22                     23                     24
                      A                      A                      A
 Frequencies --   1040.1507              1062.1539              1108.6003
 Red. masses --      1.6283                 1.6246                 1.4793
 Frc consts  --      1.0380                 1.0799                 1.0711
 IR Inten    --      3.8437                13.8834                 3.4444

                     25                     26                     27
                      A                      A                      A
 Frequencies --   1112.8198              1166.8586              1202.8499
 Red. masses --      2.3485                 2.2214                 2.0886
 Frc consts  --      1.7135                 1.7820                 1.7804
 IR Inten    --     60.4726                27.2353                 3.6804

                     28                     29                     30
                      A                      A                      A
 Frequencies --   1225.7712              1270.2314              1303.7751
 Red. masses --      1.7206                 1.7424                 1.5592
 Frc consts  --      1.5231                 1.6564                 1.5616
 IR Inten    --     41.7652                17.5188                 9.1776

                     31                     32                     33
                      A                      A                      A
 Frequencies --   1336.5181              1349.0426              1405.1117
 Red. masses --      1.3689                 1.8874                 1.2508
 Frc consts  --      1.4407                 2.0238                 1.4550
 IR Inten    --     19.0816                 9.8067                 9.8499

                     34                     35                     36
                      A                      A                      A
 Frequencies --   1407.5751              1414.7607              1474.0077
 Red. masses --      1.2883                 1.6228                 1.0452
 Frc consts  --      1.5039                 1.9137                 1.3379
 IR Inten    --      9.3876                19.5900                 6.5524

                     37                     38                     39
                      A                      A                      A
 Frequencies --   1488.7662              1492.0800              1497.4724
 Red. masses --      1.0658                 1.0466                 1.0497
 Frc consts  --      1.3918                 1.3728                 1.3869
 IR Inten    --      7.2895                 5.0660                 2.4923

                     40                     41                     42
                      A                      A                      A
 Frequencies --   1706.7974              1841.3863              2908.9391
 Red. masses --      7.4139                12.6748                 1.0780
 Frc consts  --     12.7251                25.3210                 5.3744
 IR Inten    --      6.0998               170.2389                37.8813

                     43                     44                     45
                      A                      A                      A
 Frequencies --   2973.4094              3024.7665              3044.0675
 Red. masses --      1.0797                 1.0391                 1.0346
 Frc consts  --      5.6242                 5.6015                 5.6483
 IR Inten    --     17.2164                23.8031                22.5214

                     46                     47                     48
                      A                      A                      A
 Frequencies --   3081.2693              3115.1541              3117.5494
 Red. masses --      1.0946                 1.1025                 1.1018
 Frc consts  --      6.1228                 6.3038                 6.3093
 IR Inten    --     11.4688                19.7219                15.8210

                     49                     50                     51
                      A                      A                      A
 Frequencies --   3125.8410              3178.6669              3731.3129
 Red. masses --      1.1018                 1.0930                 1.0654
 Frc consts  --      6.3428                 6.5070                 8.7396
 IR Inten    --     13.8246                12.7100                41.6774

 - Thermochemistry -
 -------------------
 Temperature   298.150 Kelvin.  Pressure   1.00000 Atm.
 Atom     1 has atomic number  6 and mass  12.00000

 Molecular mass:   126.06808 amu.
 Principal axes and moments of inertia in atomic units:
                           1         2         3
     Eigenvalues --   768.934591183.425881808.41082
           X            0.99984   0.01699   0.00603
           Y           -0.01706   0.99980   0.01076
           Z           -0.00585  -0.01086   0.99992
 This molecule is an asymmetric top.
 Rotational symmetry number  1.
 Warning -- assumption of classical behavior for rotation
           may cause significant error
 Rotational temperatures (Kelvin)      0.11264     0.07319     0.04789
 Rotational constants (GHZ):           2.34707     1.52501     0.99797
 Zero-point vibrational energy     413071.6 (Joules/Mol)
                                   98.72648 (Kcal/Mol)
 Warning -- explicit consideration of  13 degrees of freedom as
           vibrations may cause significant error
 Vibrational temperatures:     92.04   204.86   267.64   269.88   305.42
          (Kelvin)            319.70   422.85   462.09   514.85   562.65
                              714.60   805.35   832.83   914.34  1000.55
                             1168.93  1242.57  1298.93  1312.71  1439.23
                             1462.25  1496.54  1528.20  1595.03  1601.10
                             1678.85  1730.63  1763.61  1827.58  1875.84
                             1922.95  1940.97  2021.64  2025.18  2035.52
                             2120.77  2142.00  2146.77  2154.53  2455.70
                             2649.34  4185.31  4278.07  4351.96  4379.73
                             4433.25  4482.01  4485.45  4497.38  4573.39
                             5368.52

 Zero-point correction=                           0.157331 (Hartree/Particle)
 Thermal correction to Energy=                    0.166749
 Thermal correction to Enthalpy=                  0.167693
 Thermal correction to Gibbs Free Energy=         0.123235
 Sum of electronic and zero-point Energies=           -423.064270
 Sum of electronic and thermal Energies=              -423.054852
 Sum of electronic and thermal Enthalpies=            -423.053908
 Sum of electronic and thermal Free Energies=         -423.098366

                     E (Thermal)             CV                S
                      KCal/Mol        Cal/Mol-Kelvin    Cal/Mol-Kelvin
 Total                  104.637             34.758             93.569
 Electronic               0.000              0.000              0.000
 Translational            0.889              2.981             40.409
 Rotational               0.889              2.981             28.889
 Vibrational            102.859             28.797             24.272
 Vibration     1          0.597              1.972              4.331
 Vibration     2          0.616              1.911              2.772
 Vibration     3          0.632              1.859              2.267
 Vibration     4          0.632              1.857              2.252
 Vibration     5          0.643              1.822              2.024
 Vibration     6          0.648              1.807              1.941
 Vibration     7          0.689              1.685              1.451
 Vibration     8          0.707              1.633              1.304
 Vibration     9          0.733              1.559              1.131
 Vibration    10          0.759              1.489              0.996
 Vibration    11          0.852              1.257              0.666
 Vibration    12          0.915              1.118              0.524
 Vibration    13          0.935              1.077              0.488

 Optimization completed.
    -- Stationary point found.
 Normal termination of Gaussian 09 at Tue Jan 28 00:40:37 2020.
