 Gaussian 09, Revision D.01,
 Gaussian 09:  ES64L-G09RevD.01 24-Apr-2013

 -----------------------------
 # b3lyp 6-31G(2df,p) opt Freq
 -----------------------------

 -----
 titel
 -----
 Symbolic Z-matrix:
 Charge =  0 Multiplicity = 1

 SCF Done:  E(RB3LYP) =  -423.126270688     A.U. after   13 cycles
 Optimization completed.
    -- Stationary point found.
 Normal termination of Gaussian 09 at Tue Jan 28 09:18:28 2020.

 ----------------------------------------------------------------------
 #N Geom=AllCheck Guess=TCheck SCRF=Check GenChk RB3LYP/6-31G(2df,p) Fr
 eq
 ----------------------------------------------------------------------

 Structure from the checkpoint file:  "/scratch/puck/g09_70182b73-e4a4-4339-b0ce-15fdc16a9a0a/Gau-109333.chk"
 -----
 titel
 -----
 Charge =  0 Multiplicity = 1

                         Standard orientation:
 ---------------------------------------------------------------------
 Center     Atomic      Atomic             Coordinates (Angstroms)
 Number     Number       Type             X           Y           Z
 ---------------------------------------------------------------------
      1          8           0        2.485111   -0.116201   -0.228009
      2          6           0        1.542245   -1.197644   -0.161477
      3          6           0        0.153640   -0.691520    0.005009
      4          6           0       -1.118372   -1.143258    0.680880
      5          6           0       -1.966458   -0.789594   -0.541699
      6          6           0       -0.805648    0.156367   -0.942822
      7          6           0       -0.782120    1.262641    0.144083
      8          8           0        0.261330    2.195796   -0.030909
      9          6           0       -0.430568    0.148591    1.134664
     10          1           0        2.570133    0.237425    0.664386
     11          1           0        1.660647   -1.740731   -1.104819
     12          1           0        1.799867   -1.891464    0.651709
     13          1           0       -1.246040   -1.969940    1.369944
     14          1           0       -2.061891   -1.639091   -1.223519
     15          1           0       -2.950489   -0.334398   -0.381337
     16          1           0       -0.616519    0.425445   -1.980585
     17          1           0       -1.693772    1.849322    0.299407
     18          1           0        1.054086    1.694908   -0.277076
     19          1           0       -0.043861    0.258261    2.141405
 ---------------------------------------------------------------------

 SCF Done:  E(RB3LYP) =  -423.126270688     A.U. after    1 cycles

 The electronic state is 1-A.
 Alpha  occ. eigenvalues --  -19.15012 -19.12416 -10.24150 -10.22936 -10.20214
 Alpha  occ. eigenvalues --  -10.19909 -10.19146 -10.19047 -10.18874  -1.02756
 Alpha  occ. eigenvalues --   -1.01130  -0.92628  -0.73222  -0.70677  -0.69630
 Alpha  occ. eigenvalues --   -0.61760  -0.55695  -0.53442  -0.52211  -0.49846
 Alpha  occ. eigenvalues --   -0.47651  -0.45374  -0.44764  -0.42544  -0.40226
 Alpha  occ. eigenvalues --   -0.36904  -0.35585  -0.34704  -0.33761  -0.32243
 Alpha  occ. eigenvalues --   -0.28438  -0.28240  -0.25205  -0.24267
 Alpha virt. eigenvalues --    0.06117   0.09455   0.10210   0.10777   0.12273
 Alpha virt. eigenvalues --    0.13101   0.13717   0.15071   0.15794   0.16173
 Alpha virt. eigenvalues --    0.17323   0.18943   0.20288   0.20962   0.22822

 Mulliken charges:
               1
     1  O   -0.407944
     2  C   -0.245249
     3  C    0.338337
     4  C   -0.147993
     5  C   -0.243803
     6  C   -0.145918
     7  C    0.161431
     8  O   -0.458130
     9  C   -0.153572
    10  H    0.287107
    11  H    0.121212
    12  H    0.101367
    13  H    0.089239
    14  H    0.101968
    15  H    0.093151
    16  H    0.077636
    17  H    0.074381
    18  H    0.274072
    19  H    0.082705
 Sum of Mulliken charges =   0.00000

 Dipole moment (field-independent basis, Debye):
    X=             -0.2866    Y=             -2.3327    Z=              1.0300  Tot=              2.5660
 Quadrupole moment (field-independent basis, Debye-Ang):
   XX=            -53.7166   YY=            -57.4530   ZZ=            -50.8418
   XY=             -0.3634   XZ=              3.6237   YZ=              0.0436

  Exact polarizability:  81.088   0.556  75.491   1.320   0.423  68.308
 Approx polarizability: 114.665   2.011 111.891  -1.858   1.563 107.284

                      1                      2                      3
                      A                      A                      A
 Frequencies --    109.5481               119.5498               253.0976
 Red. masses --      4.7699                 4.3100                 2.0162
 Frc consts  --      0.0337                 0.0363                 0.0761
 IR Inten    --      2.6347                 2.6548                23.9172

                      4                      5                      6
                      A                      A                      A
 Frequencies --    268.3546               304.1969               357.0158
 Red. masses --      2.8490                 1.3482                 3.1462
 Frc consts  --      0.1209                 0.0735                 0.2363
 IR Inten    --      8.6307                97.6095                42.8363

                      7                      8                      9
                      A                      A                      A
 Frequencies --    382.1007               488.8281               527.0989
 Red. masses --      2.9147                 2.7935                 4.6795
 Frc consts  --      0.2507                 0.3933                 0.7660
 IR Inten    --     15.6135                 1.5627                 1.0689

                     10                     11                     12
                      A                      A                      A
 Frequencies --    596.9762               645.4406               728.5965
 Red. masses --      1.0775                 3.1886                 4.1251
 Frc consts  --      0.2263                 0.7826                 1.2902
 IR Inten    --     43.7724                 6.8482                 0.6737

                     13                     14                     15
                      A                      A                      A
 Frequencies --    797.8605               836.6430               874.3516
 Red. masses --      2.6301                 2.3763                 1.8484
 Frc consts  --      0.9865                 0.9800                 0.8326
 IR Inten    --      5.4943                 5.7176                12.8014

                     16                     17                     18
                      A                      A                      A
 Frequencies --    902.8028               927.9663               939.5216
 Red. masses --      2.1852                 2.3828                 1.7914
 Frc consts  --      1.0494                 1.2089                 0.9317
 IR Inten    --      0.5093                 2.1237                 1.6198

                     19                     20                     21
                      A                      A                      A
 Frequencies --    983.5432               987.2037              1007.8499
 Red. masses --      1.7384                 1.9225                 2.4452
 Frc consts  --      0.9908                 1.1039                 1.4634
 IR Inten    --     12.3771                15.0393                47.9069

                     22                     23                     24
                      A                      A                      A
 Frequencies --   1018.3899              1021.7228              1052.2270
 Red. masses --      1.9225                 2.0151                 2.3135
 Frc consts  --      1.1747                 1.2394                 1.5092
 IR Inten    --      2.9025                 5.4216                27.0519

                     25                     26                     27
                      A                      A                      A
 Frequencies --   1090.6752              1107.4513              1139.8673
 Red. masses --      2.2652                 1.6035                 1.5065
 Frc consts  --      1.5876                 1.1587                 1.1533
 IR Inten    --     68.5731                 8.2742                37.3167

                     28                     29                     30
                      A                      A                      A
 Frequencies --   1161.8689              1205.6194              1221.4786
 Red. masses --      1.7852                 2.1278                 1.6895
 Frc consts  --      1.4198                 1.8222                 1.4852
 IR Inten    --      3.3912                 6.1797                11.5859

                     31                     32                     33
                      A                      A                      A
 Frequencies --   1227.8405              1250.3657              1287.9433
 Red. masses --      1.3533                 1.4628                 1.5049
 Frc consts  --      1.2021                 1.3475                 1.4708
 IR Inten    --     11.1105                 2.7573                 3.7724

                     34                     35                     36
                      A                      A                      A
 Frequencies --   1300.2911              1322.6600              1367.7411
 Red. masses --      1.6487                 1.6234                 1.2923
 Frc consts  --      1.6424                 1.6733                 1.4244
 IR Inten    --      7.8519                 3.3138                 5.6791

                     37                     38                     39
                      A                      A                      A
 Frequencies --   1401.2911              1448.5712              1456.2158
 Red. masses --      1.1905                 3.9360                 1.3238
 Frc consts  --      1.3774                 4.8662                 1.6540
 IR Inten    --     25.9007                33.0536                91.5694

                     40                     41                     42
                      A                      A                      A
 Frequencies --   1491.0403              1503.8170              3002.4677
 Red. masses --      1.0889                 1.1329                 1.0670
 Frc consts  --      1.4263                 1.5094                 5.6671
 IR Inten    --      0.4770                 2.2461                53.3906

                     43                     44                     45
                      A                      A                      A
 Frequencies --   3034.8438              3055.8856              3074.7942
 Red. masses --      1.0606                 1.0848                 1.0961
 Frc consts  --      5.7554                 5.9686                 6.1056
 IR Inten    --     47.6019                73.8608                22.4180

                     46                     47                     48
                      A                      A                      A
 Frequencies --   3096.1284              3135.8379              3178.1349
 Red. masses --      1.1048                 1.0913                 1.0909
 Frc consts  --      6.2401                 6.3227                 6.4921
 IR Inten    --     29.1786                25.0759                 8.3794

                     49                     50                     51
                      A                      A                      A
 Frequencies --   3188.4833              3705.2665              3806.5003
 Red. masses --      1.0947                 1.0656                 1.0662
 Frc consts  --      6.5568                 8.6198                 9.1023
 IR Inten    --     24.3546                53.3851                19.9899

 - Thermochemistry -
 -------------------
 Temperature   298.150 Kelvin.  Pressure   1.00000 Atm.
 Atom     1 has atomic number  8 and mass  15.99491

 Molecular mass:   126.06808 amu.
 Principal axes and moments of inertia in atomic units:
                           1         2         3
     Eigenvalues --   764.381101036.226221436.75173
           X            0.99983  -0.00582   0.01744
           Y            0.00582   0.99998   0.00058
           Z           -0.01745  -0.00047   0.99985
 This molecule is an asymmetric top.
 Rotational symmetry number  1.
 Warning -- assumption of classical behavior for rotation
           may cause significant error
 Rotational temperatures (Kelvin)      0.11331     0.08359     0.06028
 Rotational constants (GHZ):           2.36105     1.74165     1.25613
 Zero-point vibrational energy     421049.4 (Joules/Mol)
                                  100.63323 (Kcal/Mol)
 Warning -- explicit consideration of  10 degrees of freedom as
           vibrations may cause significant error
 Vibrational temperatures:    157.62   172.01   364.15   386.10   437.67
          (Kelvin)            513.67   549.76   703.31   758.38   858.91
                              928.64  1048.29  1147.94  1203.74  1258.00
                             1298.93  1335.13  1351.76  1415.10  1420.36
                             1450.07  1465.23  1470.03  1513.92  1569.24
                             1593.37  1640.01  1671.67  1734.62  1757.43
                             1766.59  1799.00  1853.06  1870.83  1903.01
                             1967.87  2016.14  2084.17  2095.17  2145.27
                             2163.65  4319.88  4366.46  4396.73  4423.94
                             4454.63  4511.77  4572.62  4587.51  5331.05
                             5476.70

 Zero-point correction=                           0.160369 (Hartree/Particle)
 Thermal correction to Energy=                    0.168282
 Thermal correction to Enthalpy=                  0.169226
 Thermal correction to Gibbs Free Energy=         0.128086
 Sum of electronic and zero-point Energies=           -422.965901
 Sum of electronic and thermal Energies=              -422.957988
 Sum of electronic and thermal Enthalpies=            -422.957044
 Sum of electronic and thermal Free Energies=         -422.998185

                     E (Thermal)             CV                S
                      KCal/Mol        Cal/Mol-Kelvin    Cal/Mol-Kelvin
 Total                  105.599             31.443             86.587
 Electronic               0.000              0.000              0.000
 Translational            0.889              2.981             40.409
 Rotational               0.889              2.981             28.522
 Vibrational            103.821             25.481             17.657
 Vibration     1          0.606              1.942              3.277
 Vibration     2          0.609              1.933              3.108
 Vibration     3          0.664              1.758              1.709
 Vibration     4          0.673              1.731              1.607
 Vibration     5          0.695              1.666              1.394
 Vibration     6          0.732              1.561              1.135
 Vibration     7          0.752              1.508              1.031
 Vibration     8          0.845              1.275              0.687
 Vibration     9          0.882              1.190              0.594
 Vibration    10          0.955              1.038              0.455

 Normal termination of Gaussian 09 at Tue Jan 28 10:07:06 2020.
