 Gaussian 09, Revision D.01,
 Gaussian 09:  ES64L-G09RevD.01 24-Apr-2013

 -----------------------------
 # b3lyp 6-31G(2df,p) opt Freq
 -----------------------------

 -----
 titel
 -----
 Symbolic Z-matrix:
 Charge =  0 Multiplicity = 1

 SCF Done:  E(RB3LYP) =  -423.203291576     A.U. after   14 cycles
 Optimization completed.
    -- Stationary point found.
 Normal termination of Gaussian 09 at Mon Jan 27 17:04:51 2020.

 ----------------------------------------------------------------------
 #N Geom=AllCheck Guess=TCheck SCRF=Check GenChk RB3LYP/6-31G(2df,p) Fr
 eq
 ----------------------------------------------------------------------

 Structure from the checkpoint file:  "/scratch/puck/g09_ca3a9e36-925e-4df7-a207-549d5077433f/Gau-49304.chk"
 -----
 titel
 -----
 Charge =  0 Multiplicity = 1

                         Standard orientation:
 ---------------------------------------------------------------------
 Center     Atomic      Atomic             Coordinates (Angstroms)
 Number     Number       Type             X           Y           Z
 ---------------------------------------------------------------------
      1          6           0        1.356133    1.816554    0.626145
      2          6           0        0.639224    0.640379   -0.016642
      3          6           0       -0.544202    1.009860   -0.975554
      4          6           0       -1.495618    0.252661   -0.042561
      5          8           0       -2.682123    0.096809   -0.012086
      6          6           0       -0.352776   -0.208716    0.872629
      7          6           0        0.097195   -1.662337    0.638921
      8          8           0        0.818719   -1.644608   -0.585558
      9          6           0        1.570368   -0.438597   -0.588131
     10          1           0        1.952476    2.366223   -0.111241
     11          1           0        0.646134    2.524312    1.066354
     12          1           0        2.033338    1.483784    1.420256
     13          1           0       -0.764118    2.077845   -1.069907
     14          1           0       -0.486374    0.574098   -1.978304
     15          1           0       -0.467669    0.042832    1.929464
     16          1           0        0.742700   -1.992003    1.468820
     17          1           0       -0.730741   -2.368322    0.536387
     18          1           0        2.467797   -0.538067    0.046398
     19          1           0        1.891757   -0.247131   -1.615919
 ---------------------------------------------------------------------

 SCF Done:  E(RB3LYP) =  -423.203291576     A.U. after    1 cycles

 The electronic state is 1-A.
 Alpha  occ. eigenvalues --  -19.14721 -19.13689 -10.26861 -10.23888 -10.23299
 Alpha  occ. eigenvalues --  -10.20936 -10.19611 -10.19145 -10.19051  -1.04908
 Alpha  occ. eigenvalues --   -1.04246  -0.85571  -0.75961  -0.72117  -0.68612
 Alpha  occ. eigenvalues --   -0.62332  -0.56588  -0.52687  -0.50010  -0.49632
 Alpha  occ. eigenvalues --   -0.46402  -0.44823  -0.43577  -0.42445  -0.41325
 Alpha  occ. eigenvalues --   -0.40856  -0.39788  -0.37393  -0.34240  -0.33730
 Alpha  occ. eigenvalues --   -0.32372  -0.31020  -0.26851  -0.23815
 Alpha virt. eigenvalues --   -0.02389   0.07340   0.10578   0.11396   0.11947
 Alpha virt. eigenvalues --    0.13143   0.13475   0.14612   0.15313   0.16585
 Alpha virt. eigenvalues --    0.16977   0.17483   0.18281   0.19246   0.21861

 Mulliken charges:
               1
     1  C   -0.485113
     2  C    0.319675
     3  C   -0.406166
     4  C    0.429811
     5  O   -0.302123
     6  C   -0.216556
     7  C   -0.101007
     8  O   -0.250748
     9  C   -0.137192
    10  H    0.123680
    11  H    0.121997
    12  H    0.120343
    13  H    0.127103
    14  H    0.135950
    15  H    0.096184
    16  H    0.096133
    17  H    0.129445
    18  H    0.086230
    19  H    0.112352
 Sum of Mulliken charges =   0.00000

 Dipole moment (field-independent basis, Debye):
    X=              2.7022    Y=              1.3769    Z=              0.8445  Tot=              3.1481
 Quadrupole moment (field-independent basis, Debye-Ang):
   XX=            -61.8741   YY=            -53.3131   ZZ=            -51.0864
   XY=              1.5906   XZ=              0.1352   YZ=             -2.6132

  Exact polarizability:  81.631   2.339  74.061   0.099  -5.018  68.821
 Approx polarizability: 120.977   3.439 103.388  -1.158  -5.762 105.221

                      1                      2                      3
                      A                      A                      A
 Frequencies --     45.5849               178.4271               219.4351
 Red. masses --      3.9783                 3.3279                 1.0674
 Frc consts  --      0.0049                 0.0624                 0.0303
 IR Inten    --      3.9456                 0.8438                 0.0799

                      4                      5                      6
                      A                      A                      A
 Frequencies --    239.0365               283.3378               321.6537
 Red. masses --      2.7704                 2.7592                 2.2122
 Frc consts  --      0.0933                 0.1305                 0.1349
 IR Inten    --      4.9722                 4.5360                 0.2863

                      7                      8                      9
                      A                      A                      A
 Frequencies --    366.2070               440.0755               527.4143
 Red. masses --      1.9525                 3.3565                 2.3768
 Frc consts  --      0.1543                 0.3830                 0.3895
 IR Inten    --      0.5669                 1.8363                 1.8023

                     10                     11                     12
                      A                      A                      A
 Frequencies --    573.0633               580.7183               698.0557
 Red. masses --      3.1484                 4.3466                 4.9500
 Frc consts  --      0.6092                 0.8636                 1.4211
 IR Inten    --      0.1933                 1.5766                 7.7003

                     13                     14                     15
                      A                      A                      A
 Frequencies --    746.8190               809.8928               848.9785
 Red. masses --      2.7976                 2.4977                 2.7546
 Frc consts  --      0.9193                 0.9652                 1.1698
 IR Inten    --      1.8296                 0.8377                 1.1678

                     16                     17                     18
                      A                      A                      A
 Frequencies --    902.8200               935.8590               953.5810
 Red. masses --      2.5959                 2.5422                 1.8162
 Frc consts  --      1.2466                 1.3119                 0.9730
 IR Inten    --      2.4869                22.1566                 5.5729

                     19                     20                     21
                      A                      A                      A
 Frequencies --    985.2958               997.1675              1019.4252
 Red. masses --      2.4766                 1.3033                 1.7809
 Frc consts  --      1.4166                 0.7635                 1.0904
 IR Inten    --     11.3652                 2.1543                 6.3020

                     22                     23                     24
                      A                      A                      A
 Frequencies --   1074.2459              1087.5281              1119.9102
 Red. masses --      2.6999                 2.8980                 2.6315
 Frc consts  --      1.8357                 2.0194                 1.9446
 IR Inten    --     51.9431                24.1175                45.1047

                     25                     26                     27
                      A                      A                      A
 Frequencies --   1153.7333              1166.9399              1194.3557
 Red. masses --      1.9444                 2.0381                 1.4055
 Frc consts  --      1.5249                 1.6352                 1.1813
 IR Inten    --      7.3764                10.6927                 4.2256

                     28                     29                     30
                      A                      A                      A
 Frequencies --   1224.1357              1238.3308              1277.2696
 Red. masses --      1.5072                 1.9075                 2.0024
 Frc consts  --      1.3307                 1.7234                 1.9247
 IR Inten    --      2.0040                22.6411                 8.0814

                     31                     32                     33
                      A                      A                      A
 Frequencies --   1281.5737              1285.8963              1357.2914
 Red. masses --      2.2266                 1.2671                 1.3379
 Frc consts  --      2.1547                 1.2344                 1.4522
 IR Inten    --     10.2247                 1.7901                 2.5395

                     34                     35                     36
                      A                      A                      A
 Frequencies --   1398.5735              1414.0340              1431.0134
 Red. masses --      1.3920                 1.2251                 1.1456
 Frc consts  --      1.6042                 1.4432                 1.3822
 IR Inten    --      5.1516                 4.5128                 9.0377

                     37                     38                     39
                      A                      A                      A
 Frequencies --   1494.3976              1495.7402              1501.9288
 Red. masses --      1.0489                 1.0572                 1.0759
 Frc consts  --      1.3801                 1.3935                 1.4299
 IR Inten    --      3.4172                 2.4803                 0.3008

                     40                     41                     42
                      A                      A                      A
 Frequencies --   1513.6839              1889.1594              2957.6005
 Red. masses --      1.0990                12.6372                 1.0707
 Frc consts  --      1.4836                26.5730                 5.5180
 IR Inten    --      1.7710               271.5344                56.7013

                     43                     44                     45
                      A                      A                      A
 Frequencies --   2974.9005              3026.1017              3049.6155
 Red. masses --      1.0712                 1.0356                 1.0586
 Frc consts  --      5.5853                 5.5876                 5.8005
 IR Inten    --     77.3528                27.3887                 7.5755

                     46                     47                     48
                      A                      A                      A
 Frequencies --   3086.1832              3090.3513              3093.5136
 Red. masses --      1.0924                 1.0998                 1.0878
 Frc consts  --      6.1302                 6.1884                 6.1337
 IR Inten    --     17.4784                25.1929                13.4114

                     49                     50                     51
                      A                      A                      A
 Frequencies --   3098.0354              3100.3523              3104.6116
 Red. masses --      1.1012                 1.0934                 1.1050
 Frc consts  --      6.2272                 6.1925                 6.2754
 IR Inten    --     18.5638                18.1067                 9.7652

 - Thermochemistry -
 -------------------
 Temperature   298.150 Kelvin.  Pressure   1.00000 Atm.
 Atom     1 has atomic number  6 and mass  12.00000

 Molecular mass:   126.06808 amu.
 Principal axes and moments of inertia in atomic units:
                           1         2         3
     Eigenvalues --   793.385141041.575451428.83563
           X            0.99611   0.08739   0.01092
           Y           -0.08713   0.99595  -0.02221
           Z           -0.01282   0.02117   0.99969
 This molecule is an asymmetric top.
 Rotational symmetry number  1.
 Warning -- assumption of classical behavior for rotation
           may cause significant error
 Rotational temperatures (Kelvin)      0.10917     0.08316     0.06062
 Rotational constants (GHZ):           2.27474     1.73270     1.26309
 Zero-point vibrational energy     417818.8 (Joules/Mol)
                                   99.86110 (Kcal/Mol)
 Warning -- explicit consideration of  11 degrees of freedom as
           vibrations may cause significant error
 Vibrational temperatures:     65.59   256.72   315.72   343.92   407.66
          (Kelvin)            462.79   526.89   633.17   758.83   824.51
                              835.52  1004.35  1074.50  1165.25  1221.49
                             1298.96  1346.49  1371.99  1417.62  1434.70
                             1466.72  1545.60  1564.71  1611.30  1659.96
                             1678.96  1718.41  1761.26  1781.68  1837.70
                             1843.90  1850.12  1952.84  2012.23  2034.48
                             2058.91  2150.10  2152.03  2160.94  2177.85
                             2718.08  4255.32  4280.21  4353.88  4387.71
                             4440.32  4446.32  4450.87  4457.38  4460.71
                             4466.84

 Zero-point correction=                           0.159139 (Hartree/Particle)
 Thermal correction to Energy=                    0.167300
 Thermal correction to Enthalpy=                  0.168244
 Thermal correction to Gibbs Free Energy=         0.126148
 Sum of electronic and zero-point Energies=           -423.044153
 Sum of electronic and thermal Energies=              -423.035992
 Sum of electronic and thermal Enthalpies=            -423.035047
 Sum of electronic and thermal Free Energies=         -423.077144

                     E (Thermal)             CV                S
                      KCal/Mol        Cal/Mol-Kelvin    Cal/Mol-Kelvin
 Total                  104.982             31.424             88.600
 Electronic               0.000              0.000              0.000
 Translational            0.889              2.981             40.409
 Rotational               0.889              2.981             28.559
 Vibrational            103.205             25.462             19.632
 Vibration     1          0.595              1.979              5.000
 Vibration     2          0.629              1.869              2.345
 Vibration     3          0.647              1.811              1.964
 Vibration     4          0.657              1.781              1.810
 Vibration     5          0.682              1.705              1.513
 Vibration     6          0.707              1.632              1.302
 Vibration     7          0.739              1.542              1.096
 Vibration     8          0.800              1.383              0.826
 Vibration     9          0.882              1.189              0.593
 Vibration    10          0.929              1.090              0.498
 Vibration    11          0.937              1.073              0.484

 Optimization completed.
    -- Stationary point found.
 Normal termination of Gaussian 09 at Mon Jan 27 17:50:13 2020.
