 Gaussian 09, Revision D.01,
 Gaussian 09:  ES64L-G09RevD.01 24-Apr-2013

 -----------------------------
 # b3lyp 6-31G(2df,p) opt Freq
 -----------------------------

 -----
 titel
 -----
 Symbolic Z-matrix:
 Charge =  0 Multiplicity = 1

 SCF Done:  E(RB3LYP) =  -423.201612872     A.U. after   13 cycles
 Optimization completed.
    -- Stationary point found.
 Normal termination of Gaussian 09 at Tue Jan 28 03:16:56 2020.

 ----------------------------------------------------------------------
 #N Geom=AllCheck Guess=TCheck SCRF=Check GenChk RB3LYP/6-31G(2df,p) Fr
 eq
 ----------------------------------------------------------------------

 Structure from the checkpoint file:  "/scratch/puck/g09_4f14a22b-e460-411b-99c9-66fb23e3fc55/Gau-7492.chk"
 -----
 titel
 -----
 Charge =  0 Multiplicity = 1

                         Standard orientation:
 ---------------------------------------------------------------------
 Center     Atomic      Atomic             Coordinates (Angstroms)
 Number     Number       Type             X           Y           Z
 ---------------------------------------------------------------------
      1          8           0       -2.560324   -0.374833   -0.231134
      2          6           0       -1.191791   -0.236332   -0.578750
      3          6           0       -0.721632    1.249944   -0.571430
      4          6           0        0.444160    1.225451    0.444251
      5          8           0        0.064612    0.180120    1.350572
      6          6           0       -0.260351   -0.901802    0.469159
      7          6           0        1.035073   -1.503387   -0.104585
      8          6           0        2.006742   -0.419053   -0.497940
      9          6           0        1.742860    0.860419   -0.242275
     10          1           0       -2.665548   -0.008067    0.654602
     11          1           0       -1.100798   -0.699460   -1.564158
     12          1           0       -0.418647    1.604879   -1.558425
     13          1           0       -1.546303    1.878401   -0.221955
     14          1           0        0.537184    2.144583    1.026946
     15          1           0       -0.816094   -1.648441    1.041331
     16          1           0        1.497291   -2.163435    0.641826
     17          1           0        0.799913   -2.142927   -0.966006
     18          1           0        2.931902   -0.718722   -0.983017
     19          1           0        2.416445    1.659447   -0.537225
 ---------------------------------------------------------------------

 SCF Done:  E(RB3LYP) =  -423.201612872     A.U. after    1 cycles

 The electronic state is 1-A.
 Alpha  occ. eigenvalues --  -19.13729 -19.13396 -10.23386 -10.23168 -10.22721
 Alpha  occ. eigenvalues --  -10.18817 -10.18597 -10.18220 -10.18009  -1.04385
 Alpha  occ. eigenvalues --   -1.01199  -0.80469  -0.76904  -0.75019  -0.65034
 Alpha  occ. eigenvalues --   -0.61705  -0.59488  -0.53058  -0.51922  -0.47861
 Alpha  occ. eigenvalues --   -0.46032  -0.45175  -0.42613  -0.41342  -0.41102
 Alpha  occ. eigenvalues --   -0.38828  -0.37678  -0.35504  -0.34526  -0.33096
 Alpha  occ. eigenvalues --   -0.31025  -0.27550  -0.24845  -0.24107
 Alpha virt. eigenvalues --    0.01579   0.08181   0.09513   0.10264   0.12910
 Alpha virt. eigenvalues --    0.13270   0.14291   0.15631   0.16453   0.17797
 Alpha virt. eigenvalues --    0.18320   0.18519   0.19211   0.21237   0.23577

 Mulliken charges:
               1
     1  O   -0.439370
     2  C    0.152896
     3  C   -0.263167
     4  C    0.035600
     5  O   -0.267712
     6  C    0.030579
     7  C   -0.273747
     8  C   -0.060488
     9  C   -0.060119
    10  H    0.280379
    11  H    0.088929
    12  H    0.107890
    13  H    0.100719
    14  H    0.081519
    15  H    0.081241
    16  H    0.115229
    17  H    0.108317
    18  H    0.091594
    19  H    0.089711
 Sum of Mulliken charges =   0.00000

 Dipole moment (field-independent basis, Debye):
    X=              1.0400    Y=              0.4407    Z=             -0.5166  Tot=              1.2421
 Quadrupole moment (field-independent basis, Debye-Ang):
   XX=            -55.9785   YY=            -49.2143   ZZ=            -54.8859
   XY=             -1.8299   XZ=             -4.3142   YZ=              0.0112

  Exact polarizability:  79.067  -1.948  83.526  -4.617   1.363  60.798
 Approx polarizability: 106.350  -3.100 129.892  -6.315   5.572  97.809

                      1                      2                      3
                      A                      A                      A
 Frequencies --     56.0265               239.9038               268.3325
 Red. masses --      3.4035                 2.4018                 2.7838
 Frc consts  --      0.0063                 0.0814                 0.1181
 IR Inten    --      2.5850                 1.0308                 2.2937

                      4                      5                      6
                      A                      A                      A
 Frequencies --    334.9270               389.7067               414.6978
 Red. masses --      2.7065                 1.4246                 2.7102
 Frc consts  --      0.1789                 0.1275                 0.2746
 IR Inten    --      9.3346                68.0274                 7.3531

                      7                      8                      9
                      A                      A                      A
 Frequencies --    463.8475               504.8918               577.2639
 Red. masses --      3.5570                 2.5545                 3.8987
 Frc consts  --      0.4509                 0.3837                 0.7655
 IR Inten    --     16.8388                 1.0021                 1.8051

                     10                     11                     12
                      A                      A                      A
 Frequencies --    663.5517               713.3338               774.5551
 Red. masses --      2.3604                 2.6708                 3.4021
 Frc consts  --      0.6123                 0.8007                 1.2025
 IR Inten    --      2.0204                20.1042                12.8014

                     13                     14                     15
                      A                      A                      A
 Frequencies --    823.3714               845.7341               875.5747
 Red. masses --      2.8021                 3.2249                 2.8308
 Frc consts  --      1.1193                 1.3591                 1.2787
 IR Inten    --     10.2261                 5.3766                19.1714

                     16                     17                     18
                      A                      A                      A
 Frequencies --    900.3556               909.7062               964.2020
 Red. masses --      3.1030                 2.1246                 2.5063
 Frc consts  --      1.4820                 1.0359                 1.3729
 IR Inten    --     10.7464                 1.1045                21.8580

                     19                     20                     21
                      A                      A                      A
 Frequencies --    989.5995               990.5785              1023.9612
 Red. masses --      1.8078                 1.5253                 2.5022
 Frc consts  --      1.0431                 0.8818                 1.5458
 IR Inten    --      4.8725                 3.8708                 3.7986

                     22                     23                     24
                      A                      A                      A
 Frequencies --   1033.9973              1052.9599              1070.0690
 Red. masses --      2.0093                 3.9769                 2.1628
 Frc consts  --      1.2657                 2.5979                 1.4591
 IR Inten    --      7.8056                44.4288                 5.5453

                     25                     26                     27
                      A                      A                      A
 Frequencies --   1084.1723              1161.2474              1180.7781
 Red. masses --      3.1115                 1.1458                 1.1381
 Frc consts  --      2.1549                 0.9103                 0.9349
 IR Inten    --    103.5129                15.8224                 1.8050

                     28                     29                     30
                      A                      A                      A
 Frequencies --   1194.4098              1238.7873              1272.1716
 Red. masses --      1.0935                 1.4943                 1.3742
 Frc consts  --      0.9192                 1.3510                 1.3104
 IR Inten    --     12.2215                15.4037                 1.1563

                     31                     32                     33
                      A                      A                      A
 Frequencies --   1281.6811              1297.0679              1325.8041
 Red. masses --      1.3864                 1.4072                 1.4329
 Frc consts  --      1.3418                 1.3948                 1.4840
 IR Inten    --      0.0267                 0.9434                 1.9549

                     34                     35                     36
                      A                      A                      A
 Frequencies --   1342.3237              1358.2047              1390.1261
 Red. masses --      1.5695                 1.4321                 1.4739
 Frc consts  --      1.6662                 1.5565                 1.6781
 IR Inten    --     10.6253                 1.5707                12.2929

                     37                     38                     39
                      A                      A                      A
 Frequencies --   1409.0732              1435.8478              1469.4091
 Red. masses --      1.5654                 1.2210                 1.0928
 Frc consts  --      1.8312                 1.4831                 1.3902
 IR Inten    --      0.9567                49.7072                 6.5173

                     40                     41                     42
                      A                      A                      A
 Frequencies --   1487.1907              1715.5821              3012.8926
 Red. masses --      1.0936                 6.4774                 1.0602
 Frc consts  --      1.4251                11.2324                 5.6704
 IR Inten    --      2.7139                 2.4150                27.3140

                     43                     44                     45
                      A                      A                      A
 Frequencies --   3040.0657              3058.2728              3084.2883
 Red. masses --      1.1005                 1.0634                 1.0875
 Frc consts  --      5.9922                 5.8599                 6.0950
 IR Inten    --     16.3928                22.1457                26.9957

                     46                     47                     48
                      A                      A                      A
 Frequencies --   3085.6158              3090.9404              3118.3193
 Red. masses --      1.0861                 1.0891                 1.1024
 Frc consts  --      6.0929                 6.1305                 6.3157
 IR Inten    --     48.5432                11.2687                23.7567

                     49                     50                     51
                      A                      A                      A
 Frequencies --   3155.1293              3180.7723              3790.3272
 Red. masses --      1.0844                 1.0986                 1.0658
 Frc consts  --      6.3603                 6.5488                 9.0216
 IR Inten    --      9.6412                26.4435                16.8275

 - Thermochemistry -
 -------------------
 Temperature   298.150 Kelvin.  Pressure   1.00000 Atm.
 Atom     1 has atomic number  8 and mass  15.99491

 Molecular mass:   126.06808 amu.
 Principal axes and moments of inertia in atomic units:
                           1         2         3
     Eigenvalues --   612.502351126.184591332.67936
           X            0.99960  -0.02332  -0.01624
           Y            0.02310   0.99964  -0.01352
           Z            0.01655   0.01314   0.99978
 This molecule is an asymmetric top.
 Rotational symmetry number  1.
 Warning -- assumption of classical behavior for rotation
           may cause significant error
 Rotational temperatures (Kelvin)      0.14141     0.07691     0.06499
 Rotational constants (GHZ):           2.94650     1.60253     1.35422
 Zero-point vibrational energy     425521.5 (Joules/Mol)
                                  101.70209 (Kcal/Mol)
 Warning -- explicit consideration of   9 degrees of freedom as
           vibrations may cause significant error
 Vibrational temperatures:     80.61   345.17   386.07   481.88   560.70
          (Kelvin)            596.66   667.37   726.43   830.55   954.70
                             1026.33  1114.41  1184.65  1216.82  1259.76
                             1295.41  1308.86  1387.27  1423.81  1425.22
                             1473.25  1487.69  1514.97  1539.59  1559.88
                             1670.77  1698.87  1718.49  1782.34  1830.37
                             1844.05  1866.19  1907.53  1931.30  1954.15
                             2000.08  2027.34  2065.86  2114.15  2139.73
                             2468.34  4334.88  4373.97  4400.17  4437.60
                             4439.51  4447.17  4486.56  4539.52  4576.42
                             5453.43

 Zero-point correction=                           0.162073 (Hartree/Particle)
 Thermal correction to Energy=                    0.169390
 Thermal correction to Enthalpy=                  0.170334
 Thermal correction to Gibbs Free Energy=         0.130179
 Sum of electronic and zero-point Energies=           -423.039540
 Sum of electronic and thermal Energies=              -423.032223
 Sum of electronic and thermal Enthalpies=            -423.031279
 Sum of electronic and thermal Free Energies=         -423.071434

                     E (Thermal)             CV                S
                      KCal/Mol        Cal/Mol-Kelvin    Cal/Mol-Kelvin
 Total                  106.294             29.752             84.514
 Electronic               0.000              0.000              0.000
 Translational            0.889              2.981             40.409
 Rotational               0.889              2.981             28.310
 Vibrational            104.516             23.790             15.795
 Vibration     1          0.596              1.975              4.592
 Vibration     2          0.657              1.779              1.804
 Vibration     3          0.673              1.731              1.607
 Vibration     4          0.716              1.606              1.236
 Vibration     5          0.758              1.492              1.001
 Vibration     6          0.778              1.438              0.910
 Vibration     7          0.821              1.330              0.755
 Vibration     8          0.860              1.239              0.646
 Vibration     9          0.934              1.080              0.490

 Normal termination of Gaussian 09 at Tue Jan 28 04:03:52 2020.
