 Gaussian 09, Revision D.01,
 Gaussian 09:  ES64L-G09RevD.01 24-Apr-2013

 -----------------------------
 # b3lyp 6-31G(2df,p) opt Freq
 -----------------------------

 -----
 titel
 -----
 Symbolic Z-matrix:
 Charge =  0 Multiplicity = 1

 SCF Done:  E(RB3LYP) =  -423.231663113     A.U. after   14 cycles
 Optimization completed.
    -- Stationary point found.
 Normal termination of Gaussian 09 at Tue Jan 28 00:46:27 2020.

 ----------------------------------------------------------------------
 #N Geom=AllCheck Guess=TCheck SCRF=Check GenChk RB3LYP/6-31G(2df,p) Fr
 eq
 ----------------------------------------------------------------------

 Structure from the checkpoint file:  "/scratch/puck/g09_70b62f88-ef47-4828-8238-0a2131be8569/Gau-38347.chk"
 -----
 titel
 -----
 Charge =  0 Multiplicity = 1

                         Standard orientation:
 ---------------------------------------------------------------------
 Center     Atomic      Atomic             Coordinates (Angstroms)
 Number     Number       Type             X           Y           Z
 ---------------------------------------------------------------------
      1          6           0       -2.717870   -0.730452    0.128642
      2          6           0       -1.272483   -0.385329   -0.080271
      3          6           0       -0.283091   -1.264228    0.165082
      4          6           0        1.144685   -0.969950   -0.063182
      5          8           0        2.013023   -1.781253    0.193661
      6          6           0        1.468037    0.393918   -0.667270
      7          6           0        0.451371    1.469607   -0.268134
      8          8           0        0.578607    1.833613    1.100580
      9          6           0       -0.977061    1.005404   -0.593155
     10          1           0       -3.287249   -0.582900   -0.797912
     11          1           0       -2.849508   -1.764490    0.455023
     12          1           0       -3.170274   -0.066398    0.875857
     13          1           0       -0.496570   -2.260630    0.542202
     14          1           0        2.480633    0.678602   -0.372768
     15          1           0        1.463104    0.274484   -1.760009
     16          1           0        0.660859    2.393495   -0.816224
     17          1           0        0.412829    1.049327    1.636143
     18          1           0       -1.688383    1.720770   -0.165435
     19          1           0       -1.140011    1.025035   -1.681082
 ---------------------------------------------------------------------

 SCF Done:  E(RB3LYP) =  -423.231663113     A.U. after    1 cycles

 The electronic state is 1-A.
 Alpha  occ. eigenvalues --  -19.13983 -19.11848 -10.26206 -10.24422 -10.22541
 Alpha  occ. eigenvalues --  -10.20128 -10.20034 -10.18951 -10.18756  -1.02958
 Alpha  occ. eigenvalues --   -1.02275  -0.84659  -0.77361  -0.73428  -0.70492
 Alpha  occ. eigenvalues --   -0.62483  -0.58082  -0.51978  -0.50523  -0.47180
 Alpha  occ. eigenvalues --   -0.46701  -0.44709  -0.44060  -0.42508  -0.41015
 Alpha  occ. eigenvalues --   -0.40383  -0.39787  -0.37027  -0.35764  -0.35510
 Alpha  occ. eigenvalues --   -0.32794  -0.27722  -0.26557  -0.23810
 Alpha virt. eigenvalues --   -0.05119   0.05128   0.07992   0.09955   0.11042
 Alpha virt. eigenvalues --    0.12398   0.14275   0.15008   0.15663   0.16058
 Alpha virt. eigenvalues --    0.16901   0.17815   0.19288   0.20815   0.22254

 Mulliken charges:
               1
     1  C   -0.478663
     2  C    0.309439
     3  C   -0.254429
     4  C    0.363834
     5  O   -0.333487
     6  C   -0.329362
     7  C    0.094880
     8  O   -0.436241
     9  C   -0.313062
    10  H    0.137554
    11  H    0.133932
    12  H    0.139256
    13  H    0.098943
    14  H    0.130437
    15  H    0.121758
    16  H    0.092817
    17  H    0.284110
    18  H    0.118176
    19  H    0.120110
 Sum of Mulliken charges =   0.00000

 Dipole moment (field-independent basis, Debye):
    X=             -3.5242    Y=              0.9726    Z=             -1.2696  Tot=              3.8702
 Quadrupole moment (field-independent basis, Debye-Ang):
   XX=            -55.1714   YY=            -60.2486   ZZ=            -51.0859
   XY=              5.0234   XZ=             -1.9016   YZ=             -2.8916

  Exact polarizability:  98.565  -7.088  80.582   0.480  -6.866  60.766
 Approx polarizability: 148.139 -26.461 123.870   6.921 -11.612  96.276

                      1                      2                      3
                      A                      A                      A
 Frequencies --     83.9398               128.9133               151.5782
 Red. masses --      3.6649                 4.2739                 1.7840
 Frc consts  --      0.0152                 0.0418                 0.0242
 IR Inten    --      1.9295                 2.8463                 1.3654

                      4                      5                      6
                      A                      A                      A
 Frequencies --    204.0687               294.7977               326.7357
 Red. masses --      1.5236                 2.8671                 1.1920
 Frc consts  --      0.0374                 0.1468                 0.0750
 IR Inten    --      0.8414                 1.6408                40.8822

                      7                      8                      9
                      A                      A                      A
 Frequencies --    356.7058               369.3999               452.2348
 Red. masses --      1.9863                 2.4410                 3.1508
 Frc consts  --      0.1489                 0.1963                 0.3797
 IR Inten    --      0.3152                25.4609                10.4768

                     10                     11                     12
                      A                      A                      A
 Frequencies --    488.5768               507.6703               531.5472
 Red. masses --      3.8324                 3.6223                 4.3145
 Frc consts  --      0.5390                 0.5500                 0.7182
 IR Inten    --      5.7375                 5.9637                 1.7412

                     13                     14                     15
                      A                      A                      A
 Frequencies --    596.1651               682.8959               826.4076
 Red. masses --      2.5643                 4.7107                 2.1185
 Frc consts  --      0.5370                 1.2943                 0.8524
 IR Inten    --      0.9300                 2.8886                 0.4235

                     16                     17                     18
                      A                      A                      A
 Frequencies --    841.4396               862.7888               921.4324
 Red. masses --      3.0162                 1.9342                 2.2439
 Frc consts  --      1.2582                 0.8483                 1.1225
 IR Inten    --      7.3116                 2.6733                 7.2635

                     19                     20                     21
                      A                      A                      A
 Frequencies --    932.5548               950.8631              1028.7776
 Red. masses --      1.7156                 2.5652                 1.6605
 Frc consts  --      0.8791                 1.3665                 1.0355
 IR Inten    --      3.2565                24.5086                 5.7726

                     22                     23                     24
                      A                      A                      A
 Frequencies --   1034.8334              1065.7567              1087.1818
 Red. masses --      1.4220                 1.9853                 2.0233
 Frc consts  --      0.8972                 1.3286                 1.4090
 IR Inten    --      3.5652                24.1185                52.3262

                     25                     26                     27
                      A                      A                      A
 Frequencies --   1157.5273              1174.5606              1204.5183
 Red. masses --      2.6624                 1.2465                 1.1752
 Frc consts  --      2.1018                 1.0132                 1.0046
 IR Inten    --      1.0010                26.2097                43.6225

                     28                     29                     30
                      A                      A                      A
 Frequencies --   1251.3866              1277.7676              1311.2051
 Red. masses --      2.0613                 1.8520                 1.5073
 Frc consts  --      1.9019                 1.7815                 1.5268
 IR Inten    --     51.5788                12.1800                 2.1088

                     31                     32                     33
                      A                      A                      A
 Frequencies --   1333.8439              1364.9861              1392.9470
 Red. masses --      1.7364                 1.8431                 1.6440
 Frc consts  --      1.8201                 2.0233                 1.8795
 IR Inten    --     14.0466                38.2438                 2.9419

                     34                     35                     36
                      A                      A                      A
 Frequencies --   1410.2187              1430.3533              1443.7230
 Red. masses --      1.2980                 1.1786                 1.1021
 Frc consts  --      1.5209                 1.4207                 1.3534
 IR Inten    --      7.0696                41.9511                12.3938

                     37                     38                     39
                      A                      A                      A
 Frequencies --   1460.3760              1477.2871              1481.0719
 Red. masses --      1.1045                 1.0469                 1.0721
 Frc consts  --      1.3878                 1.3461                 1.3856
 IR Inten    --     16.7517                 7.5104                11.9196

                     40                     41                     42
                      A                      A                      A
 Frequencies --   1684.4233              1771.9924              3004.5261
 Red. masses --      6.6936                11.5115                 1.0672
 Frc consts  --     11.1895                21.2964                 5.6758
 IR Inten    --     58.7963               239.9241                11.6885

                     43                     44                     45
                      A                      A                      A
 Frequencies --   3021.3191              3021.7437              3062.9750
 Red. masses --      1.0573                 1.0494                 1.0906
 Frc consts  --      5.6863                 5.6455                 6.0283
 IR Inten    --     14.8920                11.7449                22.6595

                     46                     47                     48
                      A                      A                      A
 Frequencies --   3065.9425              3070.5066              3111.7259
 Red. masses --      1.0891                 1.0972                 1.0936
 Frc consts  --      6.0321                 6.0946                 6.2391
 IR Inten    --     27.7026                15.5113                 9.3629

                     49                     50                     51
                      A                      A                      A
 Frequencies --   3124.1956              3171.9352              3796.5158
 Red. masses --      1.0999                 1.0907                 1.0656
 Frc consts  --      6.3251                 6.4657                 9.0494
 IR Inten    --     14.6673                 8.5693                12.4876

 - Thermochemistry -
 -------------------
 Temperature   298.150 Kelvin.  Pressure   1.00000 Atm.
 Atom     1 has atomic number  6 and mass  12.00000

 Molecular mass:   126.06808 amu.
 Principal axes and moments of inertia in atomic units:
                           1         2         3
     Eigenvalues --   873.813531142.803271714.67097
           X            0.99420   0.10676  -0.01267
           Y           -0.10709   0.99382  -0.02920
           Z            0.00947   0.03039   0.99949
 This molecule is an asymmetric top.
 Rotational symmetry number  1.
 Warning -- assumption of classical behavior for rotation
           may cause significant error
 Rotational temperatures (Kelvin)      0.09912     0.07579     0.05051
 Rotational constants (GHZ):           2.06536     1.57922     1.05253
 Zero-point vibrational energy     417537.6 (Joules/Mol)
                                   99.79389 (Kcal/Mol)
 Warning -- explicit consideration of  13 degrees of freedom as
           vibrations may cause significant error
 Vibrational temperatures:    120.77   185.48   218.09   293.61   424.15
          (Kelvin)            470.10   513.22   531.48   650.66   702.95
                              730.42   764.78   857.75   982.53  1189.01
                             1210.64  1241.36  1325.73  1341.74  1368.08
                             1480.18  1488.89  1533.38  1564.21  1665.42
                             1689.93  1733.03  1800.46  1838.42  1886.53
                             1919.10  1963.91  2004.14  2028.99  2057.96
                             2077.19  2101.15  2125.48  2130.93  2423.51
                             2549.50  4322.84  4347.00  4347.61  4406.93
                             4411.20  4417.77  4477.07  4495.02  4563.70
                             5462.33

 Zero-point correction=                           0.159032 (Hartree/Particle)
 Thermal correction to Energy=                    0.167831
 Thermal correction to Enthalpy=                  0.168776
 Thermal correction to Gibbs Free Energy=         0.125613
 Sum of electronic and zero-point Energies=           -423.072631
 Sum of electronic and thermal Energies=              -423.063832
 Sum of electronic and thermal Enthalpies=            -423.062888
 Sum of electronic and thermal Free Energies=         -423.106051

                     E (Thermal)             CV                S
                      KCal/Mol        Cal/Mol-Kelvin    Cal/Mol-Kelvin
 Total                  105.316             33.426             90.844
 Electronic               0.000              0.000              0.000
 Translational            0.889              2.981             40.409
 Rotational               0.889              2.981             28.928
 Vibrational            103.538             27.464             21.508
 Vibration     1          0.601              1.960              3.797
 Vibration     2          0.611              1.924              2.962
 Vibration     3          0.619              1.901              2.652
 Vibration     4          0.640              1.834              2.096
 Vibration     5          0.689              1.683              1.446
 Vibration     6          0.710              1.622              1.276
 Vibration     7          0.732              1.561              1.136
 Vibration     8          0.742              1.535              1.082
 Vibration     9          0.811              1.356              0.789
 Vibration    10          0.844              1.275              0.687
 Vibration    11          0.863              1.233              0.639
 Vibration    12          0.887              1.180              0.584
 Vibration    13          0.954              1.040              0.456

 Normal termination of Gaussian 09 at Tue Jan 28 02:51:41 2020.
