 Gaussian 09, Revision D.01,
 Gaussian 09:  ES64L-G09RevD.01 24-Apr-2013

 -----------------------------
 # b3lyp 6-31G(2df,p) opt Freq
 -----------------------------

 -----
 titel
 -----
 Symbolic Z-matrix:
 Charge =  0 Multiplicity = 1

 SCF Done:  E(RB3LYP) =  -423.100083437     A.U. after   14 cycles
 SCF Done:  E(RB3LYP) =  -423.100083419     A.U. after    7 cycles
 SCF Done:  E(RB3LYP) =  -423.100083427     A.U. after    7 cycles
 Optimization completed.
    -- Stationary point found.
 Normal termination of Gaussian 09 at Tue Jan 28 13:36:18 2020.

 ----------------------------------------------------------------------
 #N Geom=AllCheck Guess=TCheck SCRF=Check GenChk RB3LYP/6-31G(2df,p) Fr
 eq
 ----------------------------------------------------------------------

 Structure from the checkpoint file:  "/scratch/puck/g09_3043aacd-63b2-4c90-99b4-918e41bf8abd/Gau-118488.chk"
 -----
 titel
 -----
 Charge =  0 Multiplicity = 1

                         Standard orientation:
 ---------------------------------------------------------------------
 Center     Atomic      Atomic             Coordinates (Angstroms)
 Number     Number       Type             X           Y           Z
 ---------------------------------------------------------------------
      1          6           0       -2.993618   -0.262512   -0.354465
      2          8           0       -1.687148    0.272336   -0.461015
      3          6           0       -0.692612   -0.674719   -0.279455
      4          6           0       -0.304620   -1.091250    1.117994
      5          6           0        0.613172   -0.176867    0.328253
      6          8           0        0.653634    1.130252    0.805621
      7          6           0        0.851512    2.106604   -0.211259
      8          6           0        1.848952   -0.700788   -0.202008
      9          6           0        2.881535   -1.123889   -0.651488
     10          1           0       -3.167887   -0.707589    0.635007
     11          1           0       -3.690231    0.565027   -0.504996
     12          1           0       -3.179200   -1.030579   -1.119878
     13          1           0       -0.615483   -1.421023   -1.071409
     14          1           0       -0.821831   -0.590615    1.928917
     15          1           0        0.012358   -2.109734    1.306828
     16          1           0        0.877009    3.074341    0.294157
     17          1           0        1.803740    1.949067   -0.734086
     18          1           0        0.029461    2.091853   -0.935175
     19          1           0        3.794247   -1.500922   -1.041653
 ---------------------------------------------------------------------

 SCF Done:  E(RB3LYP) =  -423.100083427     A.U. after    1 cycles

 The electronic state is 1-A.
 Alpha  occ. eigenvalues --  -19.15268 -19.14572 -10.26035 -10.24239 -10.22980
 Alpha  occ. eigenvalues --  -10.21481 -10.19154 -10.18293 -10.17659  -1.05558
 Alpha  occ. eigenvalues --   -1.03311  -0.85589  -0.74705  -0.70223  -0.68362
 Alpha  occ. eigenvalues --   -0.62376  -0.59103  -0.54187  -0.51400  -0.50572
 Alpha  occ. eigenvalues --   -0.47073  -0.46035  -0.44875  -0.42709  -0.42494
 Alpha  occ. eigenvalues --   -0.40476  -0.35839  -0.35354  -0.32334  -0.31379
 Alpha  occ. eigenvalues --   -0.28197  -0.26878  -0.25107  -0.23951
 Alpha virt. eigenvalues --    0.03459   0.04715   0.09283   0.11508   0.12602
 Alpha virt. eigenvalues --    0.13069   0.13481   0.14387   0.14822   0.16461
 Alpha virt. eigenvalues --    0.16748   0.17338   0.18019   0.19539   0.20380

 Mulliken charges:
               1
     1  C   -0.232159
     2  O   -0.238602
     3  C    0.054873
     4  C   -0.387488
     5  C    0.206880
     6  O   -0.264072
     7  C   -0.254609
     8  C    0.311467
     9  C   -0.481986
    10  H    0.113391
    11  H    0.131587
    12  H    0.109368
    13  H    0.099801
    14  H    0.136902
    15  H    0.126340
    16  H    0.124706
    17  H    0.117197
    18  H    0.129889
    19  H    0.196514
 Sum of Mulliken charges =   0.00000

 Dipole moment (field-independent basis, Debye):
    X=             -0.9668    Y=             -1.0157    Z=             -0.7659  Tot=              1.5978
 Quadrupole moment (field-independent basis, Debye-Ang):
   XX=            -46.5097   YY=            -50.3635   ZZ=            -54.1102
   XY=              0.2220   XZ=             -2.7225   YZ=             -0.6224

  Exact polarizability: 101.954  -6.276  74.749  -7.931   0.776  63.510
 Approx polarizability: 138.793 -13.164 104.342 -16.209   4.057  98.660

                      1                      2                      3
                      A                      A                      A
 Frequencies --     78.3608               120.1147               129.5700
 Red. masses --      3.0390                 2.7277                 3.3455
 Frc consts  --      0.0110                 0.0232                 0.0331
 IR Inten    --      2.1925                 4.3960                 0.2060

                      4                      5                      6
                      A                      A                      A
 Frequencies --    138.1914               171.9642               200.6048
 Red. masses --      2.3219                 1.2655                 1.3961
 Frc consts  --      0.0261                 0.0220                 0.0331
 IR Inten    --      1.0442                 0.0470                 0.4566

                      7                      8                      9
                      A                      A                      A
 Frequencies --    237.0105               239.7444               344.0318
 Red. masses --      2.8677                 2.5508                 3.6848
 Frc consts  --      0.0949                 0.0864                 0.2570
 IR Inten    --      3.4385                 4.1479                 3.8033

                     10                     11                     12
                      A                      A                      A
 Frequencies --    383.5364               433.7162               497.4678
 Red. masses --      3.8802                 5.9944                 2.4213
 Frc consts  --      0.3363                 0.6644                 0.3530
 IR Inten    --      7.3561                 2.0173                 2.6876

                     13                     14                     15
                      A                      A                      A
 Frequencies --    564.1928               582.4450               610.7943
 Red. masses --      4.8598                 1.3483                 3.5883
 Frc consts  --      0.9114                 0.2695                 0.7887
 IR Inten    --     14.3965                39.2255                 5.3103

                     16                     17                     18
                      A                      A                      A
 Frequencies --    678.9165               745.0456               828.7349
 Red. masses --      1.2616                 3.5934                 2.2791
 Frc consts  --      0.3426                 1.1752                 0.9222
 IR Inten    --     33.5951                10.8745                 8.5483

                     19                     20                     21
                      A                      A                      A
 Frequencies --    892.9920               914.4464              1009.1462
 Red. masses --      1.6114                 3.9317                 3.3531
 Frc consts  --      0.7571                 1.9371                 2.0119
 IR Inten    --      5.0258                 8.2615                28.5431

                     22                     23                     24
                      A                      A                      A
 Frequencies --   1028.6761              1058.7481              1095.8464
 Red. masses --      3.4009                 1.4758                 3.6759
 Frc consts  --      2.1203                 0.9747                 2.6008
 IR Inten    --     32.0873                14.2709                45.9390

                     25                     26                     27
                      A                      A                      A
 Frequencies --   1113.6071              1174.8519              1181.7761
 Red. masses --      1.5649                 2.2502                 1.3592
 Frc consts  --      1.1434                 1.8299                 1.1184
 IR Inten    --     29.1638                98.9273                12.8192

                     28                     29                     30
                      A                      A                      A
 Frequencies --   1183.9935              1206.9880              1238.4255
 Red. masses --      1.3177                 1.6307                 1.9489
 Frc consts  --      1.0883                 1.3997                 1.7611
 IR Inten    --      3.0255                24.5204                43.8980

                     31                     32                     33
                      A                      A                      A
 Frequencies --   1263.9904              1281.4054              1390.8265
 Red. masses --      2.5991                 2.3201                 1.4032
 Frc consts  --      2.4466                 2.2446                 1.5993
 IR Inten    --     36.7116                72.2051                28.0833

                     34                     35                     36
                      A                      A                      A
 Frequencies --   1453.7947              1476.5554              1484.1794
 Red. masses --      1.3064                 1.1810                 1.1229
 Frc consts  --      1.6268                 1.5170                 1.4574
 IR Inten    --     17.3524                 1.3275                 3.3594

                     37                     38                     39
                      A                      A                      A
 Frequencies --   1486.8619              1489.5429              1507.1888
 Red. masses --      1.1338                 1.0727                 1.0595
 Frc consts  --      1.4769                 1.4022                 1.4181
 IR Inten    --      6.1169                 1.2220                 8.6349

                     40                     41                     42
                      A                      A                      A
 Frequencies --   1510.0123              2229.0612              2988.0921
 Red. masses --      1.0586                 5.9973                 1.0362
 Frc consts  --      1.4222                17.5570                 5.4509
 IR Inten    --      2.6002                 4.2224                64.8926

                     43                     44                     45
                      A                      A                      A
 Frequencies --   3014.4808              3041.9174              3084.3986
 Red. masses --      1.0344                 1.1026                 1.1011
 Frc consts  --      5.5383                 6.0112                 6.1718
 IR Inten    --     44.0675                46.5599                25.9893

                     46                     47                     48
                      A                      A                      A
 Frequencies --   3093.7521              3123.6259              3128.7238
 Red. masses --      1.0873                 1.0981                 1.1024
 Frc consts  --      6.1316                 6.3126                 6.3582
 IR Inten    --     23.5440                25.4460                24.2248

                     49                     50                     51
                      A                      A                      A
 Frequencies --   3142.1680              3241.6180              3501.7468
 Red. masses --      1.0536                 1.1185                 1.1604
 Frc consts  --      6.1289                 6.9247                 8.3838
 IR Inten    --      2.7591                 2.9404                75.8335

 - Thermochemistry -
 -------------------
 Temperature   298.150 Kelvin.  Pressure   1.00000 Atm.
 Atom     1 has atomic number  6 and mass  12.00000

 Molecular mass:   126.06808 amu.
 Principal axes and moments of inertia in atomic units:
                           1         2         3
     Eigenvalues --   697.520441513.869041856.57966
           X            0.99971   0.02282  -0.00810
           Y           -0.02306   0.99928  -0.03012
           Z            0.00740   0.03030   0.99951
 This molecule is an asymmetric top.
 Rotational symmetry number  1.
 Warning -- assumption of classical behavior for rotation
           may cause significant error
 Rotational temperatures (Kelvin)      0.12417     0.05721     0.04665
 Rotational constants (GHZ):           2.58737     1.19214     0.97208
 Zero-point vibrational energy     406837.3 (Joules/Mol)
                                   97.23644 (Kcal/Mol)
 Warning -- explicit consideration of  15 degrees of freedom as
           vibrations may cause significant error
 Vibrational temperatures:    112.74   172.82   186.42   198.83   247.42
          (Kelvin)            288.63   341.00   344.94   494.98   551.82
                              624.02   715.74   811.75   838.01   878.80
                              976.81  1071.95  1192.36  1284.81  1315.68
                             1451.93  1480.03  1523.30  1576.68  1602.23
                             1690.35  1700.31  1703.50  1736.58  1781.82
                             1818.60  1843.65  2001.09  2091.68  2124.43
                             2135.40  2139.26  2143.12  2168.51  2172.57
                             3207.12  4299.19  4337.16  4376.64  4437.76
                             4451.21  4494.20  4501.53  4520.87  4663.96
                             5038.23

 Zero-point correction=                           0.154956 (Hartree/Particle)
 Thermal correction to Energy=                    0.165176
 Thermal correction to Enthalpy=                  0.166120
 Thermal correction to Gibbs Free Energy=         0.119838
 Sum of electronic and zero-point Energies=           -422.945127
 Sum of electronic and thermal Energies=              -422.934908
 Sum of electronic and thermal Enthalpies=            -422.933963
 Sum of electronic and thermal Free Energies=         -422.980245

                     E (Thermal)             CV                S
                      KCal/Mol        Cal/Mol-Kelvin    Cal/Mol-Kelvin
 Total                  103.649             36.728             97.408
 Electronic               0.000              0.000              0.000
 Translational            0.889              2.981             40.409
 Rotational               0.889              2.981             29.062
 Vibrational            101.872             30.766             27.937
 Vibration     1          0.600              1.964              3.932
 Vibration     2          0.609              1.932              3.099
 Vibration     3          0.612              1.924              2.952
 Vibration     4          0.614              1.915              2.829
 Vibration     5          0.626              1.877              2.414
 Vibration     6          0.638              1.839              2.128
 Vibration     7          0.656              1.784              1.825
 Vibration     8          0.657              1.780              1.805
 Vibration     9          0.723              1.587              1.193
 Vibration    10          0.753              1.505              1.025
 Vibration    11          0.794              1.397              0.847
 Vibration    12          0.853              1.256              0.664
 Vibration    13          0.920              1.109              0.516
 Vibration    14          0.939              1.069              0.481
 Vibration    15          0.970              1.009              0.431

 Optimization completed.
    -- Stationary point found.
 Normal termination of Gaussian 09 at Tue Jan 28 14:15:22 2020.
