 Gaussian 09, Revision D.01,
 Gaussian 09:  ES64L-G09RevD.01 24-Apr-2013

 -----------------------------
 # b3lyp 6-31G(2df,p) opt Freq
 -----------------------------

 -----
 titel
 -----
 Symbolic Z-matrix:
 Charge =  0 Multiplicity = 1

 SCF Done:  E(RB3LYP) =  -423.092480241     A.U. after   14 cycles
 Optimization completed.
    -- Stationary point found.
 Normal termination of Gaussian 09 at Tue Jan 28 09:51:09 2020.

 ----------------------------------------------------------------------
 #N Geom=AllCheck Guess=TCheck SCRF=Check GenChk RB3LYP/6-31G(2df,p) Fr
 eq
 ----------------------------------------------------------------------

 Structure from the checkpoint file:  "/scratch/puck/g09_11dfc78b-4c56-403c-8544-11eef7a04d0d/Gau-96548.chk"
 -----
 titel
 -----
 Charge =  0 Multiplicity = 1

                         Standard orientation:
 ---------------------------------------------------------------------
 Center     Atomic      Atomic             Coordinates (Angstroms)
 Number     Number       Type             X           Y           Z
 ---------------------------------------------------------------------
      1          6           0       -2.828002   -0.148715   -0.000924
      2          6           0       -1.365476    0.189160   -0.000341
      3          6           0       -0.652498    1.567021   -0.000479
      4          6           0        0.532254    0.575809    0.000510
      5          6           0        2.019797    0.772529    0.001093
      6          8           0        2.712432   -0.466544   -0.002232
      7          6           0       -0.248662   -0.441991    0.893197
      8          8           0       -0.005317   -1.583082    0.001125
      9          6           0       -0.247684   -0.442834   -0.892100
     10          1           0       -3.328730    0.260454   -0.884809
     11          1           0       -2.962929   -1.235178   -0.002942
     12          1           0       -3.328664    0.257073    0.884563
     13          1           0       -0.776206    2.179451   -0.898724
     14          1           0       -0.777222    2.180256    0.897073
     15          1           0        2.316458    1.361414   -0.880924
     16          1           0        2.316095    1.357651    0.885843
     17          1           0        2.053121   -1.173631    0.001759
     18          1           0       -0.214688   -0.607337    1.970269
     19          1           0       -0.212526   -0.609018   -1.968996
 ---------------------------------------------------------------------

 SCF Done:  E(RB3LYP) =  -423.092480241     A.U. after    1 cycles

 The electronic state is 1-A.
 Alpha  occ. eigenvalues --  -19.14496 -19.11919 -10.25144 -10.25140 -10.22679
 Alpha  occ. eigenvalues --  -10.21611 -10.21145 -10.19769 -10.18715  -1.07045
 Alpha  occ. eigenvalues --   -1.00149  -0.87852  -0.74683  -0.69793  -0.66393
 Alpha  occ. eigenvalues --   -0.66095  -0.58912  -0.53319  -0.49464  -0.47634
 Alpha  occ. eigenvalues --   -0.46604  -0.45316  -0.44353  -0.42675  -0.41171
 Alpha  occ. eigenvalues --   -0.38780  -0.38655  -0.37072  -0.31269  -0.31072
 Alpha  occ. eigenvalues --   -0.30461  -0.30165  -0.25670  -0.24351
 Alpha virt. eigenvalues --    0.06443   0.10218   0.10700   0.11169   0.11996
 Alpha virt. eigenvalues --    0.12067   0.13758   0.13964   0.15312   0.16173
 Alpha virt. eigenvalues --    0.16680   0.17246   0.17564   0.17620   0.20986

 Mulliken charges:
               1
     1  C   -0.523312
     2  C    0.301451
     3  C   -0.379035
     4  C    0.271240
     5  C   -0.166437
     6  O   -0.441742
     7  C    0.001378
     8  O   -0.338965
     9  C    0.001476
    10  H    0.124422
    11  H    0.137657
    12  H    0.124417
    13  H    0.102228
    14  H    0.102230
    15  H    0.094910
    16  H    0.094665
    17  H    0.297728
    18  H    0.097820
    19  H    0.097870
 Sum of Mulliken charges =   0.00000

 Dipole moment (field-independent basis, Debye):
    X=             -2.6123    Y=              1.8445    Z=              0.0059  Tot=              3.1979
 Quadrupole moment (field-independent basis, Debye-Ang):
   XX=            -59.9477   YY=            -55.2687   ZZ=            -49.5418
   XY=              1.6475   XZ=              0.0175   YZ=             -0.0046

  Exact polarizability:  85.187   0.923  72.892   0.002   0.002  68.112
 Approx polarizability: 109.980  -1.214 113.515  -0.013   0.004 108.362

                      1                      2                      3
                      A                      A                      A
 Frequencies --     37.7007               166.9129               202.7115
 Red. masses --      4.4421                 4.4692                 2.2981
 Frc consts  --      0.0037                 0.0734                 0.0556
 IR Inten    --      8.2451                 1.7348                 2.1836

                      4                      5                      6
                      A                      A                      A
 Frequencies --    222.0255               251.6953               364.8376
 Red. masses --      1.0299                 3.6172                 2.1741
 Frc consts  --      0.0299                 0.1350                 0.1705
 IR Inten    --      0.0082                 5.6101                 0.0266

                      7                      8                      9
                      A                      A                      A
 Frequencies --    377.3892               403.2708               426.0529
 Red. masses --      1.3512                 5.6525                 1.3963
 Frc consts  --      0.1134                 0.5416                 0.1493
 IR Inten    --     18.3200                 2.7338                23.4646

                     10                     11                     12
                      A                      A                      A
 Frequencies --    539.5558               622.2409               723.2310
 Red. masses --      3.6208                 3.7163                 3.2013
 Frc consts  --      0.6210                 0.8478                 0.9866
 IR Inten    --      3.3904                 0.7689                 0.6166

                     13                     14                     15
                      A                      A                      A
 Frequencies --    732.2620               780.7257               821.7883
 Red. masses --      2.6072                 3.9557                 5.5947
 Frc consts  --      0.8237                 1.4206                 2.2261
 IR Inten    --      6.1626                 1.9653                14.7259

                     16                     17                     18
                      A                      A                      A
 Frequencies --    865.8228               873.8353               899.1790
 Red. masses --      2.4949                 2.5221                 2.8384
 Frc consts  --      1.1019                 1.1347                 1.3521
 IR Inten    --     12.2199                 5.4104                26.1665

                     19                     20                     21
                      A                      A                      A
 Frequencies --    998.3320              1016.6480              1043.2490
 Red. masses --      1.2718                 1.4506                 3.3746
 Frc consts  --      0.7468                 0.8834                 2.1640
 IR Inten    --      0.7299                 2.1354                53.9136

                     22                     23                     24
                      A                      A                      A
 Frequencies --   1050.1832              1050.6913              1080.5535
 Red. masses --      3.4647                 1.2579                 2.6767
 Frc consts  --      2.2513                 0.8181                 1.8414
 IR Inten    --      3.1927                 0.2664                30.0771

                     25                     26                     27
                      A                      A                      A
 Frequencies --   1106.8126              1148.5071              1158.2909
 Red. masses --      3.1422                 1.6362                 1.5013
 Frc consts  --      2.2679                 1.2716                 1.1867
 IR Inten    --      9.4392                 1.9792                 3.6844

                     28                     29                     30
                      A                      A                      A
 Frequencies --   1164.3197              1177.1989              1214.5642
 Red. masses --      1.4458                 1.7887                 3.2100
 Frc consts  --      1.1548                 1.4604                 2.7900
 IR Inten    --      1.2518                 0.2958                 8.0012

                     31                     32                     33
                      A                      A                      A
 Frequencies --   1265.4248              1267.9818              1325.0848
 Red. masses --      1.1414                 1.6554                 2.7965
 Frc consts  --      1.0769                 1.5681                 2.8930
 IR Inten    --      1.8755                16.9253                17.0297

                     34                     35                     36
                      A                      A                      A
 Frequencies --   1353.4171              1387.8809              1413.7998
 Red. masses --      1.4505                 1.8011                 1.7731
 Frc consts  --      1.5654                 2.0440                 2.0881
 IR Inten    --     19.5576                 4.8554                 4.0000

                     37                     38                     39
                      A                      A                      A
 Frequencies --   1476.5954              1488.5070              1491.2501
 Red. masses --      1.2955                 1.0466                 1.0533
 Frc consts  --      1.6642                 1.3663                 1.3800
 IR Inten    --    100.4208                 5.1946                 6.8677

                     40                     41                     42
                      A                      A                      A
 Frequencies --   1519.6020              1522.9467              2977.0044
 Red. masses --      1.1694                 1.1486                 1.0565
 Frc consts  --      1.5910                 1.5696                 5.5166
 IR Inten    --      1.2730                 0.5616                65.8624

                     43                     44                     45
                      A                      A                      A
 Frequencies --   2997.2662              3031.5720              3046.5001
 Red. masses --      1.1052                 1.0349                 1.0554
 Frc consts  --      5.8498                 5.6040                 5.7712
 IR Inten    --     44.2165                24.9894                43.9019

                     46                     47                     48
                      A                      A                      A
 Frequencies --   3097.4257              3102.2591              3106.1240
 Red. masses --      1.1012                 1.1094                 1.1011
 Frc consts  --      6.2249                 6.2906                 6.2589
 IR Inten    --     11.3730                31.1816                12.5926

                     49                     50                     51
                      A                      A                      A
 Frequencies --   3117.8223              3124.0992              3735.2265
 Red. masses --      1.0897                 1.0951                 1.0676
 Frc consts  --      6.2410                 6.2971                 8.7757
 IR Inten    --     61.8825                 0.8493                96.6234

 - Thermochemistry -
 -------------------
 Temperature   298.150 Kelvin.  Pressure   1.00000 Atm.
 Atom     1 has atomic number  6 and mass  12.00000

 Molecular mass:   126.06808 amu.
 Principal axes and moments of inertia in atomic units:
                           1         2         3
     Eigenvalues --   493.684911335.854091602.99711
           X            0.99994   0.01069   0.00006
           Y           -0.01069   0.99994   0.00002
           Z           -0.00006  -0.00002   1.00000
 This molecule is an asymmetric top.
 Rotational symmetry number  1.
 Warning -- assumption of classical behavior for rotation
           may cause significant error
 Rotational temperatures (Kelvin)      0.17544     0.06484     0.05403
 Rotational constants (GHZ):           3.65565     1.35100     1.12585
 Zero-point vibrational energy     414915.0 (Joules/Mol)
                                   99.16707 (Kcal/Mol)
 Warning -- explicit consideration of  10 degrees of freedom as
           vibrations may cause significant error
 Vibrational temperatures:     54.24   240.15   291.66   319.44   362.13
          (Kelvin)            524.92   542.98   580.22   612.99   776.30
                              895.26  1040.57  1053.56  1123.29  1182.37
                             1245.72  1257.25  1293.72  1436.38  1462.73
                             1501.00  1510.98  1511.71  1554.67  1592.45
                             1652.44  1666.52  1675.19  1693.72  1747.48
                             1820.66  1824.34  1906.50  1947.26  1996.85
                             2034.14  2124.49  2141.63  2145.57  2186.37
                             2191.18  4283.24  4312.39  4361.75  4383.23
                             4456.50  4463.45  4469.01  4485.85  4494.88
                             5374.15

 Zero-point correction=                           0.158033 (Hartree/Particle)
 Thermal correction to Energy=                    0.166449
 Thermal correction to Enthalpy=                  0.167394
 Thermal correction to Gibbs Free Energy=         0.124716
 Sum of electronic and zero-point Energies=           -422.934447
 Sum of electronic and thermal Energies=              -422.926031
 Sum of electronic and thermal Enthalpies=            -422.925087
 Sum of electronic and thermal Free Energies=         -422.967764

                     E (Thermal)             CV                S
                      KCal/Mol        Cal/Mol-Kelvin    Cal/Mol-Kelvin
 Total                  104.449             32.347             89.822
 Electronic               0.000              0.000              0.000
 Translational            0.889              2.981             40.409
 Rotational               0.889              2.981             28.449
 Vibrational            102.671             26.385             20.965
 Vibration     1          0.594              1.982              5.376
 Vibration     2          0.624              1.883              2.470
 Vibration     3          0.639              1.836              2.108
 Vibration     4          0.648              1.808              1.943
 Vibration     5          0.664              1.760              1.719
 Vibration     6          0.738              1.545              1.101
 Vibration     7          0.748              1.518              1.050
 Vibration     8          0.769              1.463              0.951
 Vibration     9          0.788              1.414              0.872
 Vibration    10          0.895              1.163              0.566

 Normal termination of Gaussian 09 at Tue Jan 28 10:35:44 2020.
