 Gaussian 09, Revision D.01,
 Gaussian 09:  ES64L-G09RevD.01 24-Apr-2013

 -----------------------------
 # b3lyp 6-31G(2df,p) opt Freq
 -----------------------------

 -----
 titel
 -----
 Symbolic Z-matrix:
 Charge =  0 Multiplicity = 1

 SCF Done:  E(RB3LYP) =  -423.175265742     A.U. after   12 cycles
 Optimization completed.
    -- Stationary point found.
 Normal termination of Gaussian 09 at Mon Jan 27 11:27:05 2020.

 ----------------------------------------------------------------------
 #N Geom=AllCheck Guess=TCheck SCRF=Check GenChk RB3LYP/6-31G(2df,p) Fr
 eq
 ----------------------------------------------------------------------

 Structure from the checkpoint file:  "/scratch/puck/g09_b8f49188-710a-4357-a70a-06fad607ed38/Gau-60846.chk"
 -----
 titel
 -----
 Charge =  0 Multiplicity = 1

                         Standard orientation:
 ---------------------------------------------------------------------
 Center     Atomic      Atomic             Coordinates (Angstroms)
 Number     Number       Type             X           Y           Z
 ---------------------------------------------------------------------
      1          6           0       -1.281677   -1.420091    0.673355
      2          6           0       -1.334615   -0.564646   -0.586673
      3          8           0       -1.852484    0.733410   -0.446791
      4          6           0       -0.758268    1.598739   -0.116301
      5          6           0        0.228787    0.754428    0.718083
      6          6           0        1.729282    0.897456    0.379063
      7          6           0        1.977392   -0.271947   -0.595399
      8          8           0        1.100761   -1.312588   -0.162224
      9          6           0       -0.073603   -0.669938    0.223460
     10          1           0       -1.817407   -1.080885    1.554237
     11          1           0       -1.271401   -2.494363    0.516647
     12          1           0       -1.473626   -1.032159   -1.556388
     13          1           0       -0.270333    1.958506   -1.036638
     14          1           0       -1.167068    2.461287    0.416505
     15          1           0        0.041297    0.879800    1.787531
     16          1           0        1.981271    1.866356   -0.060927
     17          1           0        2.335070    0.769152    1.280015
     18          1           0        1.734753    0.023082   -1.627937
     19          1           0        2.997435   -0.661351   -0.574453
 ---------------------------------------------------------------------

 SCF Done:  E(RB3LYP) =  -423.175265742     A.U. after    1 cycles

 The electronic state is 1-A.
 Alpha  occ. eigenvalues --  -19.14749 -19.13922 -10.23507 -10.23224 -10.22922
 Alpha  occ. eigenvalues --  -10.22506 -10.19507 -10.19173 -10.18499  -1.05428
 Alpha  occ. eigenvalues --   -1.03269  -0.83935  -0.79629  -0.72254  -0.65127
 Alpha  occ. eigenvalues --   -0.60964  -0.58284  -0.56021  -0.50990  -0.48768
 Alpha  occ. eigenvalues --   -0.47650  -0.45560  -0.44872  -0.42216  -0.40972
 Alpha  occ. eigenvalues --   -0.39077  -0.36237  -0.35865  -0.33593  -0.32616
 Alpha  occ. eigenvalues --   -0.31772  -0.30255  -0.25010  -0.22775
 Alpha virt. eigenvalues --    0.07964   0.09209   0.09906   0.11535   0.12461
 Alpha virt. eigenvalues --    0.14275   0.14608   0.15604   0.16654   0.17876
 Alpha virt. eigenvalues --    0.18516   0.19170   0.19671   0.20971   0.22076

 Mulliken charges:
               1
     1  C   -0.389814
     2  C    0.003038
     3  O   -0.261707
     4  C   -0.083272
     5  C   -0.114506
     6  C   -0.245215
     7  C   -0.102108
     8  O   -0.286144
     9  C    0.433003
    10  H    0.117531
    11  H    0.122657
    12  H    0.100958
    13  H    0.087296
    14  H    0.109408
    15  H    0.082213
    16  H    0.105149
    17  H    0.113009
    18  H    0.096333
    19  H    0.112173
 Sum of Mulliken charges =   0.00000

 Dipole moment (field-independent basis, Debye):
    X=              1.4578    Y=              1.0102    Z=              0.3130  Tot=              1.8010
 Quadrupole moment (field-independent basis, Debye-Ang):
   XX=            -55.2319   YY=            -53.0961   ZZ=            -51.5555
   XY=              3.8646   XZ=             -1.6377   YZ=              0.9242

  Exact polarizability:  79.520   4.449  76.209  -2.359  -0.555  66.398
 Approx polarizability: 110.006   2.855 109.301  -1.469  -2.183 101.326

                      1                      2                      3
                      A                      A                      A
 Frequencies --    135.4173               182.1288               226.5267
 Red. masses --      2.6081                 2.5735                 2.7058
 Frc consts  --      0.0282                 0.0503                 0.0818
 IR Inten    --      0.2005                 1.0999                 5.0298

                      4                      5                      6
                      A                      A                      A
 Frequencies --    352.8623               400.0483               428.6239
 Red. masses --      2.2171                 3.5043                 2.3087
 Frc consts  --      0.1626                 0.3304                 0.2499
 IR Inten    --      1.3702                 7.4265                 0.5634

                      7                      8                      9
                      A                      A                      A
 Frequencies --    547.6965               586.6926               608.9295
 Red. masses --      3.7601                 4.0273                 3.4594
 Frc consts  --      0.6646                 0.8167                 0.7558
 IR Inten    --      1.5863                 4.9448                 2.6143

                     10                     11                     12
                      A                      A                      A
 Frequencies --    658.3993               800.2013               825.8058
 Red. masses --      2.7300                 2.7648                 2.2749
 Frc consts  --      0.6972                 1.0431                 0.9140
 IR Inten    --      2.3134                13.2408                 2.1210

                     13                     14                     15
                      A                      A                      A
 Frequencies --    847.4406               878.6553               918.2118
 Red. masses --      2.1975                 1.7518                 2.4504
 Frc consts  --      0.9298                 0.7968                 1.2173
 IR Inten    --     12.1737                 4.1294                 6.1969

                     16                     17                     18
                      A                      A                      A
 Frequencies --    948.7194               963.4999               987.9248
 Red. masses --      2.0325                 2.5227                 2.3606
 Frc consts  --      1.0778                 1.3798                 1.3574
 IR Inten    --      8.9957                 1.7392                25.9395

                     19                     20                     21
                      A                      A                      A
 Frequencies --    995.7900              1025.8850              1046.0201
 Red. masses --      1.7387                 2.4170                 2.4792
 Frc consts  --      1.0158                 1.4987                 1.5983
 IR Inten    --      7.5920                20.5834                37.9169

                     22                     23                     24
                      A                      A                      A
 Frequencies --   1052.6632              1065.6917              1086.8285
 Red. masses --      2.1510                 2.1560                 2.1758
 Frc consts  --      1.4043                 1.4427                 1.5142
 IR Inten    --      4.7396                14.8151                14.2332

                     25                     26                     27
                      A                      A                      A
 Frequencies --   1131.9236              1141.9471              1205.4221
 Red. masses --      2.9388                 2.3757                 1.4517
 Frc consts  --      2.2185                 1.8253                 1.2428
 IR Inten    --     52.3948                14.7148                27.0714

                     28                     29                     30
                      A                      A                      A
 Frequencies --   1214.2907              1241.6913              1251.7006
 Red. masses --      1.5112                 1.3709                 1.5812
 Frc consts  --      1.3129                 1.2453                 1.4596
 IR Inten    --      3.1832                17.0217                38.0064

                     31                     32                     33
                      A                      A                      A
 Frequencies --   1270.0101              1285.7445              1333.6715
 Red. masses --      1.3387                 1.3672                 1.5094
 Frc consts  --      1.2722                 1.3317                 1.5818
 IR Inten    --      3.7741                 2.5289                 3.5830

                     34                     35                     36
                      A                      A                      A
 Frequencies --   1338.6697              1367.5181              1389.5507
 Red. masses --      1.3327                 1.5976                 1.3833
 Frc consts  --      1.4071                 1.7603                 1.5737
 IR Inten    --      7.1449                23.5752                 1.6659

                     37                     38                     39
                      A                      A                      A
 Frequencies --   1401.8170              1471.2315              1488.8961
 Red. masses --      1.5365                 1.5922                 1.0957
 Frc consts  --      1.7790                 2.0306                 1.4311
 IR Inten    --      4.2594                19.5182                 2.2139

                     40                     41                     42
                      A                      A                      A
 Frequencies --   1510.7960              1519.9854              2972.0773
 Red. masses --      1.1009                 1.1266                 1.0712
 Frc consts  --      1.4805                 1.5336                 5.5749
 IR Inten    --      0.2436                 3.7970                43.2874

                     43                     44                     45
                      A                      A                      A
 Frequencies --   2986.8953              3058.1302              3070.0089
 Red. masses --      1.0710                 1.0657                 1.0803
 Frc consts  --      5.6297                 5.8721                 5.9990
 IR Inten    --     67.2926                17.2201                18.1078

                     46                     47                     48
                      A                      A                      A
 Frequencies --   3094.9584              3102.2763              3113.1317
 Red. masses --      1.0937                 1.0971                 1.1017
 Frc consts  --      6.1725                 6.2208                 6.2907
 IR Inten    --     44.5843                26.3414                35.3936

                     49                     50                     51
                      A                      A                      A
 Frequencies --   3123.0150              3160.0161              3217.4243
 Red. masses --      1.0537                 1.0913                 1.1170
 Frc consts  --      6.0552                 6.4204                 6.8129
 IR Inten    --      9.3792                15.8244                 5.0474

 - Thermochemistry -
 -------------------
 Temperature   298.150 Kelvin.  Pressure   1.00000 Atm.
 Atom     1 has atomic number  6 and mass  12.00000

 Molecular mass:   126.06808 amu.
 Principal axes and moments of inertia in atomic units:
                           1         2         3
     Eigenvalues --   647.23209 988.105801347.19213
           X            0.99730   0.07194  -0.01500
           Y           -0.07190   0.99741   0.00323
           Z            0.01519  -0.00214   0.99988
 This molecule is an asymmetric top.
 Rotational symmetry number  1.
 Warning -- assumption of classical behavior for rotation
           may cause significant error
 Rotational temperatures (Kelvin)      0.13382     0.08766     0.06429
 Rotational constants (GHZ):           2.78840     1.82647     1.33963
 Zero-point vibrational energy     424874.5 (Joules/Mol)
                                  101.54743 (Kcal/Mol)
 Warning -- explicit consideration of   9 degrees of freedom as
           vibrations may cause significant error
 Vibrational temperatures:    194.84   262.04   325.92   507.69   575.58
          (Kelvin)            616.69   788.01   844.12   876.11   947.29
                             1151.31  1188.15  1219.28  1264.19  1321.10
                             1364.99  1386.26  1421.40  1432.72  1476.02
                             1504.99  1514.55  1533.29  1563.70  1628.58
                             1643.01  1734.33  1747.09  1786.51  1800.92
                             1827.26  1849.90  1918.85  1926.04  1967.55
                             1999.25  2016.90  2116.77  2142.19  2173.70
                             2186.92  4276.15  4297.47  4399.96  4417.05
                             4452.95  4463.48  4479.10  4493.32  4546.55
                             4629.15

 Zero-point correction=                           0.161826 (Hartree/Particle)
 Thermal correction to Energy=                    0.168859
 Thermal correction to Enthalpy=                  0.169803
 Thermal correction to Gibbs Free Energy=         0.130540
 Sum of electronic and zero-point Energies=           -423.013440
 Sum of electronic and thermal Energies=              -423.006407
 Sum of electronic and thermal Enthalpies=            -423.005463
 Sum of electronic and thermal Free Energies=         -423.044726

                     E (Thermal)             CV                S
                      KCal/Mol        Cal/Mol-Kelvin    Cal/Mol-Kelvin
 Total                  105.960             28.661             82.636
 Electronic               0.000              0.000              0.000
 Translational            0.889              2.981             40.409
 Rotational               0.889              2.981             28.246
 Vibrational            104.183             22.700             13.982
 Vibration     1          0.613              1.918              2.868
 Vibration     2          0.630              1.864              2.306
 Vibration     3          0.650              1.801              1.906
 Vibration     4          0.729              1.569              1.153
 Vibration     5          0.766              1.470              0.962
 Vibration     6          0.790              1.408              0.863
 Vibration     7          0.903              1.145              0.549
 Vibration     8          0.944              1.060              0.473
 Vibration     9          0.968              1.013              0.435

 Optimization completed.
    -- Stationary point found.
 Normal termination of Gaussian 09 at Mon Jan 27 13:46:55 2020.
