 Gaussian 09, Revision D.01,
 Gaussian 09:  ES64L-G09RevD.01 24-Apr-2013

 -----------------------------
 # b3lyp 6-31G(2df,p) opt Freq
 -----------------------------

 -----
 titel
 -----
 Symbolic Z-matrix:
 Charge =  0 Multiplicity = 1

 SCF Done:  E(RB3LYP) =  -423.227917979     A.U. after   14 cycles
 Optimization completed.
    -- Stationary point found.
 Normal termination of Gaussian 09 at Mon Jan 27 13:08:36 2020.

 ----------------------------------------------------------------------
 #N Geom=AllCheck Guess=TCheck SCRF=Check GenChk RB3LYP/6-31G(2df,p) Fr
 eq
 ----------------------------------------------------------------------

 Structure from the checkpoint file:  "/scratch/puck/g09_b0d1ca68-a775-43dc-966f-2e17038c2927/Gau-28414.chk"
 -----
 titel
 -----
 Charge =  0 Multiplicity = 1

                         Standard orientation:
 ---------------------------------------------------------------------
 Center     Atomic      Atomic             Coordinates (Angstroms)
 Number     Number       Type             X           Y           Z
 ---------------------------------------------------------------------
      1          8           0        2.265022   -1.154734   -0.036652
      2          6           0        1.367645   -0.353949    0.017898
      3          6           0        1.304671    0.994424   -0.692879
      4          6           0        0.342112    1.826982    0.163853
      5          6           0       -0.678068    0.812981    0.747195
      6          6           0       -1.877818    0.491397   -0.180862
      7          8           0       -1.553406   -0.713491   -0.862593
      8          6           0       -0.875519   -1.521635    0.084252
      9          6           0        0.069663   -0.547582    0.819209
     10          1           0        2.298288    1.422959   -0.836041
     11          1           0        0.876229    0.803135   -1.686354
     12          1           0        0.894188    2.300807    0.983079
     13          1           0       -0.150096    2.627388   -0.395345
     14          1           0       -1.038956    1.149601    1.721122
     15          1           0       -2.793058    0.354845    0.417029
     16          1           0       -2.071549    1.260323   -0.934190
     17          1           0       -1.584683   -1.975854    0.795289
     18          1           0       -0.350949   -2.318367   -0.448440
     19          1           0        0.311535   -0.894741    1.825801
 ---------------------------------------------------------------------

 SCF Done:  E(RB3LYP) =  -423.227917979     A.U. after    1 cycles

 The electronic state is 1-A.
 Alpha  occ. eigenvalues --  -19.14561 -19.12945 -10.26566 -10.23539 -10.23248
 Alpha  occ. eigenvalues --  -10.19989 -10.19572 -10.19487 -10.19021  -1.04654
 Alpha  occ. eigenvalues --   -1.03848  -0.84105  -0.75541  -0.73854  -0.66534
 Alpha  occ. eigenvalues --   -0.61738  -0.57567  -0.53326  -0.51147  -0.48427
 Alpha  occ. eigenvalues --   -0.46429  -0.45349  -0.44661  -0.42518  -0.40902
 Alpha  occ. eigenvalues --   -0.38097  -0.37665  -0.35598  -0.34815  -0.34407
 Alpha  occ. eigenvalues --   -0.33914  -0.31967  -0.26056  -0.23812
 Alpha virt. eigenvalues --   -0.01880   0.07285   0.10318   0.11217   0.13128
 Alpha virt. eigenvalues --    0.13541   0.13908   0.15097   0.15687   0.16824
 Alpha virt. eigenvalues --    0.17596   0.18833   0.19461   0.20187   0.20944

 Mulliken charges:
               1
     1  O   -0.322466
     2  C    0.407241
     3  C   -0.315182
     4  C   -0.235333
     5  C   -0.045079
     6  C   -0.089395
     7  O   -0.244073
     8  C   -0.098247
     9  C   -0.136897
    10  H    0.123629
    11  H    0.142690
    12  H    0.107435
    13  H    0.105101
    14  H    0.079218
    15  H    0.091495
    16  H    0.108310
    17  H    0.091909
    18  H    0.129982
    19  H    0.099662
 Sum of Mulliken charges =   0.00000

 Dipole moment (field-independent basis, Debye):
    X=             -1.6768    Y=              2.1633    Z=              1.3248  Tot=              3.0408
 Quadrupole moment (field-independent basis, Debye-Ang):
   XX=            -59.6293   YY=            -52.5438   ZZ=            -52.4191
   XY=              3.2986   XZ=             -2.0645   YZ=             -1.6484

  Exact polarizability:  79.505  -2.094  78.275  -2.993  -2.798  63.648
 Approx polarizability: 112.465  -8.822 111.965  -1.994  -2.791 100.091

                      1                      2                      3
                      A                      A                      A
 Frequencies --     50.5190               139.2133               179.3334
 Red. masses --      4.0573                 2.2119                 5.1315
 Frc consts  --      0.0061                 0.0253                 0.0972
 IR Inten    --      4.0065                 2.4284                 2.1229

                      4                      5                      6
                      A                      A                      A
 Frequencies --    305.6610               370.6926               441.7830
 Red. masses --      2.3070                 1.9709                 3.8844
 Frc consts  --      0.1270                 0.1596                 0.4467
 IR Inten    --      6.9097                 0.3437                 5.1343

                      7                      8                      9
                      A                      A                      A
 Frequencies --    500.0193               536.0275               653.6535
 Red. masses --      3.0360                 2.7623                 4.5841
 Frc consts  --      0.4472                 0.4676                 1.1540
 IR Inten    --      3.7500                 0.9059                 7.0068

                     10                     11                     12
                      A                      A                      A
 Frequencies --    711.1008               727.2990               766.6199
 Red. masses --      3.9755                 3.0267                 2.9680
 Frc consts  --      1.1844                 0.9433                 1.0277
 IR Inten    --      3.1556                 2.2919                 1.5829

                     13                     14                     15
                      A                      A                      A
 Frequencies --    833.1799               841.8181               930.1105
 Red. masses --      3.7478                 1.9892                 1.9886
 Frc consts  --      1.5329                 0.8306                 1.0136
 IR Inten    --      7.3538                 2.3618                12.4189

                     16                     17                     18
                      A                      A                      A
 Frequencies --    941.6351               958.7625               972.3541
 Red. masses --      2.7610                 2.4459                 2.0340
 Frc consts  --      1.4424                 1.3247                 1.1331
 IR Inten    --     14.8999                 6.8646                 5.7488

                     19                     20                     21
                      A                      A                      A
 Frequencies --    989.0703              1005.2113              1050.0316
 Red. masses --      2.1819                 1.4580                 2.1740
 Frc consts  --      1.2576                 0.8680                 1.4123
 IR Inten    --      3.2483                 3.0467                25.7626

                     22                     23                     24
                      A                      A                      A
 Frequencies --   1106.6417              1122.4472              1162.6759
 Red. masses --      2.8778                 1.9640                 2.0827
 Frc consts  --      2.0765                 1.4579                 1.6588
 IR Inten    --     57.6827                 9.5599                34.7461

                     25                     26                     27
                      A                      A                      A
 Frequencies --   1167.7625              1183.1628              1210.1420
 Red. masses --      1.7671                 1.8322                 1.3025
 Frc consts  --      1.4198                 1.5111                 1.1238
 IR Inten    --     23.5269                 4.9121                18.2474

                     28                     29                     30
                      A                      A                      A
 Frequencies --   1222.6089              1262.5171              1287.9339
 Red. masses --      1.3489                 1.5146                 1.2775
 Frc consts  --      1.1880                 1.4224                 1.2485
 IR Inten    --      8.1144                 9.0823                 0.5576

                     31                     32                     33
                      A                      A                      A
 Frequencies --   1289.9315              1306.9103              1323.2858
 Red. masses --      1.4350                 1.3362                 1.5560
 Frc consts  --      1.4068                 1.3446                 1.6053
 IR Inten    --      2.6290                 6.0972                 0.6657

                     34                     35                     36
                      A                      A                      A
 Frequencies --   1353.4402              1359.0223              1403.3537
 Red. masses --      1.2611                 1.3631                 1.3675
 Frc consts  --      1.3610                 1.4833                 1.5868
 IR Inten    --      3.1735                 6.0201                 4.4631

                     37                     38                     39
                      A                      A                      A
 Frequencies --   1450.0538              1495.5602              1509.5209
 Red. masses --      1.0878                 1.0912                 1.0836
 Frc consts  --      1.3477                 1.4380                 1.4548
 IR Inten    --     10.1832                 2.6229                 1.1430

                     40                     41                     42
                      A                      A                      A
 Frequencies --   1523.6361              1843.0024              2970.9796
 Red. masses --      1.1011                12.3882                 1.0705
 Frc consts  --      1.5060                24.7919                 5.5670
 IR Inten    --      1.3777               203.9701                41.7457

                     43                     44                     45
                      A                      A                      A
 Frequencies --   2977.0062              3029.8568              3043.0058
 Red. masses --      1.0717                 1.0684                 1.0626
 Frc consts  --      5.5959                 5.7788                 5.7972
 IR Inten    --     99.6272                 3.5559                28.6468

                     46                     47                     48
                      A                      A                      A
 Frequencies --   3081.8418              3085.6102              3092.8870
 Red. masses --      1.0856                 1.0959                 1.0983
 Frc consts  --      6.0747                 6.1478                 6.1904
 IR Inten    --     34.6399                 5.0247                33.7001

                     49                     50                     51
                      A                      A                      A
 Frequencies --   3099.4379              3104.5882              3118.3635
 Red. masses --      1.0866                 1.0932                 1.0956
 Frc consts  --      6.1503                 6.2081                 6.2771
 IR Inten    --     21.9996                13.3549                14.2160

 - Thermochemistry -
 -------------------
 Temperature   298.150 Kelvin.  Pressure   1.00000 Atm.
 Atom     1 has atomic number  8 and mass  15.99491

 Molecular mass:   126.06808 amu.
 Principal axes and moments of inertia in atomic units:
                           1         2         3
     Eigenvalues --   710.709971039.812041421.80941
           X            0.99873   0.04599  -0.02070
           Y           -0.04648   0.99864  -0.02380
           Z            0.01958   0.02473   0.99950
 This molecule is an asymmetric top.
 Rotational symmetry number  1.
 Warning -- assumption of classical behavior for rotation
           may cause significant error
 Rotational temperatures (Kelvin)      0.12187     0.08330     0.06092
 Rotational constants (GHZ):           2.53935     1.73564     1.26933
 Zero-point vibrational energy     425220.3 (Joules/Mol)
                                  101.63009 (Kcal/Mol)
 Warning -- explicit consideration of   8 degrees of freedom as
           vibrations may cause significant error
 Vibrational temperatures:     72.69   200.30   258.02   439.78   533.34
          (Kelvin)            635.63   719.42   771.22   940.46  1023.11
                             1046.42  1102.99  1198.76  1211.19  1338.22
                             1354.80  1379.44  1399.00  1423.05  1446.27
                             1510.76  1592.21  1614.95  1672.83  1680.15
                             1702.31  1741.12  1759.06  1816.48  1853.05
                             1855.92  1880.35  1903.91  1947.30  1955.33
                             2019.11  2086.30  2151.77  2171.86  2192.17
                             2651.67  4274.57  4283.24  4359.28  4378.20
                             4434.08  4439.50  4449.97  4459.39  4466.80
                             4486.62

 Zero-point correction=                           0.161958 (Hartree/Particle)
 Thermal correction to Energy=                    0.169417
 Thermal correction to Enthalpy=                  0.170361
 Thermal correction to Gibbs Free Energy=         0.129427
 Sum of electronic and zero-point Energies=           -423.065960
 Sum of electronic and thermal Energies=              -423.058501
 Sum of electronic and thermal Enthalpies=            -423.057557
 Sum of electronic and thermal Free Energies=         -423.098491

                     E (Thermal)             CV                S
                      KCal/Mol        Cal/Mol-Kelvin    Cal/Mol-Kelvin
 Total                  106.311             28.971             86.153
 Electronic               0.000              0.000              0.000
 Translational            0.889              2.981             40.409
 Rotational               0.889              2.981             28.443
 Vibrational            104.533             23.009             17.301
 Vibration     1          0.595              1.977              4.797
 Vibration     2          0.615              1.914              2.815
 Vibration     3          0.629              1.868              2.335
 Vibration     4          0.696              1.663              1.386
 Vibration     5          0.743              1.532              1.077
 Vibration     6          0.802              1.379              0.821
 Vibration     7          0.855              1.250              0.658
 Vibration     8          0.891              1.170              0.574

 Optimization completed.
    -- Stationary point found.
 Normal termination of Gaussian 09 at Mon Jan 27 13:58:03 2020.
