 Gaussian 09, Revision D.01,
 Gaussian 09:  ES64L-G09RevD.01 24-Apr-2013

 -----------------------------
 # b3lyp 6-31G(2df,p) opt Freq
 -----------------------------

 -----
 titel
 -----
 Symbolic Z-matrix:
 Charge =  0 Multiplicity = 1

 SCF Done:  E(RB3LYP) =  -423.122253653     A.U. after   14 cycles
 Optimization completed.
    -- Stationary point found.
 Normal termination of Gaussian 09 at Mon Jan 27 22:03:20 2020.

 ----------------------------------------------------------------------
 #N Geom=AllCheck Guess=TCheck SCRF=Check GenChk RB3LYP/6-31G(2df,p) Fr
 eq
 ----------------------------------------------------------------------

 Structure from the checkpoint file:  "/scratch/puck/g09_ae95beaa-a948-48e0-9833-59504780bef4/Gau-72743.chk"
 -----
 titel
 -----
 Charge =  0 Multiplicity = 1

                         Standard orientation:
 ---------------------------------------------------------------------
 Center     Atomic      Atomic             Coordinates (Angstroms)
 Number     Number       Type             X           Y           Z
 ---------------------------------------------------------------------
      1          6           0       -0.132347    0.931952    1.623376
      2          6           0        0.112950    0.001412    0.453782
      3          6           0       -0.996325   -1.013137    0.176960
      4          6           0       -2.246200   -0.395371   -0.254740
      5          6           0       -3.267952    0.129610   -0.608729
      6          6           0        1.546320   -0.448442    0.182946
      7          8           0        1.825528   -1.719100   -0.333585
      8          6           0        0.872247    0.521340   -0.745425
      9          8           0        1.240054    1.868337   -0.747941
     10          1           0       -0.207789    0.367686    2.560437
     11          1           0        0.671395    1.663947    1.720031
     12          1           0       -1.068514    1.482124    1.484559
     13          1           0       -0.653951   -1.727134   -0.579957
     14          1           0       -1.181327   -1.600036    1.088085
     15          1           0       -4.172428    0.586391   -0.925461
     16          1           0        2.307791   -0.032902    0.844382
     17          1           0        1.778957   -2.354289    0.389381
     18          1           0        0.574210    0.114508   -1.712561
     19          1           0        2.094833    1.941615   -1.185716
 ---------------------------------------------------------------------

 SCF Done:  E(RB3LYP) =  -423.122253653     A.U. after    1 cycles

 The electronic state is 1-A.
 Alpha  occ. eigenvalues --  -19.15222 -19.14478 -10.23284 -10.23124 -10.20703
 Alpha  occ. eigenvalues --  -10.19983 -10.17683 -10.17264 -10.16539  -1.03913
 Alpha  occ. eigenvalues --   -1.02487  -0.85646  -0.77019  -0.71107  -0.69123
 Alpha  occ. eigenvalues --   -0.60453  -0.56410  -0.53807  -0.51764  -0.49362
 Alpha  occ. eigenvalues --   -0.46805  -0.46158  -0.43980  -0.40567  -0.39815
 Alpha  occ. eigenvalues --   -0.39650  -0.37644  -0.35835  -0.32810  -0.30813
 Alpha  occ. eigenvalues --   -0.26525  -0.26321  -0.25644  -0.24239
 Alpha virt. eigenvalues --    0.05636   0.06281   0.06752   0.08122   0.11978
 Alpha virt. eigenvalues --    0.12777   0.13166   0.13597   0.14831   0.16404
 Alpha virt. eigenvalues --    0.16666   0.19416   0.19621   0.21590   0.22526

 Mulliken charges:
               1
     1  C   -0.458927
     2  C    0.253674
     3  C   -0.437911
     4  C    0.317862
     5  C   -0.448202
     6  C   -0.029307
     7  O   -0.418127
     8  C    0.049809
     9  O   -0.421682
    10  H    0.105544
    11  H    0.129719
    12  H    0.136356
    13  H    0.140288
    14  H    0.120861
    15  H    0.194137
    16  H    0.088786
    17  H    0.290212
    18  H    0.097802
    19  H    0.289105
 Sum of Mulliken charges =   0.00000

 Dipole moment (field-independent basis, Debye):
    X=              1.2596    Y=             -0.8827    Z=              0.9171  Tot=              1.7908
 Quadrupole moment (field-independent basis, Debye-Ang):
   XX=            -49.2999   YY=            -52.7153   ZZ=            -51.6800
   XY=              0.2259   XZ=              1.3821   YZ=             -4.1985

  Exact polarizability:  93.761  -6.001  71.817   4.134  -2.719  66.612
 Approx polarizability: 132.105 -16.258 107.307   8.215  -7.416  98.375

                      1                      2                      3
                      A                      A                      A
 Frequencies --     59.1013               105.2585               180.4111
 Red. masses --      3.5042                 4.7617                 1.1975
 Frc consts  --      0.0072                 0.0311                 0.0230
 IR Inten    --      0.3134                 0.3994                 0.6781

                      4                      5                      6
                      A                      A                      A
 Frequencies --    194.0190               228.6740               247.7317
 Red. masses --      3.0305                 2.7501                 2.6299
 Frc consts  --      0.0672                 0.0847                 0.0951
 IR Inten    --      0.5725                 5.1469                30.1077

                      7                      8                      9
                      A                      A                      A
 Frequencies --    290.9330               298.5860               320.8444
 Red. masses --      1.3604                 2.5774                 2.0769
 Frc consts  --      0.0678                 0.1354                 0.1260
 IR Inten    --     35.2687                 8.6470                70.7007

                     10                     11                     12
                      A                      A                      A
 Frequencies --    344.8194               356.5136               377.7298
 Red. masses --      3.0485                 1.9713                 1.8209
 Frc consts  --      0.2136                 0.1476                 0.1531
 IR Inten    --      4.1539                25.3172                79.3086

                     13                     14                     15
                      A                      A                      A
 Frequencies --    495.5664               551.8422               577.2477
 Red. masses --      5.9557                 4.3160                 4.4674
 Frc consts  --      0.8618                 0.7744                 0.8771
 IR Inten    --      7.3769                 9.7413                 6.0270

                     16                     17                     18
                      A                      A                      A
 Frequencies --    618.9718               636.9978               733.4989
 Red. masses --      1.2059                 1.2449                 3.2899
 Frc consts  --      0.2722                 0.2976                 1.0429
 IR Inten    --     43.5120                44.7684                 0.4936

                     19                     20                     21
                      A                      A                      A
 Frequencies --    839.6231               925.5016               931.2611
 Red. masses --      3.3894                 1.7906                 2.8869
 Frc consts  --      1.4078                 0.9037                 1.4751
 IR Inten    --      0.8299                 6.7238                 9.0370

                     22                     23                     24
                      A                      A                      A
 Frequencies --    983.9528               995.8449              1026.7002
 Red. masses --      2.5865                 1.4337                 1.7281
 Frc consts  --      1.4754                 0.8377                 1.0733
 IR Inten    --     11.5653                 6.0794                 0.3221

                     25                     26                     27
                      A                      A                      A
 Frequencies --   1075.5781              1110.4271              1139.7619
 Red. masses --      1.4582                 1.8059                 3.7640
 Frc consts  --      0.9939                 1.3120                 2.8809
 IR Inten    --      5.1777                14.6961               115.4112

                     28                     29                     30
                      A                      A                      A
 Frequencies --   1166.8625              1208.4332              1252.1512
 Red. masses --      2.7343                 1.5695                 1.6194
 Frc consts  --      2.1935                 1.3504                 1.4960
 IR Inten    --     35.1491                23.5104                 8.8230

                     31                     32                     33
                      A                      A                      A
 Frequencies --   1280.9926              1297.5717              1332.3435
 Red. masses --      1.2173                 1.4249                 1.6268
 Frc consts  --      1.1769                 1.4135                 1.7014
 IR Inten    --     34.1283                53.7354                22.4426

                     34                     35                     36
                      A                      A                      A
 Frequencies --   1344.1851              1381.3990              1413.3509
 Red. masses --      1.5483                 1.3496                 1.2949
 Frc consts  --      1.6483                 1.5174                 1.5240
 IR Inten    --      1.2087                 6.5778                 6.2589

                     37                     38                     39
                      A                      A                      A
 Frequencies --   1474.1155              1484.0441              1490.5524
 Red. masses --      1.2040                 1.4074                 1.1419
 Frc consts  --      1.5415                 1.8262                 1.4948
 IR Inten    --      3.6901                 4.0717                 6.5350

                     40                     41                     42
                      A                      A                      A
 Frequencies --   1509.4631              2237.6944              3006.5987
 Red. masses --      1.2428                 5.9310                 1.0675
 Frc consts  --      1.6684                17.4976                 5.6857
 IR Inten    --     10.1671                 2.5530                19.8418

                     43                     44                     45
                      A                      A                      A
 Frequencies --   3031.3599              3067.4128              3092.1527
 Red. masses --      1.0399                 1.0911                 1.0893
 Frc consts  --      5.6299                 6.0485                 6.1365
 IR Inten    --     32.0105                 2.9562                12.2997

                     46                     47                     48
                      A                      A                      A
 Frequencies --   3094.8124              3099.6763              3133.4093
 Red. masses --      1.0977                 1.0858                 1.0984
 Frc consts  --      6.1943                 6.1467                 6.3541
 IR Inten    --     16.4868                37.3938                14.7221

                     49                     50                     51
                      A                      A                      A
 Frequencies --   3507.4041              3797.1781              3803.3903
 Red. masses --      1.1619                 1.0662                 1.0662
 Frc consts  --      8.4218                 9.0578                 9.0874
 IR Inten    --     65.5130                20.4927                24.6609

 - Thermochemistry -
 -------------------
 Temperature   298.150 Kelvin.  Pressure   1.00000 Atm.
 Atom     1 has atomic number  6 and mass  12.00000

 Molecular mass:   126.06808 amu.
 Principal axes and moments of inertia in atomic units:
                           1         2         3
     Eigenvalues --   824.555861527.903701803.86265
           X            0.99999  -0.00062   0.00420
           Y            0.00055   0.99986   0.01653
           Z           -0.00421  -0.01653   0.99985
 This molecule is an asymmetric top.
 Rotational symmetry number  1.
 Warning -- assumption of classical behavior for rotation
           may cause significant error
 Rotational temperatures (Kelvin)      0.10504     0.05669     0.04802
 Rotational constants (GHZ):           2.18874     1.18119     1.00049
 Zero-point vibrational energy     407651.2 (Joules/Mol)
                                   97.43096 (Kcal/Mol)
 Warning -- explicit consideration of  16 degrees of freedom as
           vibrations may cause significant error
 Vibrational temperatures:     85.03   151.44   259.57   279.15   329.01
          (Kelvin)            356.43   418.59   429.60   461.62   496.12
                              512.94   543.47   713.01   793.98   830.53
                              890.56   916.50  1055.34  1208.03  1331.59
                             1339.88  1415.69  1432.80  1477.19  1547.52
                             1597.65  1639.86  1678.85  1738.66  1801.56
                             1843.06  1866.91  1916.94  1933.98  1987.52
                             2033.49  2120.92  2135.21  2144.57  2171.78
                             3219.54  4325.82  4361.45  4413.32  4448.91
                             4452.74  4459.74  4508.27  5046.37  5463.29
                             5472.22

 Zero-point correction=                           0.155266 (Hartree/Particle)
 Thermal correction to Energy=                    0.165563
 Thermal correction to Enthalpy=                  0.166507
 Thermal correction to Gibbs Free Energy=         0.120344
 Sum of electronic and zero-point Energies=           -422.966988
 Sum of electronic and thermal Energies=              -422.956690
 Sum of electronic and thermal Enthalpies=            -422.955746
 Sum of electronic and thermal Free Energies=         -423.001909

                     E (Thermal)             CV                S
                      KCal/Mol        Cal/Mol-Kelvin    Cal/Mol-Kelvin
 Total                  103.892             38.171             97.158
 Electronic               0.000              0.000              0.000
 Translational            0.889              2.981             40.409
 Rotational               0.889              2.981             29.209
 Vibrational            102.115             32.209             27.540
 Vibration     1          0.596              1.974              4.487
 Vibration     2          0.605              1.945              3.355
 Vibration     3          0.629              1.866              2.324
 Vibration     4          0.635              1.848              2.189
 Vibration     5          0.651              1.797              1.889
 Vibration     6          0.661              1.767              1.747
 Vibration     7          0.687              1.691              1.469
 Vibration     8          0.692              1.676              1.425
 Vibration     9          0.706              1.634              1.306
 Vibration    10          0.723              1.586              1.190
 Vibration    11          0.732              1.562              1.137
 Vibration    12          0.748              1.518              1.048
 Vibration    13          0.851              1.260              0.669
 Vibration    14          0.907              1.136              0.540
 Vibration    15          0.934              1.080              0.490
 Vibration    16          0.979              0.992              0.418

 Optimization completed.
    -- Stationary point found.
 Normal termination of Gaussian 09 at Mon Jan 27 22:45:43 2020.
