 Gaussian 09, Revision D.01,
 Gaussian 09:  ES64L-G09RevD.01 24-Apr-2013

 -----------------------------
 # b3lyp 6-31G(2df,p) opt Freq
 -----------------------------

 -----
 titel
 -----
 Symbolic Z-matrix:
 Charge =  0 Multiplicity = 1

 SCF Done:  E(RB3LYP) =  -423.199619688     A.U. after   14 cycles
 Optimization completed.
    -- Stationary point found.
 Normal termination of Gaussian 09 at Tue Jan 28 03:58:06 2020.

 ----------------------------------------------------------------------
 #N Geom=AllCheck Guess=TCheck SCRF=Check GenChk RB3LYP/6-31G(2df,p) Fr
 eq
 ----------------------------------------------------------------------

 Structure from the checkpoint file:  "/scratch/puck/g09_3be4a794-bd1f-4533-a8af-a109adb349e5/Gau-14330.chk"
 -----
 titel
 -----
 Charge =  0 Multiplicity = 1

                         Standard orientation:
 ---------------------------------------------------------------------
 Center     Atomic      Atomic             Coordinates (Angstroms)
 Number     Number       Type             X           Y           Z
 ---------------------------------------------------------------------
      1          8           0       -2.263536   -1.334848   -0.510825
      2          6           0       -1.359288   -0.685845    0.371439
      3          6           0       -1.884624    0.706343    0.802146
      4          6           0       -1.174787    1.644399   -0.145492
      5          6           0       -0.158753    1.045704   -0.768204
      6          6           0        0.001641   -0.396237   -0.331411
      7          6           0        1.227080   -0.602209    0.592913
      8          6           0        2.526420   -0.427551   -0.158727
      9          8           0        3.387499    0.368112    0.113947
     10          1           0       -2.413874   -0.741886   -1.256430
     11          1           0       -1.246588   -1.372363    1.214514
     12          1           0       -2.977022    0.735804    0.728796
     13          1           0       -1.633299    0.937394    1.846244
     14          1           0       -1.456793    2.684411   -0.266737
     15          1           0        0.515357    1.524645   -1.469936
     16          1           0        0.098169   -1.084877   -1.180779
     17          1           0        1.212979    0.089203    1.440122
     18          1           0        1.205750   -1.632588    0.976155
     19          1           0        2.637481   -1.113469   -1.032903
 ---------------------------------------------------------------------

 SCF Done:  E(RB3LYP) =  -423.199619688     A.U. after    1 cycles

 The electronic state is 1-A.
 Alpha  occ. eigenvalues --  -19.14074 -19.13954 -10.27300 -10.23907 -10.20369
 Alpha  occ. eigenvalues --  -10.19905 -10.19280 -10.19052 -10.18969  -1.04745
 Alpha  occ. eigenvalues --   -1.02371  -0.85127  -0.77487  -0.71032  -0.68438
 Alpha  occ. eigenvalues --   -0.59078  -0.57921  -0.54545  -0.52044  -0.48283
 Alpha  occ. eigenvalues --   -0.46600  -0.45133  -0.43542  -0.43294  -0.40578
 Alpha  occ. eigenvalues --   -0.38667  -0.37888  -0.37198  -0.36024  -0.34364
 Alpha  occ. eigenvalues --   -0.32715  -0.27423  -0.25832  -0.24778
 Alpha virt. eigenvalues --   -0.02317   0.00793   0.08231   0.10285   0.10553
 Alpha virt. eigenvalues --    0.11964   0.13205   0.14514   0.14961   0.16167
 Alpha virt. eigenvalues --    0.16501   0.17346   0.19517   0.19786   0.23030

 Mulliken charges:
               1
     1  O   -0.435427
     2  C    0.110364
     3  C   -0.281388
     4  C   -0.075185
     5  C   -0.078187
     6  C   -0.070110
     7  C   -0.287646
     8  C    0.159836
     9  O   -0.238615
    10  H    0.280659
    11  H    0.084551
    12  H    0.113085
    13  H    0.114383
    14  H    0.100328
    15  H    0.105350
    16  H    0.084866
    17  H    0.122331
    18  H    0.120005
    19  H    0.070799
 Sum of Mulliken charges =   0.00000

 Dipole moment (field-independent basis, Debye):
    X=             -1.7914    Y=              0.0502    Z=             -0.3644  Tot=              1.8288
 Quadrupole moment (field-independent basis, Debye-Ang):
   XX=            -65.2108   YY=            -54.1763   ZZ=            -50.1106
   XY=             -8.5679   XZ=             -0.7782   YZ=             -1.1881

  Exact polarizability:  91.228  -3.200  74.461  -6.701   1.692  66.971
 Approx polarizability: 127.792  -0.919 114.068 -10.079   6.489 105.203

                      1                      2                      3
                      A                      A                      A
 Frequencies --     52.2614                62.8196                95.8773
 Red. masses --      6.1728                 3.8721                 2.8579
 Frc consts  --      0.0099                 0.0090                 0.0155
 IR Inten    --      6.0313                 3.2839                 3.5730

                      4                      5                      6
                      A                      A                      A
 Frequencies --    186.3875               238.0129               293.0087
 Red. masses --      2.8284                 2.9431                 3.5318
 Frc consts  --      0.0579                 0.0982                 0.1787
 IR Inten    --      0.8629                 0.9331                 0.5555

                      7                      8                      9
                      A                      A                      A
 Frequencies --    348.8715               396.0159               452.7332
 Red. masses --      1.2923                 2.2187                 2.6809
 Frc consts  --      0.0927                 0.2050                 0.3238
 IR Inten    --     49.4757                28.9922                 9.4451

                     10                     11                     12
                      A                      A                      A
 Frequencies --    474.5441               569.4107               725.6630
 Red. masses --      2.2761                 2.7610                 2.1421
 Frc consts  --      0.3020                 0.5274                 0.6646
 IR Inten    --      8.4389                 9.5738                 3.1189

                     13                     14                     15
                      A                      A                      A
 Frequencies --    743.5322               776.7869               817.7352
 Red. masses --      1.6729                 3.9524                 2.2167
 Frc consts  --      0.5449                 1.4051                 0.8733
 IR Inten    --     26.0809                 1.3684                 2.6386

                     16                     17                     18
                      A                      A                      A
 Frequencies --    856.7320               906.8415               945.9884
 Red. masses --      2.6580                 2.0637                 1.8210
 Frc consts  --      1.1495                 0.9999                 0.9601
 IR Inten    --     20.6845                25.3486                 2.2861

                     19                     20                     21
                      A                      A                      A
 Frequencies --    958.5095               979.9619              1015.5559
 Red. masses --      2.4073                 1.2981                 2.6991
 Frc consts  --      1.3031                 0.7345                 1.6401
 IR Inten    --      2.9738                 1.3552                14.8934

                     22                     23                     24
                      A                      A                      A
 Frequencies --   1035.2615              1061.9892              1076.4997
 Red. masses --      2.2328                 2.6369                 1.8683
 Frc consts  --      1.4100                 1.7522                 1.2757
 IR Inten    --     12.2065                37.6211                 4.4400

                     25                     26                     27
                      A                      A                      A
 Frequencies --   1102.5628              1136.6659              1167.7370
 Red. masses --      2.6510                 1.1253                 1.1504
 Frc consts  --      1.8987                 0.8566                 0.9242
 IR Inten    --     28.2685                 2.8884                48.3646

                     28                     29                     30
                      A                      A                      A
 Frequencies --   1201.1462              1218.2090              1262.2167
 Red. masses --      1.2817                 1.4750                 1.5029
 Frc consts  --      1.0895                 1.2897                 1.4107
 IR Inten    --     20.0750                17.6927                 8.6957

                     31                     32                     33
                      A                      A                      A
 Frequencies --   1300.4387              1311.4202              1321.7110
 Red. masses --      1.4455                 1.3910                 1.6430
 Frc consts  --      1.4403                 1.4095                 1.6911
 IR Inten    --      1.0354                 2.8083                 0.6776

                     34                     35                     36
                      A                      A                      A
 Frequencies --   1351.2752              1388.0177              1430.8245
 Red. masses --      1.3043                 1.7027                 1.1997
 Frc consts  --      1.4032                 1.9328                 1.4471
 IR Inten    --      3.8746                 1.0384                27.2645

                     37                     38                     39
                      A                      A                      A
 Frequencies --   1432.4679              1460.8467              1475.0042
 Red. masses --      1.1992                 1.1009                 1.0963
 Frc consts  --      1.4498                 1.3842                 1.4053
 IR Inten    --     37.8886                 3.6362                 5.3790

                     40                     41                     42
                      A                      A                      A
 Frequencies --   1676.3435              1835.0349              2844.3432
 Red. masses --      6.1818                10.0902                 1.0814
 Frc consts  --     10.2351                20.0188                 5.1544
 IR Inten    --      0.8343               182.2658               111.7259

                     43                     44                     45
                      A                      A                      A
 Frequencies --   3012.7785              3018.2172              3024.5819
 Red. masses --      1.0642                 1.0674                 1.0825
 Frc consts  --      5.6913                 5.7289                 5.8347
 IR Inten    --     11.3785                25.8828                17.2815

                     46                     47                     48
                      A                      A                      A
 Frequencies --   3070.5598              3083.0962              3101.8021
 Red. masses --      1.0945                 1.0875                 1.0973
 Frc consts  --      6.0801                 6.0905                 6.2200
 IR Inten    --     17.2769                34.2020                14.4993

                     49                     50                     51
                      A                      A                      A
 Frequencies --   3183.2678              3207.8163              3791.1154
 Red. masses --      1.0847                 1.1039                 1.0657
 Frc consts  --      6.4757                 6.6929                 9.0246
 IR Inten    --      4.1374                15.4819                14.6152

 - Thermochemistry -
 -------------------
 Temperature   298.150 Kelvin.  Pressure   1.00000 Atm.
 Atom     1 has atomic number  8 and mass  15.99491

 Molecular mass:   126.06808 amu.
 Principal axes and moments of inertia in atomic units:
                           1         2         3
     Eigenvalues --   558.691551839.308462100.06306
           X            0.99970  -0.02282  -0.00904
           Y            0.02278   0.99973  -0.00516
           Z            0.00916   0.00495   0.99995
 This molecule is an asymmetric top.
 Rotational symmetry number  1.
 Warning -- assumption of classical behavior for rotation
           may cause significant error
 Rotational temperatures (Kelvin)      0.15503     0.04709     0.04124
 Rotational constants (GHZ):           3.23030     0.98121     0.85937
 Zero-point vibrational energy     415585.7 (Joules/Mol)
                                   99.32736 (Kcal/Mol)
 Warning -- explicit consideration of  11 degrees of freedom as
           vibrations may cause significant error
 Vibrational temperatures:     75.19    90.38   137.95   268.17   342.45
          (Kelvin)            421.57   501.95   569.78   651.38   682.76
                              819.25  1044.07  1069.78  1117.62  1176.54
                             1232.64  1304.74  1361.06  1379.08  1409.94
                             1461.16  1489.51  1527.96  1548.84  1586.34
                             1635.41  1680.11  1728.18  1752.73  1816.05
                             1871.04  1886.84  1901.64  1944.18  1997.05
                             2058.63  2061.00  2101.83  2122.20  2411.88
                             2640.20  4092.37  4334.71  4342.54  4351.69
                             4417.85  4435.88  4462.80  4580.01  4615.33
                             5454.56

 Zero-point correction=                           0.158288 (Hartree/Particle)
 Thermal correction to Energy=                    0.167288
 Thermal correction to Enthalpy=                  0.168232
 Thermal correction to Gibbs Free Energy=         0.123446
 Sum of electronic and zero-point Energies=           -423.041331
 Sum of electronic and thermal Energies=              -423.032332
 Sum of electronic and thermal Enthalpies=            -423.031387
 Sum of electronic and thermal Free Energies=         -423.076173

                     E (Thermal)             CV                S
                      KCal/Mol        Cal/Mol-Kelvin    Cal/Mol-Kelvin
 Total                  104.975             32.883             94.260
 Electronic               0.000              0.000              0.000
 Translational            0.889              2.981             40.409
 Rotational               0.889              2.981             29.158
 Vibrational            103.197             26.921             24.693
 Vibration     1          0.596              1.977              4.730
 Vibration     2          0.597              1.972              4.367
 Vibration     3          0.603              1.952              3.536
 Vibration     4          0.632              1.858              2.263
 Vibration     5          0.656              1.782              1.818
 Vibration     6          0.688              1.687              1.457
 Vibration     7          0.726              1.578              1.171
 Vibration     8          0.763              1.479              0.977
 Vibration     9          0.811              1.355              0.788
 Vibration    10          0.831              1.307              0.725
 Vibration    11          0.925              1.097              0.505

 Optimization completed.
    -- Stationary point found.
 Normal termination of Gaussian 09 at Tue Jan 28 04:41:07 2020.
