 Gaussian 09, Revision D.01,
 Gaussian 09:  ES64L-G09RevD.01 24-Apr-2013

 -----------------------------
 # b3lyp 6-31G(2df,p) opt Freq
 -----------------------------

 -----
 titel
 -----
 Symbolic Z-matrix:
 Charge =  0 Multiplicity = 1

 SCF Done:  E(RB3LYP) =  -423.164127963     A.U. after   14 cycles
 Optimization completed.
    -- Stationary point found.
 Normal termination of Gaussian 09 at Mon Jan 27 22:01:14 2020.

 ----------------------------------------------------------------------
 #N Geom=AllCheck Guess=TCheck SCRF=Check GenChk RB3LYP/6-31G(2df,p) Fr
 eq
 ----------------------------------------------------------------------

 Structure from the checkpoint file:  "/scratch/puck/g09_a579cbd2-80c7-40d2-940d-a283b947c95a/Gau-179133.chk"
 -----
 titel
 -----
 Charge =  0 Multiplicity = 1

                         Standard orientation:
 ---------------------------------------------------------------------
 Center     Atomic      Atomic             Coordinates (Angstroms)
 Number     Number       Type             X           Y           Z
 ---------------------------------------------------------------------
      1          6           0       -1.965754   -0.588256    1.400262
      2          6           0       -1.115985   -0.225796    0.216040
      3          6           0       -1.528744   -0.489029   -1.208898
      4          6           0       -0.252453   -1.100162   -0.701851
      5          6           0        0.856238   -0.024958   -0.732830
      6          6           0        2.176370   -0.492772   -0.177662
      7          8           0        2.577909   -0.278162    0.939534
      8          6           0       -0.019912    0.836645    0.239404
      9          8           0       -0.442307    2.111721   -0.189379
     10          1           0       -1.356228   -0.740511    2.297995
     11          1           0       -2.690558    0.204716    1.618174
     12          1           0       -2.529013   -1.508968    1.216302
     13          1           0       -2.361502   -1.177072   -1.319054
     14          1           0       -1.501069    0.304603   -1.950145
     15          1           0       -0.085428   -2.170065   -0.659882
     16          1           0        1.020590    0.401852   -1.730822
     17          1           0        2.786042   -1.095276   -0.890102
     18          1           0        0.470975    0.876968    1.218440
     19          1           0        0.262808    2.741240   -0.008936
 ---------------------------------------------------------------------

 SCF Done:  E(RB3LYP) =  -423.164127963     A.U. after    1 cycles

 The electronic state is 1-A.
 Alpha  occ. eigenvalues --  -19.14325 -19.13895 -10.27298 -10.23421 -10.20342
 Alpha  occ. eigenvalues --  -10.19919 -10.19711 -10.18847 -10.17951  -1.04940
 Alpha  occ. eigenvalues --   -1.02236  -0.90016  -0.75477  -0.71748  -0.66860
 Alpha  occ. eigenvalues --   -0.59884  -0.56357  -0.53231  -0.52515  -0.48185
 Alpha  occ. eigenvalues --   -0.46286  -0.46163  -0.42573  -0.41675  -0.40900
 Alpha  occ. eigenvalues --   -0.39200  -0.38574  -0.37361  -0.34736  -0.32214
 Alpha  occ. eigenvalues --   -0.29313  -0.27343  -0.25984  -0.24850
 Alpha virt. eigenvalues --   -0.02570   0.07182   0.09991   0.10983   0.12105
 Alpha virt. eigenvalues --    0.12883   0.13511   0.14449   0.15490   0.16728
 Alpha virt. eigenvalues --    0.17026   0.18809   0.20006   0.20423   0.23601

 Mulliken charges:
               1
     1  C   -0.507759
     2  C    0.369727
     3  C   -0.334407
     4  C   -0.116946
     5  C   -0.131963
     6  C    0.127983
     7  O   -0.244155
     8  C    0.032402
     9  O   -0.439591
    10  H    0.122594
    11  H    0.130160
    12  H    0.116764
    13  H    0.111456
    14  H    0.121632
    15  H    0.092614
    16  H    0.087622
    17  H    0.078463
    18  H    0.096943
    19  H    0.286461
 Sum of Mulliken charges =   0.00000

 Dipole moment (field-independent basis, Debye):
    X=             -0.4355    Y=             -0.3878    Z=             -1.2418  Tot=              1.3719
 Quadrupole moment (field-independent basis, Debye-Ang):
   XX=            -56.9958   YY=            -49.8462   ZZ=            -54.2868
   XY=              4.1659   XZ=             -5.3279   YZ=              1.5083

  Exact polarizability:  85.141   0.221  70.682   0.132   3.067  73.809
 Approx polarizability: 114.893  -1.218 104.882   6.200   6.333 116.155

                      1                      2                      3
                      A                      A                      A
 Frequencies --     48.2427               110.7785               183.2064
 Red. masses --      5.1538                 2.7713                 4.1554
 Frc consts  --      0.0071                 0.0200                 0.0822
 IR Inten    --      6.7893                 0.9092                 5.5432

                      4                      5                      6
                      A                      A                      A
 Frequencies --    191.9587               227.4498               248.4620
 Red. masses --      1.1650                 2.3596                 2.5244
 Frc consts  --      0.0253                 0.0719                 0.0918
 IR Inten    --      1.3971                 2.5928                 8.0625

                      7                      8                      9
                      A                      A                      A
 Frequencies --    284.8805               319.2130               378.8711
 Red. masses --      1.2397                 2.9749                 2.5371
 Frc consts  --      0.0593                 0.1786                 0.2146
 IR Inten    --     90.9674                 1.4753                 1.4830

                     10                     11                     12
                      A                      A                      A
 Frequencies --    421.2307               543.9759               607.1572
 Red. masses --      3.1424                 3.3043                 4.0278
 Frc consts  --      0.3285                 0.5761                 0.8748
 IR Inten    --      1.7493                 5.8929                 3.5520

                     13                     14                     15
                      A                      A                      A
 Frequencies --    680.0608               733.5122               801.1613
 Red. masses --      4.5173                 3.0555                 2.6926
 Frc consts  --      1.2309                 0.9686                 1.0183
 IR Inten    --     16.3365                 1.9916                 5.2053

                     16                     17                     18
                      A                      A                      A
 Frequencies --    845.2433               927.3228               937.4061
 Red. masses --      2.0058                 1.4449                 2.4173
 Frc consts  --      0.8443                 0.7321                 1.2515
 IR Inten    --      6.0678                 6.9613                 9.3003

                     19                     20                     21
                      A                      A                      A
 Frequencies --    967.4945               988.7426              1012.4213
 Red. masses --      1.8015                 1.6631                 1.3561
 Frc consts  --      0.9936                 0.9579                 0.8190
 IR Inten    --      7.6158                 4.9355                 2.3255

                     22                     23                     24
                      A                      A                      A
 Frequencies --   1040.9132              1055.4035              1083.8607
 Red. masses --      2.2402                 1.5372                 1.5301
 Frc consts  --      1.4301                 1.0089                 1.0591
 IR Inten    --     59.6145                 4.0876                 4.3044

                     25                     26                     27
                      A                      A                      A
 Frequencies --   1099.9345              1113.5157              1131.4804
 Red. masses --      2.3350                 1.9311                 2.8454
 Frc consts  --      1.6644                 1.4108                 2.1462
 IR Inten    --     35.1125                 6.9003                46.1563

                     28                     29                     30
                      A                      A                      A
 Frequencies --   1196.8633              1206.1080              1244.9485
 Red. masses --      1.6818                 1.2958                 1.4670
 Frc consts  --      1.4194                 1.1106                 1.3396
 IR Inten    --     21.4736                 9.0474                10.5963

                     31                     32                     33
                      A                      A                      A
 Frequencies --   1256.6564              1306.2770              1336.3875
 Red. masses --      1.4934                 1.9884                 1.9314
 Frc consts  --      1.3895                 1.9991                 2.0322
 IR Inten    --     29.5453                 8.6879                52.6262

                     34                     35                     36
                      A                      A                      A
 Frequencies --   1384.3999              1418.9407              1425.8155
 Red. masses --      1.8219                 1.3149                 1.2723
 Frc consts  --      2.0573                 1.5598                 1.5240
 IR Inten    --      2.9378                 2.7542                 8.6481

                     37                     38                     39
                      A                      A                      A
 Frequencies --   1451.1399              1485.6505              1499.8836
 Red. masses --      1.5030                 1.0471                 1.0680
 Frc consts  --      1.8648                 1.3617                 1.4155
 IR Inten    --      5.6100                 3.9293                 8.7683

                     40                     41                     42
                      A                      A                      A
 Frequencies --   1503.1665              1818.0613              2864.0099
 Red. masses --      1.3843                10.2972                 1.0824
 Frc consts  --      1.8428                20.0533                 5.2309
 IR Inten    --      4.1022               148.5907               138.7734

                     43                     44                     45
                      A                      A                      A
 Frequencies --   3024.3049              3025.4677              3048.1066
 Red. masses --      1.0523                 1.0661                 1.0849
 Frc consts  --      5.6708                 5.7495                 5.9386
 IR Inten    --     54.6948                 1.2552                20.1508

                     46                     47                     48
                      A                      A                      A
 Frequencies --   3086.5608              3097.7723              3118.2873
 Red. masses --      1.1009                 1.1005                 1.0544
 Frc consts  --      6.1793                 6.2223                 6.0409
 IR Inten    --     19.8183                19.4607                16.2748

                     49                     50                     51
                      A                      A                      A
 Frequencies --   3180.1763              3204.1081              3820.0296
 Red. masses --      1.0934                 1.1148                 1.0662
 Frc consts  --      6.5154                 6.7430                 9.1672
 IR Inten    --     10.8035                10.4182                24.1681

 - Thermochemistry -
 -------------------
 Temperature   298.150 Kelvin.  Pressure   1.00000 Atm.
 Atom     1 has atomic number  6 and mass  12.00000

 Molecular mass:   126.06808 amu.
 Principal axes and moments of inertia in atomic units:
                           1         2         3
     Eigenvalues --   767.456091386.524461509.63368
           X            0.99877   0.03110  -0.03851
           Y           -0.03079   0.99949   0.00863
           Z            0.03876  -0.00744   0.99922
 This molecule is an asymmetric top.
 Rotational symmetry number  1.
 Warning -- assumption of classical behavior for rotation
           may cause significant error
 Rotational temperatures (Kelvin)      0.11286     0.06247     0.05737
 Rotational constants (GHZ):           2.35159     1.30163     1.19548
 Zero-point vibrational energy     412634.0 (Joules/Mol)
                                   98.62190 (Kcal/Mol)
 Warning -- explicit consideration of  12 degrees of freedom as
           vibrations may cause significant error
 Vibrational temperatures:     69.41   159.39   263.59   276.19   327.25
          (Kelvin)            357.48   409.88   459.28   545.11   606.06
                              782.66   873.56   978.45  1055.36  1152.69
                             1216.12  1334.21  1348.72  1392.01  1422.58
                             1456.65  1497.64  1518.49  1559.43  1582.56
                             1602.10  1627.95  1722.02  1735.32  1791.20
                             1808.05  1879.44  1922.76  1991.84  2041.54
                             2051.43  2087.86  2137.52  2158.00  2162.72
                             2615.78  4120.67  4351.29  4352.97  4385.54
                             4440.87  4457.00  4486.51  4575.56  4609.99
                             5496.16

 Zero-point correction=                           0.157164 (Hartree/Particle)
 Thermal correction to Energy=                    0.166383
 Thermal correction to Enthalpy=                  0.167327
 Thermal correction to Gibbs Free Energy=         0.122890
 Sum of electronic and zero-point Energies=           -423.006964
 Sum of electronic and thermal Energies=              -422.997745
 Sum of electronic and thermal Enthalpies=            -422.996801
 Sum of electronic and thermal Free Energies=         -423.041238

                     E (Thermal)             CV                S
                      KCal/Mol        Cal/Mol-Kelvin    Cal/Mol-Kelvin
 Total                  104.407             33.984             93.525
 Electronic               0.000              0.000              0.000
 Translational            0.889              2.981             40.409
 Rotational               0.889              2.981             28.865
 Vibrational            102.629             28.022             24.252
 Vibration     1          0.595              1.978              4.888
 Vibration     2          0.607              1.941              3.255
 Vibration     3          0.631              1.863              2.295
 Vibration     4          0.634              1.851              2.209
 Vibration     5          0.651              1.799              1.899
 Vibration     6          0.662              1.765              1.741
 Vibration     7          0.683              1.702              1.504
 Vibration     8          0.705              1.637              1.314
 Vibration     9          0.749              1.515              1.044
 Vibration    10          0.784              1.424              0.888
 Vibration    11          0.899              1.153              0.557
 Vibration    12          0.966              1.017              0.438

 Optimization completed.
    -- Stationary point found.
 Normal termination of Gaussian 09 at Mon Jan 27 22:46:18 2020.
