 Gaussian 09, Revision D.01,
 Gaussian 09:  ES64L-G09RevD.01 24-Apr-2013

 -----------------------------
 # b3lyp 6-31G(2df,p) opt Freq
 -----------------------------

 -----
 titel
 -----
 Symbolic Z-matrix:
 Charge =  0 Multiplicity = 1

 SCF Done:  E(RB3LYP) =  -423.217439430     A.U. after   14 cycles
 Optimization completed.
    -- Stationary point found.
 Normal termination of Gaussian 09 at Mon Jan 27 13:47:23 2020.

 ----------------------------------------------------------------------
 #N Geom=AllCheck Guess=TCheck SCRF=Check GenChk RB3LYP/6-31G(2df,p) Fr
 eq
 ----------------------------------------------------------------------

 Structure from the checkpoint file:  "/scratch/puck/g09_2b2d09ca-f342-49c3-9cc6-8d3633366fef/Gau-102383.chk"
 -----
 titel
 -----
 Charge =  0 Multiplicity = 1

                         Standard orientation:
 ---------------------------------------------------------------------
 Center     Atomic      Atomic             Coordinates (Angstroms)
 Number     Number       Type             X           Y           Z
 ---------------------------------------------------------------------
      1          8           0        2.724523   -0.889806    0.576432
      2          6           0        2.643378    0.126453   -0.058595
      3          8           0        1.520962    0.793014   -0.354648
      4          6           0        0.286540    0.244491    0.163037
      5          6           0       -0.280730   -0.886387   -0.722335
      6          6           0       -1.788785   -0.756869   -0.586643
      7          6           0       -2.358505   -0.609012    0.804280
      8          6           0       -2.097593    0.620743   -0.033473
      9          6           0       -0.782097    1.352143    0.174631
     10          1           0        3.498054    0.667621   -0.494264
     11          1           0        0.496522   -0.128107    1.166917
     12          1           0        0.017036   -0.701353   -1.761310
     13          1           0        0.116139   -1.862342   -0.430356
     14          1           0       -2.412493   -1.206750   -1.350618
     15          1           0       -3.394728   -0.896978    0.943929
     16          1           0       -1.729868   -0.814600    1.665524
     17          1           0       -2.948905    1.190489   -0.387785
     18          1           0       -0.593678    2.030621   -0.665064
     19          1           0       -0.745206    1.946368    1.093346
 ---------------------------------------------------------------------

 SCF Done:  E(RB3LYP) =  -423.217439430     A.U. after    1 cycles

 The electronic state is 1-A.
 Alpha  occ. eigenvalues --  -19.18754 -19.13221 -10.30687 -10.24391 -10.19299
 Alpha  occ. eigenvalues --  -10.19257 -10.18845 -10.18636 -10.18580  -1.10358
 Alpha  occ. eigenvalues --   -1.01996  -0.88471  -0.77390  -0.71722  -0.66144
 Alpha  occ. eigenvalues --   -0.59733  -0.55972  -0.55286  -0.52602  -0.50651
 Alpha  occ. eigenvalues --   -0.46895  -0.45305  -0.44398  -0.42855  -0.41427
 Alpha  occ. eigenvalues --   -0.38963  -0.36542  -0.35993  -0.35480  -0.33212
 Alpha  occ. eigenvalues --   -0.29720  -0.28614  -0.27805  -0.27451
 Alpha virt. eigenvalues --    0.00987   0.08095   0.09726   0.11428   0.12843
 Alpha virt. eigenvalues --    0.13778   0.14115   0.14625   0.15741   0.17122
 Alpha virt. eigenvalues --    0.18584   0.18969   0.20801   0.21195   0.22808

 Mulliken charges:
               1
     1  O   -0.307383
     2  C    0.174993
     3  O   -0.220284
     4  C    0.126822
     5  C   -0.241565
     6  C   -0.029507
     7  C   -0.288026
     8  C   -0.032341
     9  C   -0.246510
    10  H    0.108380
    11  H    0.112642
    12  H    0.107116
    13  H    0.120810
    14  H    0.085363
    15  H    0.111607
    16  H    0.113717
    17  H    0.085400
    18  H    0.114054
    19  H    0.104712
 Sum of Mulliken charges =   0.00000

 Dipole moment (field-independent basis, Debye):
    X=             -1.5543    Y=              1.1832    Z=             -0.7983  Tot=              2.1103
 Quadrupole moment (field-independent basis, Debye-Ang):
   XX=            -53.1795   YY=            -54.9890   ZZ=            -52.6087
   XY=              4.3000   XZ=             -2.2198   YZ=              1.5454

  Exact polarizability:  90.834   0.212  70.935  -2.090  -2.182  64.260
 Approx polarizability: 112.100  -3.489 112.056  -0.850  -8.734 101.919

                      1                      2                      3
                      A                      A                      A
 Frequencies --     48.8984                97.5198               190.0418
 Red. masses --      5.3405                 3.5256                 3.6684
 Frc consts  --      0.0075                 0.0198                 0.0781
 IR Inten    --      1.3765                 0.7723                 4.1810

                      4                      5                      6
                      A                      A                      A
 Frequencies --    267.1983               293.1537               353.5220
 Red. masses --      3.0533                 1.9599                 3.5625
 Frc consts  --      0.1284                 0.0992                 0.2623
 IR Inten    --     10.6842                 0.5911                 0.9347

                      7                      8                      9
                      A                      A                      A
 Frequencies --    392.3683               464.5817               585.8971
 Red. masses --      2.4968                 2.7516                 3.1455
 Frc consts  --      0.2265                 0.3499                 0.6362
 IR Inten    --      6.3091                 5.9127                 1.5359

                     10                     11                     12
                      A                      A                      A
 Frequencies --    619.6272               774.9816               801.8653
 Red. masses --      3.0455                 2.8880                 3.7935
 Frc consts  --      0.6889                 1.0219                 1.4371
 IR Inten    --      1.2857                 6.6148                 6.5543

                     13                     14                     15
                      A                      A                      A
 Frequencies --    826.0975               854.0553               883.7859
 Red. masses --      1.3961                 3.1414                 1.8511
 Frc consts  --      0.5613                 1.3500                 0.8519
 IR Inten    --     10.0743                 7.9363                 0.6975

                     16                     17                     18
                      A                      A                      A
 Frequencies --    897.7530               936.9575               994.9821
 Red. masses --      1.6713                 2.9385                 1.4266
 Frc consts  --      0.7936                 1.5199                 0.8321
 IR Inten    --      2.3825                 1.6094                 2.2490

                     19                     20                     21
                      A                      A                      A
 Frequencies --   1005.5956              1026.7879              1045.3013
 Red. masses --      3.0077                 1.6389                 1.6338
 Frc consts  --      1.7920                 1.0180                 1.0518
 IR Inten    --     26.0350                 0.8136                 0.3789

                     22                     23                     24
                      A                      A                      A
 Frequencies --   1068.5386              1072.1896              1104.1947
 Red. masses --      1.5701                 1.5300                 1.2227
 Frc consts  --      1.0562                 1.0363                 0.8783
 IR Inten    --      1.0759                 5.0709                 1.4313

                     25                     26                     27
                      A                      A                      A
 Frequencies --   1125.1162              1133.7226              1178.1972
 Red. masses --      1.7194                 1.9505                 1.3836
 Frc consts  --      1.2824                 1.4771                 1.1316
 IR Inten    --      2.6353                 1.1841                 6.2394

                     28                     29                     30
                      A                      A                      A
 Frequencies --   1203.2142              1213.5276              1251.8708
 Red. masses --      1.6674                 7.4635                 1.2927
 Frc consts  --      1.4222                 6.4757                 1.1937
 IR Inten    --     18.2091               390.7320                 1.6103

                     31                     32                     33
                      A                      A                      A
 Frequencies --   1303.1750              1307.6028              1323.5417
 Red. masses --      1.5795                 1.5857                 1.4532
 Frc consts  --      1.5805                 1.5975                 1.4999
 IR Inten    --      5.1121                 0.4391                 1.0187

                     34                     35                     36
                      A                      A                      A
 Frequencies --   1359.8516              1388.8049              1409.1536
 Red. masses --      1.5918                 1.7159                 1.1650
 Frc consts  --      1.7343                 1.9499                 1.3629
 IR Inten    --      0.6012                 3.8494                 2.4538

                     37                     38                     39
                      A                      A                      A
 Frequencies --   1414.4702              1488.4695              1492.1966
 Red. masses --      1.3509                 1.0970                 1.2002
 Frc consts  --      1.5924                 1.4319                 1.5745
 IR Inten    --      5.7293                 1.7379                 4.0299

                     40                     41                     42
                      A                      A                      A
 Frequencies --   1504.6026              1816.6561              3025.3876
 Red. masses --      1.1352                 9.5327                 1.0901
 Frc consts  --      1.5141                18.5358                 5.8787
 IR Inten    --      0.3252               262.3036                72.3764

                     43                     44                     45
                      A                      A                      A
 Frequencies --   3039.6201              3043.2388              3078.5901
 Red. masses --      1.0613                 1.0613                 1.1000
 Frc consts  --      5.7776                 5.7913                 6.1426
 IR Inten    --     31.4200                20.3888                 8.7747

                     46                     47                     48
                      A                      A                      A
 Frequencies --   3092.2072              3106.3466              3127.1365
 Red. masses --      1.0960                 1.0929                 1.0560
 Frc consts  --      6.1745                 6.2133                 6.0840
 IR Inten    --     13.0758                18.0458                19.7300

                     49                     50                     51
                      A                      A                      A
 Frequencies --   3169.3891              3177.3012              3210.7460
 Red. masses --      1.0885                 1.0946                 1.1140
 Frc consts  --      6.4424                 6.5107                 6.7664
 IR Inten    --     13.6108                15.7047                17.1694

 - Thermochemistry -
 -------------------
 Temperature   298.150 Kelvin.  Pressure   1.00000 Atm.
 Atom     1 has atomic number  8 and mass  15.99491

 Molecular mass:   126.06808 amu.
 Principal axes and moments of inertia in atomic units:
                           1         2         3
     Eigenvalues --   450.612931741.213161917.37960
           X            0.99993   0.00908  -0.00781
           Y           -0.00887   0.99963   0.02554
           Z            0.00804  -0.02546   0.99964
 This molecule is an asymmetric top.
 Rotational symmetry number  1.
 Warning -- assumption of classical behavior for rotation
           may cause significant error
 Rotational temperatures (Kelvin)      0.19221     0.04974     0.04517
 Rotational constants (GHZ):           4.00508     1.03648     0.94125
 Zero-point vibrational energy     422222.1 (Joules/Mol)
                                  100.91351 (Kcal/Mol)
 Warning -- explicit consideration of  10 degrees of freedom as
           vibrations may cause significant error
 Vibrational temperatures:     70.35   140.31   273.43   384.44   421.78
          (Kelvin)            508.64   564.53   668.43   842.97   891.50
                             1115.02  1153.70  1188.57  1228.79  1271.57
                             1291.66  1348.07  1431.56  1446.83  1477.32
                             1503.95  1537.39  1542.64  1588.69  1618.79
                             1631.17  1695.16  1731.15  1745.99  1801.16
                             1874.98  1881.35  1904.28  1956.52  1998.18
                             2027.46  2035.10  2141.57  2146.94  2164.78
                             2613.76  4352.85  4373.33  4378.54  4429.40
                             4448.99  4469.33  4499.25  4560.04  4571.42
                             4619.54

 Zero-point correction=                           0.160816 (Hartree/Particle)
 Thermal correction to Energy=                    0.168800
 Thermal correction to Enthalpy=                  0.169745
 Thermal correction to Gibbs Free Energy=         0.127521
 Sum of electronic and zero-point Energies=           -423.056624
 Sum of electronic and thermal Energies=              -423.048639
 Sum of electronic and thermal Enthalpies=            -423.047695
 Sum of electronic and thermal Free Energies=         -423.089918

                     E (Thermal)             CV                S
                      KCal/Mol        Cal/Mol-Kelvin    Cal/Mol-Kelvin
 Total                  105.924             30.333             88.867
 Electronic               0.000              0.000              0.000
 Translational            0.889              2.981             40.409
 Rotational               0.889              2.981             28.799
 Vibrational            104.146             24.371             19.659
 Vibration     1          0.595              1.978              4.861
 Vibration     2          0.603              1.951              3.503
 Vibration     3          0.633              1.854              2.227
 Vibration     4          0.672              1.733              1.614
 Vibration     5          0.688              1.686              1.456
 Vibration     6          0.730              1.568              1.150
 Vibration     7          0.760              1.486              0.991
 Vibration     8          0.822              1.329              0.753
 Vibration     9          0.943              1.062              0.475
 Vibration    10          0.980              0.990              0.417

 Optimization completed.
    -- Stationary point found.
 Normal termination of Gaussian 09 at Mon Jan 27 14:27:56 2020.
