 Gaussian 09, Revision D.01,
 Gaussian 09:  ES64L-G09RevD.01 24-Apr-2013

 -----------------------------
 # b3lyp 6-31G(2df,p) opt Freq
 -----------------------------

 -----
 titel
 -----
 Symbolic Z-matrix:
 Charge =  0 Multiplicity = 1

 SCF Done:  E(RB3LYP) =  -423.132231324     A.U. after   13 cycles
 Optimization completed.
    -- Stationary point found.
 Normal termination of Gaussian 09 at Mon Jan 27 11:14:30 2020.

 ----------------------------------------------------------------------
 #N Geom=AllCheck Guess=TCheck SCRF=Check GenChk RB3LYP/6-31G(2df,p) Fr
 eq
 ----------------------------------------------------------------------

 Structure from the checkpoint file:  "/scratch/puck/g09_e136a6da-57d5-468b-9a3b-2985da8589b5/Gau-162840.chk"
 -----
 titel
 -----
 Charge =  0 Multiplicity = 1

                         Standard orientation:
 ---------------------------------------------------------------------
 Center     Atomic      Atomic             Coordinates (Angstroms)
 Number     Number       Type             X           Y           Z
 ---------------------------------------------------------------------
      1          6           0       -1.871179   -1.095406   -0.046984
      2          6           0       -1.287971    0.042485   -0.942225
      3          6           0       -1.906271    1.044025    0.079561
      4          6           0       -1.249419   -0.068680    0.949331
      5          6           0       -0.036047    0.019602   -0.026471
      6          6           0        0.959306    1.202189    0.051481
      7          8           0        2.229611    0.624769   -0.211175
      8          6           0        2.105012   -0.714488    0.192097
      9          8           0        0.803511   -1.118101   -0.153929
     10          1           0       -2.961262   -1.172836   -0.028733
     11          1           0       -1.391324   -2.070527   -0.114302
     12          1           0       -1.301532    0.108961   -2.030989
     13          1           0       -1.484968    2.051066    0.130305
     14          1           0       -2.997428    1.075058    0.103408
     15          1           0       -1.221535   -0.128009    2.038699
     16          1           0        0.777028    1.974753   -0.698958
     17          1           0        0.938754    1.666786    1.049196
     18          1           0        2.832020   -1.324490   -0.351220
     19          1           0        2.264691   -0.812461    1.282683
 ---------------------------------------------------------------------

 SCF Done:  E(RB3LYP) =  -423.132231324     A.U. after    1 cycles

 The electronic state is 1-A.
 Alpha  occ. eigenvalues --  -19.14671 -19.14605 -10.27345 -10.24522 -10.23273
 Alpha  occ. eigenvalues --  -10.20060 -10.20004 -10.19263 -10.18559  -1.09098
 Alpha  occ. eigenvalues --   -0.99786  -0.91041  -0.74519  -0.67472  -0.63376
 Alpha  occ. eigenvalues --   -0.62784  -0.62232  -0.54262  -0.50479  -0.50407
 Alpha  occ. eigenvalues --   -0.49883  -0.45668  -0.44927  -0.41018  -0.40484
 Alpha  occ. eigenvalues --   -0.38124  -0.35689  -0.33724  -0.32911  -0.32139
 Alpha  occ. eigenvalues --   -0.31335  -0.30521  -0.26418  -0.25045
 Alpha virt. eigenvalues --    0.09390   0.10318   0.11933   0.12485   0.13078
 Alpha virt. eigenvalues --    0.13441   0.14253   0.14782   0.16042   0.16522
 Alpha virt. eigenvalues --    0.17384   0.18247   0.19893   0.20368   0.20732

 Mulliken charges:
               1
     1  C   -0.232274
     2  C   -0.116137
     3  C   -0.236559
     4  C   -0.124176
     5  C    0.481110
     6  C   -0.196167
     7  O   -0.239797
     8  C    0.001221
     9  O   -0.307118
    10  H    0.089045
    11  H    0.116909
    12  H    0.074793
    13  H    0.096562
    14  H    0.098705
    15  H    0.071025
    16  H    0.122723
    17  H    0.101195
    18  H    0.119348
    19  H    0.079594
 Sum of Mulliken charges =   0.00000

 Dipole moment (field-independent basis, Debye):
    X=             -0.9018    Y=              0.5067    Z=              0.6641  Tot=              1.2292
 Quadrupole moment (field-independent basis, Debye-Ang):
   XX=            -54.1300   YY=            -53.4879   ZZ=            -52.6029
   XY=             -2.6459   XZ=              1.4397   YZ=             -0.2662

  Exact polarizability:  86.136  -3.374  73.361   1.116  -0.088  65.663
 Approx polarizability: 112.893  -4.137 109.603  -0.075   0.110 102.869

                      1                      2                      3
                      A                      A                      A
 Frequencies --     50.7746               201.6247               243.6959
 Red. masses --      3.5423                 2.8326                 3.3527
 Frc consts  --      0.0054                 0.0678                 0.1173
 IR Inten    --      1.2617                 1.5200                 0.2952

                      4                      5                      6
                      A                      A                      A
 Frequencies --    273.4912               400.0654               427.5784
 Red. masses --      2.1029                 3.1497                 4.3236
 Frc consts  --      0.0927                 0.2970                 0.4657
 IR Inten    --      6.2341                 1.8014                 1.5216

                      7                      8                      9
                      A                      A                      A
 Frequencies --    542.3040               587.8527               745.1411
 Red. masses --      3.3074                 2.0263                 6.1161
 Frc consts  --      0.5731                 0.4126                 2.0008
 IR Inten    --      0.6818                 0.4190                 1.3059

                     10                     11                     12
                      A                      A                      A
 Frequencies --    767.1521               792.9728               803.8384
 Red. masses --      3.2436                 4.6110                 2.8359
 Frc consts  --      1.1247                 1.7083                 1.0796
 IR Inten    --      1.3282                 9.8745                 0.2460

                     13                     14                     15
                      A                      A                      A
 Frequencies --    882.1489               896.8859               904.4374
 Red. masses --      2.0866                 2.0365                 2.4612
 Frc consts  --      0.9567                 0.9652                 1.1862
 IR Inten    --      7.9076                 1.6414                 2.0538

                     16                     17                     18
                      A                      A                      A
 Frequencies --    982.4500               992.3168              1014.2924
 Red. masses --      3.7386                 1.5214                 1.1343
 Frc consts  --      2.1261                 0.8827                 0.6876
 IR Inten    --     72.3385                 5.4092                 3.8680

                     19                     20                     21
                      A                      A                      A
 Frequencies --   1016.5695              1030.3676              1055.7447
 Red. masses --      1.0387                 2.6989                 4.8441
 Frc consts  --      0.6324                 1.6882                 3.1811
 IR Inten    --      0.1956                16.2057                67.3724

                     22                     23                     24
                      A                      A                      A
 Frequencies --   1087.5145              1113.0146              1115.9479
 Red. masses --      1.3991                 2.5753                 2.3487
 Frc consts  --      0.9749                 1.8797                 1.7234
 IR Inten    --      0.9071                40.5770                 0.9863

                     25                     26                     27
                      A                      A                      A
 Frequencies --   1122.3277              1134.6901              1180.8491
 Red. masses --      2.5061                 2.7421                 2.1159
 Frc consts  --      1.8599                 2.0801                 1.7384
 IR Inten    --     70.6562                44.6046                71.2343

                     28                     29                     30
                      A                      A                      A
 Frequencies --   1188.7616              1193.8912              1204.7536
 Red. masses --      1.5637                 1.3840                 1.5174
 Frc consts  --      1.3019                 1.1623                 1.2976
 IR Inten    --     16.2051                 0.3975                44.4394

                     31                     32                     33
                      A                      A                      A
 Frequencies --   1228.1109              1243.7666              1246.7563
 Red. masses --      1.5292                 1.5359                 1.7855
 Frc consts  --      1.3589                 1.3999                 1.6352
 IR Inten    --     17.3524                10.3364                 2.0929

                     34                     35                     36
                      A                      A                      A
 Frequencies --   1262.9891              1306.0587              1362.6121
 Red. masses --      1.2532                 2.3683                 1.4125
 Frc consts  --      1.1778                 2.3802                 1.5452
 IR Inten    --      1.6143                34.2282                 1.5112

                     37                     38                     39
                      A                      A                      A
 Frequencies --   1432.8032              1499.6979              1513.4563
 Red. masses --      1.2855                 1.0933                 1.0895
 Frc consts  --      1.5549                 1.4488                 1.4703
 IR Inten    --      9.6533                 0.2224                 1.2007

                     40                     41                     42
                      A                      A                      A
 Frequencies --   1537.9529              1544.2675              2922.6215
 Red. masses --      1.1297                 1.1126                 1.0709
 Frc consts  --      1.5743                 1.5633                 5.3897
 IR Inten    --      6.4686                 2.5043               115.7633

                     43                     44                     45
                      A                      A                      A
 Frequencies --   2986.1599              3060.6477              3067.9839
 Red. masses --      1.0706                 1.0553                 1.0589
 Frc consts  --      5.6248                 5.8243                 5.8721
 IR Inten    --     44.3918                35.7691                45.8873

                     46                     47                     48
                      A                      A                      A
 Frequencies --   3089.5189              3095.4288              3099.1930
 Red. masses --      1.0926                 1.0945                 1.0904
 Frc consts  --      6.1443                 6.1791                 6.1706
 IR Inten    --     50.1115                13.7751                86.5042

                     49                     50                     51
                      A                      A                      A
 Frequencies --   3108.3456              3124.9147              3154.9974
 Red. masses --      1.0934                 1.1097                 1.1063
 Frc consts  --      6.2241                 6.3848                 6.4883
 IR Inten    --     18.4173                37.5474                20.3443

 - Thermochemistry -
 -------------------
 Temperature   298.150 Kelvin.  Pressure   1.00000 Atm.
 Atom     1 has atomic number  6 and mass  12.00000

 Molecular mass:   126.06808 amu.
 Principal axes and moments of inertia in atomic units:
                           1         2         3
     Eigenvalues --   472.876831261.043781484.75639
           X            0.99991  -0.01095   0.00769
           Y            0.01096   0.99994  -0.00072
           Z           -0.00768   0.00081   0.99997
 This molecule is an asymmetric top.
 Rotational symmetry number  1.
 Warning -- assumption of classical behavior for rotation
           may cause significant error
 Rotational temperatures (Kelvin)      0.18316     0.06868     0.05834
 Rotational constants (GHZ):           3.81651     1.43115     1.21551
 Zero-point vibrational energy     423727.7 (Joules/Mol)
                                  101.27335 (Kcal/Mol)
 Warning -- explicit consideration of   8 degrees of freedom as
           vibrations may cause significant error
 Vibrational temperatures:     73.05   290.09   350.62   393.49   575.60
          (Kelvin)            615.19   780.25   845.79  1072.09  1103.76
                             1140.91  1156.54  1269.21  1290.42  1301.28
                             1413.52  1427.72  1459.34  1462.61  1482.47
                             1518.98  1564.69  1601.38  1605.60  1614.78
                             1632.56  1698.98  1710.36  1717.74  1733.37
                             1766.98  1789.50  1793.80  1817.16  1879.12
                             1960.49  2061.48  2157.73  2177.52  2212.77
                             2221.85  4205.00  4296.41  4403.58  4414.14
                             4445.12  4453.63  4459.04  4472.21  4496.05
                             4539.33

 Zero-point correction=                           0.161389 (Hartree/Particle)
 Thermal correction to Energy=                    0.168521
 Thermal correction to Enthalpy=                  0.169465
 Thermal correction to Gibbs Free Energy=         0.129376
 Sum of electronic and zero-point Energies=           -422.970842
 Sum of electronic and thermal Energies=              -422.963710
 Sum of electronic and thermal Enthalpies=            -422.962766
 Sum of electronic and thermal Free Energies=         -423.002855

                     E (Thermal)             CV                S
                      KCal/Mol        Cal/Mol-Kelvin    Cal/Mol-Kelvin
 Total                  105.748             28.344             84.374
 Electronic               0.000              0.000              0.000
 Translational            0.889              2.981             40.409
 Rotational               0.889              2.981             28.273
 Vibrational            103.971             22.382             15.692
 Vibration     1          0.595              1.977              4.787
 Vibration     2          0.639              1.838              2.118
 Vibration     3          0.659              1.773              1.776
 Vibration     4          0.676              1.722              1.574
 Vibration     5          0.766              1.470              0.962
 Vibration     6          0.789              1.410              0.867
 Vibration     7          0.897              1.157              0.560
 Vibration     8          0.945              1.058              0.471

 Normal termination of Gaussian 09 at Mon Jan 27 11:57:08 2020.
