 Gaussian 09, Revision D.01,
 Gaussian 09:  ES64L-G09RevD.01 24-Apr-2013

 -----------------------------
 # b3lyp 6-31G(2df,p) opt Freq
 -----------------------------

 -----
 titel
 -----
 Symbolic Z-matrix:
 Charge =  0 Multiplicity = 1

 SCF Done:  E(RB3LYP) =  -423.179353896     A.U. after   13 cycles
 Optimization completed.
    -- Stationary point found.
 Normal termination of Gaussian 09 at Mon Jan 27 18:13:52 2020.

 ----------------------------------------------------------------------
 #N Geom=AllCheck Guess=TCheck SCRF=Check GenChk RB3LYP/6-31G(2df,p) Fr
 eq
 ----------------------------------------------------------------------

 Structure from the checkpoint file:  "/scratch/puck/g09_33eebd0d-37fc-404b-937d-b7237d708551/Gau-181877.chk"
 -----
 titel
 -----
 Charge =  0 Multiplicity = 1

                         Standard orientation:
 ---------------------------------------------------------------------
 Center     Atomic      Atomic             Coordinates (Angstroms)
 Number     Number       Type             X           Y           Z
 ---------------------------------------------------------------------
      1          6           0       -2.561014    0.081111   -0.330994
      2          6           0       -1.069363   -0.014700   -0.144529
      3          6           0       -0.236166   -0.964252   -0.998432
      4          6           0        1.096290   -0.969015   -0.221837
      5          6           0        1.854968    0.330160   -0.480893
      6          8           0        0.994764    1.456602   -0.296370
      7          6           0       -0.224598    1.157690    0.330213
      8          6           0       -0.369054   -0.059135    1.208446
      9          8           0        0.710413   -0.964245    1.160595
     10          1           0       -3.038403   -0.899873   -0.218390
     11          1           0       -3.011009    0.753982    0.406470
     12          1           0       -2.817276    0.465917   -1.325059
     13          1           0       -0.690117   -1.960688   -1.019085
     14          1           0       -0.103361   -0.618608   -2.028549
     15          1           0        1.728896   -1.841500   -0.395836
     16          1           0        2.701640    0.395399    0.215522
     17          1           0        2.242151    0.368075   -1.507399
     18          1           0       -0.731060    2.073640    0.616702
     19          1           0       -0.869253   -0.046365    2.169977
 ---------------------------------------------------------------------

 SCF Done:  E(RB3LYP) =  -423.179353896     A.U. after    1 cycles

 The electronic state is 1-A.
 Alpha  occ. eigenvalues --  -19.14431 -19.14269 -10.23698 -10.23081 -10.22848
 Alpha  occ. eigenvalues --  -10.22760 -10.19191 -10.18906 -10.18298  -1.06435
 Alpha  occ. eigenvalues --   -1.01809  -0.84854  -0.77948  -0.70973  -0.68517
 Alpha  occ. eigenvalues --   -0.64236  -0.56479  -0.53258  -0.51991  -0.47856
 Alpha  occ. eigenvalues --   -0.47233  -0.45713  -0.42670  -0.41070  -0.40793
 Alpha  occ. eigenvalues --   -0.39602  -0.38431  -0.37018  -0.34479  -0.33818
 Alpha  occ. eigenvalues --   -0.32082  -0.31272  -0.23115  -0.21729
 Alpha virt. eigenvalues --    0.08483   0.09854   0.11430   0.12168   0.12745
 Alpha virt. eigenvalues --    0.14594   0.14843   0.15897   0.16540   0.17014
 Alpha virt. eigenvalues --    0.18048   0.18721   0.19111   0.19194   0.20988

 Mulliken charges:
               1
     1  C   -0.494803
     2  C    0.234035
     3  C   -0.276972
     4  C    0.019076
     5  C   -0.056709
     6  O   -0.276071
     7  C    0.041033
     8  C    0.012545
     9  O   -0.262431
    10  H    0.118366
    11  H    0.116767
    12  H    0.121477
    13  H    0.104554
    14  H    0.108304
    15  H    0.087070
    16  H    0.104946
    17  H    0.098881
    18  H    0.100315
    19  H    0.099618
 Sum of Mulliken charges =   0.00000

 Dipole moment (field-independent basis, Debye):
    X=             -0.8780    Y=             -0.6649    Z=             -0.8626  Tot=              1.3989
 Quadrupole moment (field-independent basis, Debye-Ang):
   XX=            -50.5208   YY=            -55.3559   ZZ=            -53.1573
   XY=             -2.3129   XZ=             -2.7582   YZ=              3.3531

  Exact polarizability:  83.823  -1.694  68.281  -2.220   3.111  68.618
 Approx polarizability: 109.928  -1.798 105.224  -1.751   0.960 106.716

                      1                      2                      3
                      A                      A                      A
 Frequencies --    155.8460               195.7627               229.4833
 Red. masses --      2.8737                 1.1080                 2.6300
 Frc consts  --      0.0411                 0.0250                 0.0816
 IR Inten    --      4.7443                 0.0910                 1.1777

                      4                      5                      6
                      A                      A                      A
 Frequencies --    280.3073               358.7551               402.1880
 Red. masses --      2.4519                 2.3266                 3.4397
 Frc consts  --      0.1135                 0.1764                 0.3278
 IR Inten    --      0.4371                 0.6576                 2.6517

                      7                      8                      9
                      A                      A                      A
 Frequencies --    517.3203               531.5801               610.1344
 Red. masses --      3.9984                 2.8801                 4.4420
 Frc consts  --      0.6305                 0.4795                 0.9743
 IR Inten    --      1.2317                 1.8176                 0.4166

                     10                     11                     12
                      A                      A                      A
 Frequencies --    672.4911               721.2897               780.1657
 Red. masses --      5.9564                 4.1141                 3.7934
 Frc consts  --      1.5871                 1.2611                 1.3604
 IR Inten    --      9.3972                18.6581                18.1441

                     13                     14                     15
                      A                      A                      A
 Frequencies --    847.0929               869.3694               886.1689
 Red. masses --      2.9281                 2.3425                 2.8084
 Frc consts  --      1.2379                 1.0431                 1.2994
 IR Inten    --      7.1006                11.3346                19.5996

                     16                     17                     18
                      A                      A                      A
 Frequencies --    917.4449               925.8924               980.9456
 Red. masses --      2.1657                 2.3229                 1.7936
 Frc consts  --      1.0740                 1.1733                 1.0169
 IR Inten    --     13.9174                16.8198                11.6065

                     19                     20                     21
                      A                      A                      A
 Frequencies --   1005.4438              1031.2006              1041.8865
 Red. masses --      1.6543                 2.4338                 1.5776
 Frc consts  --      0.9853                 1.5249                 1.0090
 IR Inten    --      1.2781                14.8755                 7.8051

                     22                     23                     24
                      A                      A                      A
 Frequencies --   1053.1918              1092.6985              1116.1254
 Red. masses --      1.6669                 1.7318                 3.3142
 Frc consts  --      1.0893                 1.2183                 2.4325
 IR Inten    --      6.2863                 4.8789                 9.4298

                     25                     26                     27
                      A                      A                      A
 Frequencies --   1124.0399              1175.6438              1202.2561
 Red. masses --      1.8232                 2.6713                 1.7816
 Frc consts  --      1.3572                 2.1753                 1.5173
 IR Inten    --      1.6275                68.1983                 7.9117

                     28                     29                     30
                      A                      A                      A
 Frequencies --   1224.3286              1248.6913              1265.6752
 Red. masses --      1.8201                 1.2147                 1.7686
 Frc consts  --      1.6075                 1.1159                 1.6693
 IR Inten    --     61.7380                 2.4645                10.2539

                     31                     32                     33
                      A                      A                      A
 Frequencies --   1298.5832              1310.7119              1340.8864
 Red. masses --      1.9798                 1.3975                 1.6491
 Frc consts  --      1.9670                 1.4145                 1.7470
 IR Inten    --     11.3777                 1.7382                 0.8109

                     34                     35                     36
                      A                      A                      A
 Frequencies --   1362.9133              1404.4622              1418.0918
 Red. masses --      1.4828                 1.4534                 1.2633
 Frc consts  --      1.6229                 1.6890                 1.4968
 IR Inten    --      6.0845                 2.4611                 0.5778

                     37                     38                     39
                      A                      A                      A
 Frequencies --   1446.8207              1488.8415              1490.3057
 Red. masses --      2.1300                 1.0985                 1.0870
 Frc consts  --      2.6270                 1.4346                 1.4224
 IR Inten    --     10.9241                 3.1203                 4.2674

                     40                     41                     42
                      A                      A                      A
 Frequencies --   1502.0018              1509.0688              3006.2643
 Red. masses --      1.1132                 1.0903                 1.0566
 Frc consts  --      1.4797                 1.4629                 5.6265
 IR Inten    --      7.1922                 0.6433                74.3417

                     43                     44                     45
                      A                      A                      A
 Frequencies --   3018.7712              3042.6534              3046.2880
 Red. masses --      1.0358                 1.0655                 1.1011
 Frc consts  --      5.5616                 5.8117                 6.0203
 IR Inten    --     35.6755                12.6032                52.3240

                     46                     47                     48
                      A                      A                      A
 Frequencies --   3078.3023              3090.2642              3092.3229
 Red. masses --      1.1010                 1.1051                 1.1001
 Frc consts  --      6.1471                 6.2180                 6.1982
 IR Inten    --     23.0807                25.7508                18.0205

                     49                     50                     51
                      A                      A                      A
 Frequencies --   3101.9935              3163.2877              3180.7698
 Red. masses --      1.0892                 1.0897                 1.0934
 Frc consts  --      6.1749                 6.4242                 6.5174
 IR Inten    --     41.8193                12.6072                21.8958

 - Thermochemistry -
 -------------------
 Temperature   298.150 Kelvin.  Pressure   1.00000 Atm.
 Atom     1 has atomic number  6 and mass  12.00000

 Molecular mass:   126.06808 amu.
 Principal axes and moments of inertia in atomic units:
                           1         2         3
     Eigenvalues --   628.499401039.860891149.25193
           X            0.99978  -0.01616  -0.01311
           Y            0.01796   0.98830   0.15146
           Z            0.01051  -0.15166   0.98838
 This molecule is an asymmetric top.
 Rotational symmetry number  1.
 Warning -- assumption of classical behavior for rotation
           may cause significant error
 Rotational temperatures (Kelvin)      0.13781     0.08329     0.07537
 Rotational constants (GHZ):           2.87151     1.73556     1.57036
 Zero-point vibrational energy     423819.1 (Joules/Mol)
                                  101.29520 (Kcal/Mol)
 Warning -- explicit consideration of   9 degrees of freedom as
           vibrations may cause significant error
 Vibrational temperatures:    224.23   281.66   330.17   403.30   516.17
          (Kelvin)            578.66   744.31   764.82   877.85   967.56
                             1037.77  1122.48  1218.78  1250.83  1275.00
                             1320.00  1332.15  1411.36  1446.61  1483.67
                             1499.04  1515.31  1572.15  1605.85  1617.24
                             1691.49  1729.78  1761.53  1796.59  1821.02
                             1868.37  1885.82  1929.23  1960.93  2020.71
                             2040.32  2081.65  2142.11  2144.21  2161.04
                             2171.21  4325.34  4343.33  4377.69  4382.92
                             4428.98  4446.20  4449.16  4463.07  4551.26
                             4576.41

 Zero-point correction=                           0.161424 (Hartree/Particle)
 Thermal correction to Energy=                    0.168640
 Thermal correction to Enthalpy=                  0.169584
 Thermal correction to Gibbs Free Energy=         0.130152
 Sum of electronic and zero-point Energies=           -423.017930
 Sum of electronic and thermal Energies=              -423.010714
 Sum of electronic and thermal Enthalpies=            -423.009770
 Sum of electronic and thermal Free Energies=         -423.049202

                     E (Thermal)             CV                S
                      KCal/Mol        Cal/Mol-Kelvin    Cal/Mol-Kelvin
 Total                  105.823             29.248             82.991
 Electronic               0.000              0.000              0.000
 Translational            0.889              2.981             40.409
 Rotational               0.889              2.981             28.109
 Vibrational            104.046             23.286             14.474
 Vibration     1          0.620              1.896              2.600
 Vibration     2          0.636              1.846              2.173
 Vibration     3          0.652              1.796              1.883
 Vibration     4          0.680              1.710              1.532
 Vibration     5          0.734              1.557              1.127
 Vibration     6          0.768              1.465              0.955
 Vibration     7          0.872              1.212              0.616
 Vibration     8          0.887              1.180              0.584
 Vibration     9          0.969              1.010              0.433

 Optimization completed.
    -- Stationary point found.
 Normal termination of Gaussian 09 at Mon Jan 27 19:00:46 2020.
