 Gaussian 09, Revision D.01,
 Gaussian 09:  ES64L-G09RevD.01 24-Apr-2013

 -----------------------------
 # b3lyp 6-31G(2df,p) opt Freq
 -----------------------------

 -----
 titel
 -----
 Symbolic Z-matrix:
 Charge =  0 Multiplicity = 1

 SCF Done:  E(RB3LYP) =  -423.141186892     A.U. after   14 cycles
 Optimization completed.
    -- Stationary point found.
 Normal termination of Gaussian 09 at Mon Jan 27 13:59:14 2020.

 ----------------------------------------------------------------------
 #N Geom=AllCheck Guess=TCheck SCRF=Check GenChk RB3LYP/6-31G(2df,p) Fr
 eq
 ----------------------------------------------------------------------

 Structure from the checkpoint file:  "/scratch/puck/g09_883eb1d4-4f2f-4fb9-917d-8820e9d9757e/Gau-3922.chk"
 -----
 titel
 -----
 Charge =  0 Multiplicity = 1

                         Standard orientation:
 ---------------------------------------------------------------------
 Center     Atomic      Atomic             Coordinates (Angstroms)
 Number     Number       Type             X           Y           Z
 ---------------------------------------------------------------------
      1          8           0        4.065446    0.332751   -0.060977
      2          6           0        3.019461   -0.253160   -0.147100
      3          6           0        1.689973    0.330023    0.297053
      4          8           0        0.687260   -0.626498    0.042084
      5          6           0       -0.590394   -0.213085    0.422208
      6          6           0       -1.687611   -0.869648   -0.348703
      7          6           0       -3.047565   -0.485812    0.242909
      8          6           0       -2.706550    1.026985    0.012661
      9          6           0       -1.354780    0.615418   -0.579302
     10          1           0        2.937949   -1.281408   -0.563404
     11          1           0        1.754407    0.580690    1.368814
     12          1           0        1.511823    1.272395   -0.244337
     13          1           0       -0.694007   -0.019264    1.495048
     14          1           0       -1.469287   -1.724532   -0.976718
     15          1           0       -3.886289   -0.816172   -0.372856
     16          1           0       -3.228935   -0.800600    1.276063
     17          1           0       -3.371519    1.494873   -0.715946
     18          1           0       -2.665148    1.663266    0.903473
     19          1           0       -0.845843    1.076408   -1.417351
 ---------------------------------------------------------------------

 SCF Done:  E(RB3LYP) =  -423.141186892     A.U. after    1 cycles

 The electronic state is 1-A.
 Alpha  occ. eigenvalues --  -19.16100 -19.14471 -10.27580 -10.24466 -10.24205
 Alpha  occ. eigenvalues --  -10.19534 -10.19506 -10.19169 -10.19141  -1.06147
 Alpha  occ. eigenvalues --   -1.04920  -0.89612  -0.75719  -0.70508  -0.66002
 Alpha  occ. eigenvalues --   -0.59521  -0.58452  -0.54185  -0.53110  -0.49065
 Alpha  occ. eigenvalues --   -0.47647  -0.46483  -0.44928  -0.43889  -0.42691
 Alpha  occ. eigenvalues --   -0.38810  -0.37616  -0.36496  -0.34544  -0.33282
 Alpha  occ. eigenvalues --   -0.30457  -0.27009  -0.25726  -0.25202
 Alpha virt. eigenvalues --   -0.02818   0.08162   0.09183   0.10731   0.11349
 Alpha virt. eigenvalues --    0.12769   0.13490   0.14098   0.14642   0.16505
 Alpha virt. eigenvalues --    0.16681   0.18734   0.19117   0.19408   0.23166

 Mulliken charges:
               1
     1  O   -0.238114
     2  C    0.138752
     3  C   -0.152253
     4  O   -0.266406
     5  C    0.128914
     6  C   -0.082690
     7  C   -0.237863
     8  C   -0.236844
     9  C   -0.084533
    10  H    0.097518
    11  H    0.124342
    12  H    0.126098
    13  H    0.078086
    14  H    0.096724
    15  H    0.110496
    16  H    0.099047
    17  H    0.110455
    18  H    0.097462
    19  H    0.090808
 Sum of Mulliken charges =   0.00000

 Dipole moment (field-independent basis, Debye):
    X=             -2.8767    Y=              0.1311    Z=              0.1425  Tot=              2.8832
 Quadrupole moment (field-independent basis, Debye-Ang):
   XX=            -65.1067   YY=            -53.2712   ZZ=            -51.3107
   XY=             -2.3509   XZ=              0.6510   YZ=              0.1777

  Exact polarizability:  99.093   1.750  70.038  -0.640   2.002  62.715
 Approx polarizability: 121.836   6.519 108.401   0.436   2.318  96.338

                      1                      2                      3
                      A                      A                      A
 Frequencies --     46.4184                53.7498               100.6811
 Red. masses --      5.3039                 2.0751                 4.7329
 Frc consts  --      0.0067                 0.0035                 0.0283
 IR Inten    --      2.3284                 6.8930                 0.9691

                      4                      5                      6
                      A                      A                      A
 Frequencies --    111.5028               255.9816               262.6729
 Red. masses --      2.5068                 2.5122                 2.1929
 Frc consts  --      0.0184                 0.0970                 0.0891
 IR Inten    --      6.8855                 2.0328                 0.8664

                      7                      8                      9
                      A                      A                      A
 Frequencies --    297.2853               344.3067               518.1175
 Red. masses --      3.9713                 5.1221                 3.7596
 Frc consts  --      0.2068                 0.3578                 0.5946
 IR Inten    --      5.1558                 2.8942                16.5609

                     10                     11                     12
                      A                      A                      A
 Frequencies --    576.8018               703.8461               736.9941
 Red. masses --      5.0434                 3.5992                 1.2742
 Frc consts  --      0.9886                 1.0505                 0.4078
 IR Inten    --      3.8470                 4.4445                 0.3392

                     13                     14                     15
                      A                      A                      A
 Frequencies --    772.6463               812.9762               890.7376
 Red. masses --      1.2374                 1.8612                 1.8499
 Frc consts  --      0.4352                 0.7248                 0.8648
 IR Inten    --      3.3790                 0.9757                16.4743

                     16                     17                     18
                      A                      A                      A
 Frequencies --    899.2998               945.7128               963.7390
 Red. masses --      2.1589                 2.9373                 1.8691
 Frc consts  --      1.0287                 1.5478                 1.0229
 IR Inten    --     17.4621                 1.3575                 0.2266

                     19                     20                     21
                      A                      A                      A
 Frequencies --   1006.1018              1015.3702              1032.5712
 Red. masses --      1.2258                 1.8414                 2.8664
 Frc consts  --      0.7310                 1.1186                 1.8007
 IR Inten    --      4.7830                 0.8765                32.6193

                     22                     23                     24
                      A                      A                      A
 Frequencies --   1072.6787              1102.5906              1112.0392
 Red. masses --      2.5932                 2.7366                 1.6889
 Frc consts  --      1.7580                 1.9602                 1.2305
 IR Inten    --     23.2317                10.5249                 7.5825

                     25                     26                     27
                      A                      A                      A
 Frequencies --   1113.3928              1122.5419              1183.3681
 Red. masses --      1.8258                 1.5663                 2.5843
 Frc consts  --      1.3335                 1.1629                 2.1323
 IR Inten    --      3.9192                11.0038                88.1986

                     28                     29                     30
                      A                      A                      A
 Frequencies --   1209.3329              1224.1095              1233.6226
 Red. masses --      2.7384                 1.1993                 1.1123
 Frc consts  --      2.3596                 1.0588                 0.9973
 IR Inten    --     61.5754                 0.0923                 3.2636

                     31                     32                     33
                      A                      A                      A
 Frequencies --   1245.1653              1250.1844              1288.5103
 Red. masses --      1.4884                 1.5499                 1.6679
 Frc consts  --      1.3597                 1.4272                 1.6316
 IR Inten    --      6.0444                 6.7896                 1.5515

                     34                     35                     36
                      A                      A                      A
 Frequencies --   1312.3023              1349.3709              1402.9082
 Red. masses --      1.2456                 1.4020                 1.3640
 Frc consts  --      1.2638                 1.5041                 1.5818
 IR Inten    --     21.5203                15.4651                18.3667

                     37                     38                     39
                      A                      A                      A
 Frequencies --   1436.6353              1480.2986              1482.2630
 Red. masses --      2.0480                 1.0850                 1.1279
 Frc consts  --      2.4905                 1.4008                 1.4601
 IR Inten    --     39.6061                 0.2156                 9.2274

                     40                     41                     42
                      A                      A                      A
 Frequencies --   1500.6392              1844.9727              2899.7772
 Red. masses --      1.1231                10.6655                 1.0844
 Frc consts  --      1.4902                21.3899                 5.3726
 IR Inten    --      0.2957               172.3877                80.5086

                     43                     44                     45
                      A                      A                      A
 Frequencies --   2973.9976              3008.4967              3039.2161
 Red. masses --      1.0567                 1.1012                 1.0866
 Frc consts  --      5.5067                 5.8723                 5.9134
 IR Inten    --     35.7217                24.6058                27.3805

                     46                     47                     48
                      A                      A                      A
 Frequencies --   3040.7615              3050.1048              3099.7692
 Red. masses --      1.0632                 1.0646                 1.1020
 Frc consts  --      5.7920                 5.8354                 6.2385
 IR Inten    --     43.5592                69.7214                 1.8741

                     49                     50                     51
                      A                      A                      A
 Frequencies --   3117.9853              3181.4360              3194.2646
 Red. masses --      1.1022                 1.0892                 1.0957
 Frc consts  --      6.3131                 6.4954                 6.5869
 IR Inten    --     40.9340                14.3647                11.5851

 - Thermochemistry -
 -------------------
 Temperature   298.150 Kelvin.  Pressure   1.00000 Atm.
 Atom     1 has atomic number  8 and mass  15.99491

 Molecular mass:   126.06808 amu.
 Principal axes and moments of inertia in atomic units:
                           1         2         3
     Eigenvalues --   265.196932702.367852822.35911
           X            0.99999  -0.00434  -0.00117
           Y            0.00437   0.99950   0.03139
           Z            0.00104  -0.03139   0.99951
 This molecule is an asymmetric top.
 Rotational symmetry number  1.
 Rotational temperatures (Kelvin)      0.32660     0.03205     0.03069
 Rotational constants (GHZ):           6.80529     0.66784     0.63944
 Zero-point vibrational energy     412234.6 (Joules/Mol)
                                   98.52644 (Kcal/Mol)
 Warning -- explicit consideration of  10 degrees of freedom as
           vibrations may cause significant error
 Vibrational temperatures:     66.79    77.33   144.86   160.43   368.30
          (Kelvin)            377.93   427.73   495.38   745.45   829.89
                             1012.68  1060.37  1111.66  1169.69  1281.57
                             1293.89  1360.67  1386.60  1447.55  1460.89
                             1485.64  1543.34  1586.38  1599.97  1601.92
                             1615.09  1702.60  1739.96  1761.22  1774.91
                             1791.51  1798.73  1853.88  1888.11  1941.44
                             2018.47  2067.00  2129.82  2132.64  2159.08
                             2654.50  4172.13  4278.91  4328.55  4372.75
                             4374.97  4388.42  4459.87  4486.08  4577.37
                             4595.83

 Zero-point correction=                           0.157012 (Hartree/Particle)
 Thermal correction to Energy=                    0.166031
 Thermal correction to Enthalpy=                  0.166975
 Thermal correction to Gibbs Free Energy=         0.121679
 Sum of electronic and zero-point Energies=           -422.984175
 Sum of electronic and thermal Energies=              -422.975156
 Sum of electronic and thermal Enthalpies=            -422.974212
 Sum of electronic and thermal Free Energies=         -423.019508

                     E (Thermal)             CV                S
                      KCal/Mol        Cal/Mol-Kelvin    Cal/Mol-Kelvin
 Total                  104.186             32.111             95.335
 Electronic               0.000              0.000              0.000
 Translational            0.889              2.981             40.409
 Rotational               0.889              2.981             29.094
 Vibrational            102.408             26.149             25.833
 Vibration     1          0.595              1.979              4.964
 Vibration     2          0.596              1.976              4.674
 Vibration     3          0.604              1.949              3.441
 Vibration     4          0.607              1.940              3.243
 Vibration     5          0.666              1.753              1.689
 Vibration     6          0.670              1.741              1.644
 Vibration     7          0.691              1.679              1.432
 Vibration     8          0.723              1.587              1.192
 Vibration     9          0.873              1.210              0.614
 Vibration    10          0.933              1.081              0.491

 Optimization completed.
    -- Stationary point found.
 Normal termination of Gaussian 09 at Mon Jan 27 15:35:46 2020.
