 Gaussian 09, Revision D.01,
 Gaussian 09:  ES64L-G09RevD.01 24-Apr-2013

 -----------------------------
 # b3lyp 6-31G(2df,p) opt Freq
 -----------------------------

 -----
 titel
 -----
 Symbolic Z-matrix:
 Charge =  0 Multiplicity = 1

 SCF Done:  E(RB3LYP) =  -423.245537728     A.U. after   14 cycles
 Optimization completed.
    -- Stationary point found.
 Normal termination of Gaussian 09 at Mon Jan 27 22:03:43 2020.

 ----------------------------------------------------------------------
 #N Geom=AllCheck Guess=TCheck SCRF=Check GenChk RB3LYP/6-31G(2df,p) Fr
 eq
 ----------------------------------------------------------------------

 Structure from the checkpoint file:  "/scratch/puck/g09_c41d0d01-bc94-407d-ae60-b7ad43b41b73/Gau-72698.chk"
 -----
 titel
 -----
 Charge =  0 Multiplicity = 1

                         Standard orientation:
 ---------------------------------------------------------------------
 Center     Atomic      Atomic             Coordinates (Angstroms)
 Number     Number       Type             X           Y           Z
 ---------------------------------------------------------------------
      1          6           0       -1.684484    1.717199    0.207150
      2          6           0       -0.707850    0.663941   -0.307039
      3          6           0        0.708865    0.663397    0.307772
      4          6           0        1.686229    1.715830   -0.206558
      5          6           0        1.207190   -0.776487    0.112817
      6          8           0        2.361827   -1.109396    0.042048
      7          6           0       -0.000994   -1.704389    0.003900
      8          6           0       -1.207859   -0.775500   -0.112735
      9          8           0       -2.363083   -1.107627   -0.048282
     10          1           0       -1.772911    1.665148    1.297593
     11          1           0       -1.358748    2.726098   -0.060418
     12          1           0       -2.678163    1.547801   -0.214190
     13          1           0       -0.595815    0.779460   -1.398691
     14          1           0        0.596870    0.778915    1.399426
     15          1           0        2.679812    1.545952    0.214815
     16          1           0        1.774739    1.663413   -1.296968
     17          1           0        1.361134    2.725011    0.060743
     18          1           0        0.084912   -2.365033   -0.865408
     19          1           0       -0.088357   -2.354525    0.881129
 ---------------------------------------------------------------------

 SCF Done:  E(RB3LYP) =  -423.245537728     A.U. after    1 cycles

 The electronic state is 1-A.
 Alpha  occ. eigenvalues --  -19.14227 -19.14226 -10.27936 -10.27933 -10.20921
 Alpha  occ. eigenvalues --  -10.20901 -10.20481 -10.18745 -10.18740  -1.05472
 Alpha  occ. eigenvalues --   -1.05112  -0.85321  -0.76872  -0.74807  -0.66552
 Alpha  occ. eigenvalues --   -0.63195  -0.54515  -0.54092  -0.49746  -0.47196
 Alpha  occ. eigenvalues --   -0.46153  -0.45322  -0.43931  -0.42721  -0.40646
 Alpha  occ. eigenvalues --   -0.39536  -0.38437  -0.38211  -0.37446  -0.35795
 Alpha  occ. eigenvalues --   -0.35430  -0.33895  -0.26660  -0.24050
 Alpha virt. eigenvalues --   -0.03954  -0.01675   0.08141   0.10720   0.10806
 Alpha virt. eigenvalues --    0.12310   0.15090   0.15101   0.15587   0.16318
 Alpha virt. eigenvalues --    0.16989   0.17661   0.20328   0.22449   0.22840

 Mulliken charges:
               1
     1  C   -0.406039
     2  C   -0.103095
     3  C   -0.103328
     4  C   -0.405971
     5  C    0.384918
     6  O   -0.308722
     7  C   -0.443849
     8  C    0.385146
     9  O   -0.308812
    10  H    0.121726
    11  H    0.119510
    12  H    0.142197
    13  H    0.108319
    14  H    0.108129
    15  H    0.142100
    16  H    0.121804
    17  H    0.119450
    18  H    0.163206
    19  H    0.163309
 Sum of Mulliken charges =   0.00000

 Dipole moment (field-independent basis, Debye):
    X=              0.0003    Y=              1.6316    Z=              0.0142  Tot=              1.6316
 Quadrupole moment (field-independent basis, Debye-Ang):
   XX=            -68.1349   YY=            -52.1003   ZZ=            -50.1660
   XY=              0.0046   XZ=              0.2616   YZ=             -0.0210

  Exact polarizability:  86.254  -0.002  81.256  -0.934  -0.007  58.433
 Approx polarizability: 129.210  -0.015 108.286  -2.340   0.007  93.843

                      1                      2                      3
                      A                      A                      A
 Frequencies --     37.6705                64.4633               176.9284
 Red. masses --      3.1810                 3.8695                 1.0361
 Frc consts  --      0.0027                 0.0095                 0.0191
 IR Inten    --     12.6212                 0.0907                 0.0814

                      4                      5                      6
                      A                      A                      A
 Frequencies --    183.5647               228.9522               245.9262
 Red. masses --      1.0209                 2.5839                 2.9865
 Frc consts  --      0.0203                 0.0798                 0.1064
 IR Inten    --      0.0031                 2.1623                 1.0476

                      7                      8                      9
                      A                      A                      A
 Frequencies --    279.9758               349.7814               425.9105
 Red. masses --      3.0431                 5.1894                 4.5977
 Frc consts  --      0.1405                 0.3741                 0.4914
 IR Inten    --      0.6861                11.4300                 3.1094

                     10                     11                     12
                      A                      A                      A
 Frequencies --    429.6239               530.8013               580.9222
 Red. masses --      2.3699                 3.0653                 8.1307
 Frc consts  --      0.2577                 0.5089                 1.6166
 IR Inten    --      2.3803                 4.8142                 3.0967

                     13                     14                     15
                      A                      A                      A
 Frequencies --    599.4705               608.3117               753.5016
 Red. masses --      3.7539                 3.0597                 2.6075
 Frc consts  --      0.7948                 0.6671                 0.8722
 IR Inten    --      3.8680                 1.9175                 6.1515

                     16                     17                     18
                      A                      A                      A
 Frequencies --    763.3641               866.8133               870.5046
 Red. masses --      2.3416                 2.0928                 1.9173
 Frc consts  --      0.8039                 0.9265                 0.8560
 IR Inten    --      0.2472                 1.6284                 7.6471

                     19                     20                     21
                      A                      A                      A
 Frequencies --    976.8002               997.1552              1005.9116
 Red. masses --      1.2831                 1.1454                 3.3862
 Frc consts  --      0.7213                 0.6710                 2.0187
 IR Inten    --      7.3329                 0.0318                 6.0891

                     22                     23                     24
                      A                      A                      A
 Frequencies --   1072.0309              1103.3889              1144.5548
 Red. masses --      2.1958                 2.0368                 2.1149
 Frc consts  --      1.4868                 1.4610                 1.6323
 IR Inten    --      9.4171                 2.9871                 2.8317

                     25                     26                     27
                      A                      A                      A
 Frequencies --   1166.9451              1169.0940              1204.2574
 Red. masses --      1.7170                 2.6738                 3.1726
 Frc consts  --      1.3776                 2.1532                 2.7108
 IR Inten    --      0.5684                28.3072               119.1376

                     28                     29                     30
                      A                      A                      A
 Frequencies --   1227.8064              1260.1728              1282.3057
 Red. masses --      1.6858                 1.5424                 1.3566
 Frc consts  --      1.4973                 1.4431                 1.3143
 IR Inten    --      1.0485                 1.0442                 6.5340

                     31                     32                     33
                      A                      A                      A
 Frequencies --   1334.5078              1355.8018              1398.8261
 Red. masses --      1.8692                 1.6936                 1.0761
 Frc consts  --      1.9613                 1.8343                 1.2406
 IR Inten    --      2.5599                 5.4746                16.7164

                     34                     35                     36
                      A                      A                      A
 Frequencies --   1405.7385              1412.5257              1492.5308
 Red. masses --      1.2279                 1.2116                 1.0434
 Frc consts  --      1.4297                 1.4243                 1.3695
 IR Inten    --      6.2256                 1.4546                12.3539

                     37                     38                     39
                      A                      A                      A
 Frequencies --   1493.4085              1495.6941              1497.1121
 Red. masses --      1.0530                 1.0470                 1.0443
 Frc consts  --      1.3837                 1.3800                 1.3790
 IR Inten    --      0.5024                 3.5407                 8.8630

                     40                     41                     42
                      A                      A                      A
 Frequencies --   1828.8848              1863.2117              2964.7467
 Red. masses --     12.5742                12.7976                 1.0781
 Frc consts  --     24.7802                26.1759                 5.5832
 IR Inten    --    346.5687                33.8826                 3.1125

                     43                     44                     45
                      A                      A                      A
 Frequencies --   2978.6486              3041.8656              3042.8896
 Red. masses --      1.0816                 1.0363                 1.0367
 Frc consts  --      5.6541                 5.6493                 5.6556
 IR Inten    --     19.4954                15.8539                22.0884

                     46                     47                     48
                      A                      A                      A
 Frequencies --   3057.7059              3097.7042              3108.8955
 Red. masses --      1.0610                 1.1004                 1.1007
 Frc consts  --      5.8446                 6.2212                 6.2678
 IR Inten    --      0.1022                 0.0240                27.7287

                     49                     50                     51
                      A                      A                      A
 Frequencies --   3110.3468              3128.8011              3129.6258
 Red. masses --      1.1002                 1.1011                 1.1014
 Frc consts  --      6.2708                 6.3507                 6.3561
 IR Inten    --     15.0492                17.4066                 5.1523

 - Thermochemistry -
 -------------------
 Temperature   298.150 Kelvin.  Pressure   1.00000 Atm.
 Atom     1 has atomic number  6 and mass  12.00000

 Molecular mass:   126.06808 amu.
 Principal axes and moments of inertia in atomic units:
                           1         2         3
     Eigenvalues --   784.822981184.372201878.98454
           X            0.99998   0.00009  -0.00573
           Y           -0.00009   1.00000  -0.00011
           Z            0.00573   0.00011   0.99998
 This molecule is an asymmetric top.
 Rotational symmetry number  1.
 Warning -- assumption of classical behavior for rotation
           may cause significant error
 Rotational temperatures (Kelvin)      0.11036     0.07313     0.04610
 Rotational constants (GHZ):           2.29955     1.52380     0.96049
 Zero-point vibrational energy     411792.8 (Joules/Mol)
                                   98.42084 (Kcal/Mol)
 Warning -- explicit consideration of  14 degrees of freedom as
           vibrations may cause significant error
 Vibrational temperatures:     54.20    92.75   254.56   264.11   329.41
          (Kelvin)            353.83   402.82   503.26   612.79   618.13
                              763.70   835.82   862.50   875.22  1084.12
                             1098.31  1247.15  1252.46  1405.40  1434.68
                             1447.28  1542.41  1587.53  1646.76  1678.97
                             1682.06  1732.66  1766.54  1813.11  1844.95
                             1920.06  1950.69  2012.60  2022.54  2032.31
                             2147.42  2148.68  2151.97  2154.01  2631.35
                             2680.74  4265.60  4285.61  4376.56  4378.03
                             4399.35  4456.90  4473.00  4475.09  4501.64
                             4502.83

 Zero-point correction=                           0.156844 (Hartree/Particle)
 Thermal correction to Energy=                    0.166247
 Thermal correction to Enthalpy=                  0.167191
 Thermal correction to Gibbs Free Energy=         0.121864
 Sum of electronic and zero-point Energies=           -423.088694
 Sum of electronic and thermal Energies=              -423.079291
 Sum of electronic and thermal Enthalpies=            -423.078347
 Sum of electronic and thermal Free Energies=         -423.123673

                     E (Thermal)             CV                S
                      KCal/Mol        Cal/Mol-Kelvin    Cal/Mol-Kelvin
 Total                  104.322             34.218             95.398
 Electronic               0.000              0.000              0.000
 Translational            0.889              2.981             40.409
 Rotational               0.889              2.981             28.948
 Vibrational            102.544             28.257             26.042
 Vibration     1          0.594              1.982              5.378
 Vibration     2          0.597              1.971              4.316
 Vibration     3          0.628              1.871              2.361
 Vibration     4          0.631              1.862              2.292
 Vibration     5          0.652              1.797              1.887
 Vibration     6          0.660              1.770              1.760
 Vibration     7          0.680              1.711              1.534
 Vibration     8          0.727              1.576              1.167
 Vibration     9          0.788              1.414              0.872
 Vibration    10          0.791              1.406              0.860
 Vibration    11          0.886              1.182              0.585
 Vibration    12          0.938              1.073              0.484
 Vibration    13          0.958              1.033              0.451
 Vibration    14          0.967              1.014              0.436

 Normal termination of Gaussian 09 at Mon Jan 27 22:47:26 2020.
