 Gaussian 09, Revision D.01,
 Gaussian 09:  ES64L-G09RevD.01 24-Apr-2013

 -----------------------------
 # b3lyp 6-31G(2df,p) opt Freq
 -----------------------------

 -----
 titel
 -----
 Symbolic Z-matrix:
 Charge =  0 Multiplicity = 1

 SCF Done:  E(RB3LYP) =  -423.205334509     A.U. after   14 cycles
 Optimization completed.
    -- Stationary point found.
 Normal termination of Gaussian 09 at Tue Jan 28 00:50:07 2020.

 ----------------------------------------------------------------------
 #N Geom=AllCheck Guess=TCheck SCRF=Check GenChk RB3LYP/6-31G(2df,p) Fr
 eq
 ----------------------------------------------------------------------

 Structure from the checkpoint file:  "/scratch/puck/g09_a3dcc619-c5e2-4711-830a-7bbca5e3aba2/Gau-38629.chk"
 -----
 titel
 -----
 Charge =  0 Multiplicity = 1

                         Standard orientation:
 ---------------------------------------------------------------------
 Center     Atomic      Atomic             Coordinates (Angstroms)
 Number     Number       Type             X           Y           Z
 ---------------------------------------------------------------------
      1          6           0       -2.828248    0.545238   -0.237453
      2          6           0       -1.604916   -0.335073   -0.493947
      3          8           0       -0.457540    0.480490   -0.782968
      4          6           0        0.622076    0.202233    0.113063
      5          6           0        1.097262    1.473153    0.817005
      6          6           0        1.755905   -0.429694   -0.711873
      7          8           0        2.923835   -0.370846   -0.433301
      8          6           0        0.068101   -0.858568    1.039868
      9          6           0       -1.173245   -1.166771    0.684715
     10          1           0       -3.007277    1.195832   -1.097890
     11          1           0       -3.719839   -0.071248   -0.081340
     12          1           0       -2.674039    1.169850    0.647037
     13          1           0       -1.808023   -0.970911   -1.370541
     14          1           0        1.326554    2.243982    0.076233
     15          1           0        0.321357    1.848421    1.488310
     16          1           0        2.005931    1.265819    1.387102
     17          1           0        1.378831   -0.978274   -1.603876
     18          1           0        0.648808   -1.277245    1.851443
     19          1           0       -1.824268   -1.886486    1.165406
 ---------------------------------------------------------------------

 SCF Done:  E(RB3LYP) =  -423.205334509     A.U. after    1 cycles

 The electronic state is 1-A.
 Alpha  occ. eigenvalues --  -19.14504 -19.14321 -10.26757 -10.24959 -10.24527
 Alpha  occ. eigenvalues --  -10.19987 -10.19894 -10.18228 -10.17843  -1.05400
 Alpha  occ. eigenvalues --   -1.04048  -0.80345  -0.79530  -0.72451  -0.66447
 Alpha  occ. eigenvalues --   -0.61813  -0.58006  -0.54908  -0.51419  -0.47819
 Alpha  occ. eigenvalues --   -0.46599  -0.44140  -0.43090  -0.42503  -0.39751
 Alpha  occ. eigenvalues --   -0.39093  -0.38010  -0.37872  -0.37061  -0.34722
 Alpha  occ. eigenvalues --   -0.32911  -0.28744  -0.27744  -0.23274
 Alpha virt. eigenvalues --   -0.03373   0.01815   0.09567   0.11061   0.12001
 Alpha virt. eigenvalues --    0.12588   0.14723   0.14827   0.15430   0.16868
 Alpha virt. eigenvalues --    0.17210   0.18640   0.19663   0.20310   0.21357

 Mulliken charges:
               1
     1  C   -0.390248
     2  C    0.069788
     3  O   -0.314763
     4  C    0.239756
     5  C   -0.420649
     6  C    0.131807
     7  O   -0.250316
     8  C   -0.130884
     9  C   -0.096256
    10  H    0.130423
    11  H    0.114305
    12  H    0.122006
    13  H    0.087727
    14  H    0.131680
    15  H    0.117190
    16  H    0.137417
    17  H    0.085223
    18  H    0.121623
    19  H    0.114171
 Sum of Mulliken charges =   0.00000

 Dipole moment (field-independent basis, Debye):
    X=             -2.8255    Y=             -0.7646    Z=              0.9788  Tot=              3.0864
 Quadrupole moment (field-independent basis, Debye-Ang):
   XX=            -59.3499   YY=            -52.0003   ZZ=            -52.0064
   XY=              2.6452   XZ=              1.2210   YZ=             -0.0436

  Exact polarizability: 101.116   5.168  67.227   4.680   0.537  67.065
 Approx polarizability: 147.982  10.809  96.787  10.613  -0.551 101.370

                      1                      2                      3
                      A                      A                      A
 Frequencies --     64.5575                67.1033               170.6955
 Red. masses --      3.8526                 4.5357                 2.2774
 Frc consts  --      0.0095                 0.0120                 0.0391
 IR Inten    --      0.9642                 5.5270                 1.3195

                      4                      5                      6
                      A                      A                      A
 Frequencies --    200.6972               232.1331               243.9235
 Red. masses --      1.0731                 1.0644                 3.4572
 Frc consts  --      0.0255                 0.0338                 0.1212
 IR Inten    --      0.1050                 0.4108                 6.8773

                      7                      8                      9
                      A                      A                      A
 Frequencies --    303.7073               319.1353               348.0975
 Red. masses --      2.5935                 2.5558                 2.8447
 Frc consts  --      0.1409                 0.1534                 0.2031
 IR Inten    --      3.5286                 2.3493                 1.4512

                     10                     11                     12
                      A                      A                      A
 Frequencies --    444.4168               476.8906               569.9812
 Red. masses --      3.6086                 4.4783                 3.0896
 Frc consts  --      0.4199                 0.6001                 0.5914
 IR Inten    --      7.5102                 3.0012                 2.5231

                     13                     14                     15
                      A                      A                      A
 Frequencies --    706.9639               735.8336               780.6399
 Red. masses --      3.2314                 2.7771                 1.4965
 Frc consts  --      0.9515                 0.8859                 0.5373
 IR Inten    --      4.0933                16.4372                38.0536

                     16                     17                     18
                      A                      A                      A
 Frequencies --    818.1732               861.6782               884.5366
 Red. masses --      5.2623                 2.8438                 2.1316
 Frc consts  --      2.0755                 1.2441                 0.9826
 IR Inten    --      6.4096                 5.2925                 4.5984

                     19                     20                     21
                      A                      A                      A
 Frequencies --    932.1005               962.7068               974.3700
 Red. masses --      2.1362                 1.2816                 1.9445
 Frc consts  --      1.0935                 0.6998                 1.0877
 IR Inten    --     23.7493                 0.0864                13.0828

                     22                     23                     24
                      A                      A                      A
 Frequencies --    994.0158              1050.6874              1087.9104
 Red. masses --      1.7013                 1.5841                 1.5367
 Frc consts  --      0.9904                 1.0303                 1.0716
 IR Inten    --      6.8552                14.8830                 7.7807

                     25                     26                     27
                      A                      A                      A
 Frequencies --   1116.5807              1131.1037              1173.3572
 Red. masses --      2.4838                 2.2102                 1.9433
 Frc consts  --      1.8245                 1.6660                 1.5764
 IR Inten    --     39.8866                71.3909                23.7158

                     28                     29                     30
                      A                      A                      A
 Frequencies --   1188.8926              1207.3360              1324.3726
 Red. masses --      3.0719                 2.9993                 1.5353
 Frc consts  --      2.5583                 2.5759                 1.5865
 IR Inten    --      0.1322                12.8314                 8.1140

                     31                     32                     33
                      A                      A                      A
 Frequencies --   1354.0416              1374.9326              1384.3438
 Red. masses --      1.5520                 1.4241                 1.2037
 Frc consts  --      1.6766                 1.5862                 1.3592
 IR Inten    --      2.0538                16.9360                 1.3372

                     34                     35                     36
                      A                      A                      A
 Frequencies --   1399.5504              1402.8115              1480.7930
 Red. masses --      1.2500                 1.2550                 1.0536
 Frc consts  --      1.4425                 1.4551                 1.3612
 IR Inten    --      3.9414                11.8644                 2.7703

                     37                     38                     39
                      A                      A                      A
 Frequencies --   1485.7479              1488.7411              1495.0823
 Red. masses --      1.0536                 1.0514                 1.0500
 Frc consts  --      1.3703                 1.3730                 1.3829
 IR Inten    --      5.4553                 1.9821                 2.1809

                     40                     41                     42
                      A                      A                      A
 Frequencies --   1682.3948              1831.3775              2888.4598
 Red. masses --      7.0052                10.9662                 1.0849
 Frc consts  --     11.6822                21.6701                 5.3329
 IR Inten    --      1.1379               178.4320                83.4565

                     43                     44                     45
                      A                      A                      A
 Frequencies --   2971.0612              3038.4881              3050.8511
 Red. masses --      1.0826                 1.0346                 1.0338
 Frc consts  --      5.6307                 5.6277                 5.6691
 IR Inten    --     52.9809                17.9007                12.1354

                     46                     47                     48
                      A                      A                      A
 Frequencies --   3112.5897              3123.8589              3128.2552
 Red. masses --      1.1009                 1.1031                 1.1026
 Frc consts  --      6.2842                 6.3422                 6.3571
 IR Inten    --     20.6119                18.6119                15.7507

                     49                     50                     51
                      A                      A                      A
 Frequencies --   3138.1064              3207.5915              3233.7765
 Red. masses --      1.1025                 1.0860                 1.1059
 Frc consts  --      6.3967                 6.5832                 6.8137
 IR Inten    --      9.6185                 1.5148                 5.3046

 - Thermochemistry -
 -------------------
 Temperature   298.150 Kelvin.  Pressure   1.00000 Atm.
 Atom     1 has atomic number  6 and mass  12.00000

 Molecular mass:   126.06808 amu.
 Principal axes and moments of inertia in atomic units:
                           1         2         3
     Eigenvalues --   532.277431601.513521676.87425
           X            0.99987   0.00651   0.01456
           Y           -0.00822   0.99267   0.12060
           Z           -0.01367  -0.12070   0.99259
 This molecule is an asymmetric top.
 Rotational symmetry number  1.
 Warning -- assumption of classical behavior for rotation
           may cause significant error
 Rotational temperatures (Kelvin)      0.16272     0.05408     0.05165
 Rotational constants (GHZ):           3.39060     1.12690     1.07625
 Zero-point vibrational energy     410591.0 (Joules/Mol)
                                   98.13360 (Kcal/Mol)
 Warning -- explicit consideration of  12 degrees of freedom as
           vibrations may cause significant error
 Vibrational temperatures:     92.88    96.55   245.59   288.76   333.99
          (Kelvin)            350.95   436.97   459.16   500.83   639.42
                              686.14   820.07  1017.16  1058.70  1123.17
                             1177.17  1239.76  1272.65  1341.08  1385.12
                             1401.90  1430.17  1511.70  1565.26  1606.51
                             1627.40  1688.20  1710.55  1737.09  1905.47
                             1948.16  1978.22  1991.76  2013.64  2018.33
                             2130.53  2137.66  2141.96  2151.09  2420.59
                             2634.94  4155.84  4274.69  4371.70  4389.49
                             4478.32  4494.53  4500.86  4515.03  4615.00
                             4652.68

 Zero-point correction=                           0.156386 (Hartree/Particle)
 Thermal correction to Energy=                    0.165744
 Thermal correction to Enthalpy=                  0.166688
 Thermal correction to Gibbs Free Energy=         0.121976
 Sum of electronic and zero-point Energies=           -423.048949
 Sum of electronic and thermal Energies=              -423.039590
 Sum of electronic and thermal Enthalpies=            -423.038646
 Sum of electronic and thermal Free Energies=         -423.083359

                     E (Thermal)             CV                S
                      KCal/Mol        Cal/Mol-Kelvin    Cal/Mol-Kelvin
 Total                  104.006             34.310             94.106
 Electronic               0.000              0.000              0.000
 Translational            0.889              2.981             40.409
 Rotational               0.889              2.981             28.749
 Vibrational            102.229             28.348             24.949
 Vibration     1          0.597              1.971              4.313
 Vibration     2          0.598              1.970              4.237
 Vibration     3          0.626              1.879              2.428
 Vibration     4          0.638              1.839              2.127
 Vibration     5          0.653              1.792              1.862
 Vibration     6          0.659              1.773              1.774
 Vibration     7          0.695              1.667              1.396
 Vibration     8          0.705              1.637              1.315
 Vibration     9          0.726              1.579              1.175
 Vibration    10          0.804              1.373              0.813
 Vibration    11          0.833              1.301              0.719
 Vibration    12          0.926              1.096              0.504

 Optimization completed.
    -- Stationary point found.
 Normal termination of Gaussian 09 at Tue Jan 28 02:51:42 2020.
