 Gaussian 09, Revision D.01,
 Gaussian 09:  ES64L-G09RevD.01 24-Apr-2013

 -----------------------------
 # b3lyp 6-31G(2df,p) opt Freq
 -----------------------------

 -----
 titel
 -----
 Symbolic Z-matrix:
 Charge =  0 Multiplicity = 1

 SCF Done:  E(RB3LYP) =  -423.132706318     A.U. after   13 cycles
 Optimization completed.
    -- Stationary point found.
 Normal termination of Gaussian 09 at Mon Jan 27 18:45:51 2020.

 ----------------------------------------------------------------------
 #N Geom=AllCheck Guess=TCheck SCRF=Check GenChk RB3LYP/6-31G(2df,p) Fr
 eq
 ----------------------------------------------------------------------

 Structure from the checkpoint file:  "/scratch/puck/g09_41ea22bf-53dd-4997-af6b-d96545647139/Gau-19322.chk"
 -----
 titel
 -----
 Charge =  0 Multiplicity = 1

                         Standard orientation:
 ---------------------------------------------------------------------
 Center     Atomic      Atomic             Coordinates (Angstroms)
 Number     Number       Type             X           Y           Z
 ---------------------------------------------------------------------
      1          8           0        1.040895    1.476940    0.787749
      2          6           0        0.522724    0.615680   -0.214027
      3          6           0        1.647189   -0.308800   -0.792499
      4          6           0        1.316263   -1.333350    0.361287
      5          6           0       -0.056994   -0.661211    0.429262
      6          6           0       -1.283034   -0.182171    1.215960
      7          6           0       -1.711956    0.068448   -0.271967
      8          6           0       -0.774676    1.159379   -0.872355
      9          8           0       -0.950299   -1.122948   -0.632584
     10          1           0        1.598938    2.131894    0.356055
     11          1           0        1.405936   -0.710925   -1.776207
     12          1           0        2.653214    0.117578   -0.798763
     13          1           0        1.327521   -2.399731    0.130566
     14          1           0        1.917099   -1.133223    1.249572
     15          1           0       -1.879399   -0.983105    1.654600
     16          1           0       -1.154992    0.662166    1.895066
     17          1           0       -2.757240    0.042780   -0.580673
     18          1           0       -0.805201    1.113633   -1.963506
     19          1           0       -0.987734    2.179158   -0.541990
 ---------------------------------------------------------------------

 SCF Done:  E(RB3LYP) =  -423.132706318     A.U. after    1 cycles

 The electronic state is 1-A.
 Alpha  occ. eigenvalues --  -19.13978 -19.12847 -10.23682 -10.22796 -10.22636
 Alpha  occ. eigenvalues --  -10.18609 -10.18507 -10.18478 -10.18011  -1.05205
 Alpha  occ. eigenvalues --   -1.01854  -0.82074  -0.76628  -0.71219  -0.64502
 Alpha  occ. eigenvalues --   -0.62791  -0.56967  -0.53448  -0.49990  -0.46920
 Alpha  occ. eigenvalues --   -0.46239  -0.45732  -0.42476  -0.39862  -0.39358
 Alpha  occ. eigenvalues --   -0.37415  -0.35895  -0.34564  -0.33463  -0.32030
 Alpha  occ. eigenvalues --   -0.31163  -0.28331  -0.26638  -0.23216
 Alpha virt. eigenvalues --    0.07594   0.09395   0.11407   0.11907   0.12629
 Alpha virt. eigenvalues --    0.13960   0.13987   0.15558   0.16078   0.17001
 Alpha virt. eigenvalues --    0.17292   0.19286   0.19718   0.21320   0.21550

 Mulliken charges:
               1
     1  O   -0.486742
     2  C    0.397331
     3  C   -0.301236
     4  C   -0.347225
     5  C    0.410708
     6  C   -0.337999
     7  C    0.068228
     8  C   -0.308682
     9  O   -0.329180
    10  H    0.280393
    11  H    0.121992
    12  H    0.088843
    13  H    0.110653
    14  H    0.123668
    15  H    0.109200
    16  H    0.116851
    17  H    0.080319
    18  H    0.106366
    19  H    0.096512
 Sum of Mulliken charges =   0.00000

 Dipole moment (field-independent basis, Debye):
    X=              0.6118    Y=              1.4351    Z=             -0.2750  Tot=              1.5842
 Quadrupole moment (field-independent basis, Debye-Ang):
   XX=            -49.3516   YY=            -52.2467   ZZ=            -54.3719
   XY=              0.0984   XZ=             -1.6112   YZ=             -3.1247

  Exact polarizability:  82.719  -2.004  72.813  -1.166  -2.069  68.509
 Approx polarizability: 114.084  -0.019 109.868   0.975   1.553 104.774

                      1                      2                      3
                      A                      A                      A
 Frequencies --    193.8805               257.5990               269.3009
 Red. masses --      2.7314                 1.4382                 1.7175
 Frc consts  --      0.0605                 0.0562                 0.0734
 IR Inten    --      2.3331                42.3513                49.2882

                      4                      5                      6
                      A                      A                      A
 Frequencies --    310.0583               373.6380               412.8911
 Red. masses --      2.8621                 2.3678                 2.5138
 Frc consts  --      0.1621                 0.1948                 0.2525
 IR Inten    --      2.7143                 7.3073                 3.7075

                      7                      8                      9
                      A                      A                      A
 Frequencies --    470.5766               513.1260               564.9381
 Red. masses --      3.0411                 2.6592                 4.1674
 Frc consts  --      0.3968                 0.4125                 0.7836
 IR Inten    --      3.6879                 1.8723                 2.3900

                     10                     11                     12
                      A                      A                      A
 Frequencies --    616.0199               683.0706               747.0245
 Red. masses --      3.8494                 1.9660                 2.4851
 Frc consts  --      0.8607                 0.5405                 0.8171
 IR Inten    --      3.4300                 0.8588                 4.3220

                     13                     14                     15
                      A                      A                      A
 Frequencies --    809.6034               823.8733               870.6244
 Red. masses --      2.7025                 2.9208                 2.3529
 Frc consts  --      1.0437                 1.1681                 1.0508
 IR Inten    --      3.6164                22.9103                 0.0847

                     16                     17                     18
                      A                      A                      A
 Frequencies --    877.9874               892.5176               904.8974
 Red. masses --      2.6785                 3.0265                 2.5929
 Frc consts  --      1.2165                 1.4205                 1.2509
 IR Inten    --     17.4960                 6.4169                 1.4262

                     19                     20                     21
                      A                      A                      A
 Frequencies --    936.7883               965.7657               989.3765
 Red. masses --      2.6692                 1.9180                 2.5690
 Frc consts  --      1.3801                 1.0540                 1.4816
 IR Inten    --     19.3352                 7.0062                28.2488

                     22                     23                     24
                      A                      A                      A
 Frequencies --   1002.4769              1049.2094              1092.1576
 Red. masses --      1.9204                 1.5346                 1.6327
 Frc consts  --      1.1371                 0.9953                 1.1474
 IR Inten    --     10.6093                27.6326                 3.0094

                     25                     26                     27
                      A                      A                      A
 Frequencies --   1123.2343              1150.3805              1170.4464
 Red. masses --      1.5882                 1.7087                 1.9345
 Frc consts  --      1.1806                 1.3323                 1.5614
 IR Inten    --     18.0132                 1.8007                 4.4905

                     28                     29                     30
                      A                      A                      A
 Frequencies --   1192.3291              1206.6324              1213.6759
 Red. masses --      1.6209                 1.4326                 1.8383
 Frc consts  --      1.3577                 1.2289                 1.5954
 IR Inten    --      5.9610                 6.7312                62.8617

                     31                     32                     33
                      A                      A                      A
 Frequencies --   1240.1592              1245.1022              1250.4949
 Red. masses --      1.5391                 1.6052                 1.5905
 Frc consts  --      1.3947                 1.4662                 1.4654
 IR Inten    --     23.7223                16.0505                 8.9749

                     34                     35                     36
                      A                      A                      A
 Frequencies --   1272.1955              1300.1260              1329.0077
 Red. masses --      1.6320                 1.5802                 2.5944
 Frc consts  --      1.5562                 1.5738                 2.6999
 IR Inten    --      2.6497                 9.0114                 6.1301

                     37                     38                     39
                      A                      A                      A
 Frequencies --   1360.5835              1456.6517              1466.0801
 Red. masses --      1.7417                 1.0931                 1.1035
 Frc consts  --      1.8996                 1.3665                 1.3975
 IR Inten    --      9.5828                 1.2054                 3.6017

                     40                     41                     42
                      A                      A                      A
 Frequencies --   1474.8661              1481.8297              3064.2627
 Red. masses --      1.1566                 1.1582                 1.0581
 Frc consts  --      1.4823                 1.4984                 5.8535
 IR Inten    --      2.7750                 2.2657                23.5946

                     43                     44                     45
                      A                      A                      A
 Frequencies --   3071.0297              3081.4101              3084.7470
 Red. masses --      1.0607                 1.0559                 1.0584
 Frc consts  --      5.8940                 5.9069                 5.9337
 IR Inten    --     42.0350                22.6355                27.8866

                     46                     47                     48
                      A                      A                      A
 Frequencies --   3119.9102              3121.8188              3137.8205
 Red. masses --      1.1061                 1.0926                 1.1077
 Frc consts  --      6.3437                 6.2738                 6.4257
 IR Inten    --     18.8257                48.5295                 2.3775

                     49                     50                     51
                      A                      A                      A
 Frequencies --   3152.3321              3154.2097              3809.5885
 Red. masses --      1.1077                 1.1105                 1.0664
 Frc consts  --      6.4853                 6.5093                 9.1182
 IR Inten    --      9.3352                32.3230                22.7634

 - Thermochemistry -
 -------------------
 Temperature   298.150 Kelvin.  Pressure   1.00000 Atm.
 Atom     1 has atomic number  8 and mass  15.99491

 Molecular mass:   126.06808 amu.
 Principal axes and moments of inertia in atomic units:
                           1         2         3
     Eigenvalues --   698.10146 908.663001091.93905
           X            0.99628  -0.08255  -0.02473
           Y            0.08077   0.99453  -0.06618
           Z            0.03006   0.06394   0.99750
 This molecule is an asymmetric top.
 Rotational symmetry number  1.
 Warning -- assumption of classical behavior for rotation
           may cause significant error
 Rotational temperatures (Kelvin)      0.12407     0.09532     0.07932
 Rotational constants (GHZ):           2.58521     1.98615     1.65279
 Zero-point vibrational energy     420836.2 (Joules/Mol)
                                  100.58228 (Kcal/Mol)
 Warning -- explicit consideration of  10 degrees of freedom as
           vibrations may cause significant error
 Vibrational temperatures:    278.95   370.63   387.46   446.10   537.58
          (Kelvin)            594.06   677.05   738.27   812.82   886.31
                              982.78  1074.80  1164.84  1185.37  1252.63
                             1263.23  1284.13  1301.94  1347.83  1389.52
                             1423.49  1442.34  1509.58  1571.37  1616.08
                             1655.14  1684.01  1715.49  1736.07  1746.21
                             1784.31  1791.42  1799.18  1830.40  1870.59
                             1912.14  1957.57  2095.79  2109.36  2122.00
                             2132.02  4408.79  4418.52  4433.46  4438.26
                             4488.85  4491.60  4514.62  4535.50  4538.20
                             5481.14

 Zero-point correction=                           0.160288 (Hartree/Particle)
 Thermal correction to Energy=                    0.167488
 Thermal correction to Enthalpy=                  0.168433
 Thermal correction to Gibbs Free Energy=         0.129375
 Sum of electronic and zero-point Energies=           -422.972418
 Sum of electronic and thermal Energies=              -422.965218
 Sum of electronic and thermal Enthalpies=            -422.964274
 Sum of electronic and thermal Free Energies=         -423.003331

                     E (Thermal)             CV                S
                      KCal/Mol        Cal/Mol-Kelvin    Cal/Mol-Kelvin
 Total                  105.101             30.489             82.204
 Electronic               0.000              0.000              0.000
 Translational            0.889              2.981             40.409
 Rotational               0.889              2.981             28.029
 Vibrational            103.323             24.527             13.767
 Vibration     1          0.635              1.848              2.190
 Vibration     2          0.667              1.750              1.678
 Vibration     3          0.674              1.730              1.601
 Vibration     4          0.699              1.655              1.362
 Vibration     5          0.745              1.526              1.065
 Vibration     6          0.777              1.442              0.916
 Vibration     7          0.828              1.315              0.736
 Vibration     8          0.868              1.221              0.626
 Vibration     9          0.921              1.107              0.514
 Vibration    10          0.976              0.998              0.423

 Optimization completed.
    -- Stationary point found.
 Normal termination of Gaussian 09 at Mon Jan 27 20:35:06 2020.
