 Gaussian 09, Revision D.01,
 Gaussian 09:  ES64L-G09RevD.01 24-Apr-2013

 -----------------------------
 # b3lyp 6-31G(2df,p) opt Freq
 -----------------------------

 -----
 titel
 -----
 Symbolic Z-matrix:
 Charge =  0 Multiplicity = 1

 SCF Done:  E(RB3LYP) =  -423.145201157     A.U. after   14 cycles
 Optimization completed.
    -- Stationary point found.
 Normal termination of Gaussian 09 at Tue Jan 28 12:45:52 2020.

 ----------------------------------------------------------------------
 #N Geom=AllCheck Guess=TCheck SCRF=Check GenChk RB3LYP/6-31G(2df,p) Fr
 eq
 ----------------------------------------------------------------------

 Structure from the checkpoint file:  "/scratch/puck/g09_ebbbd9cd-112b-4818-a6d0-564152697f2c/Gau-92344.chk"
 -----
 titel
 -----
 Charge =  0 Multiplicity = 1

                         Standard orientation:
 ---------------------------------------------------------------------
 Center     Atomic      Atomic             Coordinates (Angstroms)
 Number     Number       Type             X           Y           Z
 ---------------------------------------------------------------------
      1          8           0       -3.042142    0.178034   -0.504948
      2          6           0       -2.247621   -0.540273    0.438238
      3          6           0       -0.789477   -0.303184    0.245428
      4          6           0        0.228102   -1.140766    0.020161
      5          6           0        1.445348   -0.198936   -0.087994
      6          8           0        2.700476   -0.715700   -0.389331
      7          6           0        0.853352    0.922693   -0.991969
      8          6           0       -0.103170    1.075669    0.241202
      9          6           0        1.157858    0.770296    1.120311
     10          1           0       -2.749163   -0.089425   -1.382647
     11          1           0       -2.574937   -0.169941    1.417711
     12          1           0       -2.460455   -1.619948    0.409529
     13          1           0        0.244982   -2.219244   -0.070235
     14          1           0        2.919017   -1.387837    0.264948
     15          1           0        1.535872    1.767671   -1.120867
     16          1           0        0.411914    0.620264   -1.944303
     17          1           0       -0.718189    1.960166    0.389268
     18          1           0        1.866367    1.602391    1.174332
     19          1           0        0.991563    0.324241    2.104238
 ---------------------------------------------------------------------

 SCF Done:  E(RB3LYP) =  -423.145201157     A.U. after    1 cycles

 The electronic state is 1-A.
 Alpha  occ. eigenvalues --  -19.14336 -19.13526 -10.24490 -10.23157 -10.19559
 Alpha  occ. eigenvalues --  -10.18430 -10.18346 -10.18263 -10.17873  -1.02995
 Alpha  occ. eigenvalues --   -1.01451  -0.89137  -0.75100  -0.68705  -0.66140
 Alpha  occ. eigenvalues --   -0.64280  -0.55679  -0.53815  -0.52116  -0.48826
 Alpha  occ. eigenvalues --   -0.46524  -0.44889  -0.43476  -0.41519  -0.39800
 Alpha  occ. eigenvalues --   -0.37720  -0.34910  -0.34337  -0.33079  -0.32675
 Alpha  occ. eigenvalues --   -0.30910  -0.27555  -0.25978  -0.22852
 Alpha virt. eigenvalues --    0.00256   0.07864   0.08654   0.11355   0.12595
 Alpha virt. eigenvalues --    0.13311   0.14734   0.15150   0.15986   0.17303
 Alpha virt. eigenvalues --    0.17895   0.20091   0.20879   0.21009   0.21822

 Mulliken charges:
               1
     1  O   -0.412117
     2  C   -0.201639
     3  C    0.342101
     4  C   -0.316418
     5  C    0.386190
     6  O   -0.482006
     7  C   -0.237737
     8  C   -0.122841
     9  C   -0.274598
    10  H    0.281096
    11  H    0.115255
    12  H    0.092791
    13  H    0.099293
    14  H    0.279479
    15  H    0.100618
    16  H    0.088143
    17  H    0.077832
    18  H    0.097871
    19  H    0.086687
 Sum of Mulliken charges =   0.00000

 Dipole moment (field-independent basis, Debye):
    X=              0.5615    Y=             -1.2552    Z=              0.7001  Tot=              1.5430
 Quadrupole moment (field-independent basis, Debye-Ang):
   XX=            -61.0234   YY=            -49.7472   ZZ=            -51.1412
   XY=              0.7031   XZ=              4.1703   YZ=             -0.8762

  Exact polarizability:  89.970  -1.363  74.758  -0.510  -0.622  66.971
 Approx polarizability: 128.155 -11.950 116.190  -2.821   0.594 102.660

                      1                      2                      3
                      A                      A                      A
 Frequencies --     73.6044               122.3587               226.6520
 Red. masses --      3.9832                 4.2399                 1.6581
 Frc consts  --      0.0127                 0.0374                 0.0502
 IR Inten    --      2.5411                 0.0307                15.6125

                      4                      5                      6
                      A                      A                      A
 Frequencies --    245.6627               310.1178               348.3161
 Red. masses --      1.3882                 3.2646                 2.5569
 Frc consts  --      0.0494                 0.1850                 0.1828
 IR Inten    --     78.8945                17.2494                40.2732

                      7                      8                      9
                      A                      A                      A
 Frequencies --    360.7800               437.6546               513.7432
 Red. masses --      1.5602                 2.5346                 2.4858
 Frc consts  --      0.1197                 0.2860                 0.3866
 IR Inten    --     64.0293                28.9799                 6.8200

                     10                     11                     12
                      A                      A                      A
 Frequencies --    525.7045               568.8967               650.9912
 Red. masses --      2.2794                 2.8570                 3.9020
 Frc consts  --      0.3712                 0.5448                 0.9743
 IR Inten    --      1.3434                 4.1869                 3.4702

                     13                     14                     15
                      A                      A                      A
 Frequencies --    676.4658               787.6134               804.4495
 Red. masses --      3.2198                 2.4135                 1.9799
 Frc consts  --      0.8681                 0.8821                 0.7549
 IR Inten    --     13.1331                 8.6890                10.2254

                     16                     17                     18
                      A                      A                      A
 Frequencies --    834.8308               862.1490               914.3071
 Red. masses --      2.4166                 3.0273                 2.3522
 Frc consts  --      0.9923                 1.3258                 1.1586
 IR Inten    --      0.3579                 3.1618                14.5164

                     19                     20                     21
                      A                      A                      A
 Frequencies --    941.2479               969.6991               999.7901
 Red. masses --      2.2684                 1.6797                 2.6549
 Frc consts  --      1.1841                 0.9306                 1.5636
 IR Inten    --      4.9177                21.6327                 6.5900

                     22                     23                     24
                      A                      A                      A
 Frequencies --   1009.7464              1041.9013              1053.2761
 Red. masses --      1.6068                 4.5626                 1.1158
 Frc consts  --      0.9652                 2.9182                 0.7294
 IR Inten    --     15.5457                68.0023                 2.9880

                     25                     26                     27
                      A                      A                      A
 Frequencies --   1090.1238              1128.2993              1135.2032
 Red. masses --      1.5452                 1.7420                 1.6157
 Frc consts  --      1.0819                 1.3066                 1.2268
 IR Inten    --      8.6129                18.8958                 4.2665

                     28                     29                     30
                      A                      A                      A
 Frequencies --   1159.2658              1185.2681              1214.4876
 Red. masses --      1.5071                 1.3593                 1.6318
 Frc consts  --      1.1933                 1.1251                 1.4181
 IR Inten    --      2.3903                22.4549                 3.7788

                     31                     32                     33
                      A                      A                      A
 Frequencies --   1221.5242              1236.7952              1288.2378
 Red. masses --      1.4248                 1.4491                 2.9116
 Frc consts  --      1.2526                 1.3060                 2.8469
 IR Inten    --      0.0062                 8.2543               116.5130

                     34                     35                     36
                      A                      A                      A
 Frequencies --   1323.5292              1358.4526              1372.0145
 Red. masses --      2.0648                 1.5116                 1.6056
 Frc consts  --      2.1310                 1.6435                 1.7808
 IR Inten    --    122.2467                 3.0959                12.7034

                     37                     38                     39
                      A                      A                      A
 Frequencies --   1415.2781              1477.3862              1495.9044
 Red. masses --      1.2349                 1.1067                 1.0876
 Frc consts  --      1.4574                 1.4232                 1.4339
 IR Inten    --     73.8382                 1.6894                 0.6352

                     40                     41                     42
                      A                      A                      A
 Frequencies --   1518.8837              1688.6499              2986.4902
 Red. masses --      1.1597                 7.6620                 1.0661
 Frc consts  --      1.5763                12.8727                 5.6022
 IR Inten    --      4.5074                 1.9438                61.2056

                     43                     44                     45
                      A                      A                      A
 Frequencies --   3046.2570              3046.9485              3058.3264
 Red. masses --      1.0663                 1.0833                 1.0562
 Frc consts  --      5.8300                 5.9257                 5.8207
 IR Inten    --     23.7199                56.0018                29.2732

                     46                     47                     48
                      A                      A                      A
 Frequencies --   3116.3273              3125.0830              3148.5806
 Red. masses --      1.1108                 1.1100                 1.0909
 Frc consts  --      6.3558                 6.3872                 6.3717
 IR Inten    --     28.3600                40.8604                22.1421

                     49                     50                     51
                      A                      A                      A
 Frequencies --   3214.6265              3807.4988              3808.4601
 Red. masses --      1.0978                 1.0662                 1.0658
 Frc consts  --      6.6837                 9.1068                 9.1080
 IR Inten    --      5.9600                13.7486                21.4732

 - Thermochemistry -
 -------------------
 Temperature   298.150 Kelvin.  Pressure   1.00000 Atm.
 Atom     1 has atomic number  8 and mass  15.99491

 Molecular mass:   126.06808 amu.
 Principal axes and moments of inertia in atomic units:
                           1         2         3
     Eigenvalues --   473.840361687.478851786.84077
           X            0.99989   0.01452   0.00331
           Y           -0.01441   0.99946  -0.02946
           Z           -0.00374   0.02941   0.99956
 This molecule is an asymmetric top.
 Rotational symmetry number  1.
 Warning -- assumption of classical behavior for rotation
           may cause significant error
 Rotational temperatures (Kelvin)      0.18279     0.05133     0.04847
 Rotational constants (GHZ):           3.80875     1.06949     1.01002
 Zero-point vibrational energy     418381.1 (Joules/Mol)
                                   99.99549 (Kcal/Mol)
 Warning -- explicit consideration of  11 degrees of freedom as
           vibrations may cause significant error
 Vibrational temperatures:    105.90   176.05   326.10   353.45   446.19
          (Kelvin)            501.15   519.08   629.69   739.16   756.37
                              818.51   936.63   973.28  1133.20  1157.42
                             1201.13  1240.44  1315.48  1354.24  1395.18
                             1438.47  1452.80  1499.06  1515.43  1568.44
                             1623.37  1633.30  1667.92  1705.33  1747.37
                             1757.50  1779.47  1853.48  1904.26  1954.51
                             1974.02  2036.27  2125.63  2152.27  2185.33
                             2429.59  4296.89  4382.88  4383.87  4400.24
                             4483.69  4496.29  4530.10  4625.12  5478.13
                             5479.52

 Zero-point correction=                           0.159353 (Hartree/Particle)
 Thermal correction to Energy=                    0.167705
 Thermal correction to Enthalpy=                  0.168650
 Thermal correction to Gibbs Free Energy=         0.126433
 Sum of electronic and zero-point Energies=           -422.985848
 Sum of electronic and thermal Energies=              -422.977496
 Sum of electronic and thermal Enthalpies=            -422.976551
 Sum of electronic and thermal Free Energies=         -423.018768

                     E (Thermal)             CV                S
                      KCal/Mol        Cal/Mol-Kelvin    Cal/Mol-Kelvin
 Total                  105.237             32.826             88.853
 Electronic               0.000              0.000              0.000
 Translational            0.889              2.981             40.409
 Rotational               0.889              2.981             28.748
 Vibrational            103.459             26.865             19.696
 Vibration     1          0.599              1.966              4.055
 Vibration     2          0.610              1.930              3.063
 Vibration     3          0.650              1.800              1.905
 Vibration     4          0.660              1.770              1.761
 Vibration     5          0.699              1.654              1.362
 Vibration     6          0.726              1.579              1.174
 Vibration     7          0.735              1.553              1.119
 Vibration     8          0.798              1.388              0.834
 Vibration     9          0.869              1.220              0.625
 Vibration    10          0.881              1.193              0.597
 Vibration    11          0.925              1.099              0.506

 Normal termination of Gaussian 09 at Tue Jan 28 14:17:48 2020.
