 Gaussian 09, Revision D.01,
 Gaussian 09:  ES64L-G09RevD.01 24-Apr-2013

 -----------------------------
 # b3lyp 6-31G(2df,p) opt Freq
 -----------------------------

 -----
 titel
 -----
 Symbolic Z-matrix:
 Charge =  0 Multiplicity = 1

 SCF Done:  E(RB3LYP) =  -423.155365579     A.U. after   13 cycles
 Optimization completed.
    -- Stationary point found.
 Normal termination of Gaussian 09 at Tue Jan 28 08:20:04 2020.

 ----------------------------------------------------------------------
 #N Geom=AllCheck Guess=TCheck SCRF=Check GenChk RB3LYP/6-31G(2df,p) Fr
 eq
 ----------------------------------------------------------------------

 Structure from the checkpoint file:  "/scratch/puck/g09_ee86a778-472a-4579-af5d-52aa84cd2b99/Gau-79822.chk"
 -----
 titel
 -----
 Charge =  0 Multiplicity = 1

                         Standard orientation:
 ---------------------------------------------------------------------
 Center     Atomic      Atomic             Coordinates (Angstroms)
 Number     Number       Type             X           Y           Z
 ---------------------------------------------------------------------
      1          8           0       -0.662263    2.177999   -0.086471
      2          6           0        0.004770    0.985377    0.278233
      3          6           0        1.509002    1.043578   -0.011057
      4          6           0        2.188588   -0.279575    0.349681
      5          8           0        1.588828   -1.369168   -0.330520
      6          6           0        0.227264   -1.518918    0.003531
      7          6           0       -0.603298   -0.271503   -0.394047
      8          6           0       -2.007431   -0.461980   -0.059174
      9          6           0       -3.152804   -0.662820    0.245217
     10          1           0       -0.556261    2.301609   -1.036424
     11          1           0       -0.153292    0.897460    1.360158
     12          1           0        1.662523    1.241697   -1.080747
     13          1           0        1.957938    1.872296    0.546259
     14          1           0        3.242093   -0.275940    0.057576
     15          1           0        2.140804   -0.442971    1.440010
     16          1           0       -0.137024   -2.399308   -0.530613
     17          1           0        0.105038   -1.699708    1.084297
     18          1           0       -0.500630   -0.148665   -1.482715
     19          1           0       -4.170269   -0.822073    0.503814
 ---------------------------------------------------------------------

 SCF Done:  E(RB3LYP) =  -423.155365579     A.U. after    1 cycles

 The electronic state is 1-A.
 Alpha  occ. eigenvalues --  -19.14653 -19.14000 -10.24113 -10.23635 -10.23478
 Alpha  occ. eigenvalues --  -10.21229 -10.18821 -10.18001 -10.17137  -1.04300
 Alpha  occ. eigenvalues --   -1.02395  -0.81309  -0.77921  -0.72693  -0.65519
 Alpha  occ. eigenvalues --   -0.64572  -0.59019  -0.53792  -0.51197  -0.48582
 Alpha  occ. eigenvalues --   -0.47605  -0.46212  -0.45129  -0.44724  -0.40494
 Alpha  occ. eigenvalues --   -0.38752  -0.37059  -0.36036  -0.33869  -0.31287
 Alpha  occ. eigenvalues --   -0.28241  -0.27423  -0.25946  -0.25057
 Alpha virt. eigenvalues --    0.04995   0.05302   0.07593   0.08942   0.11065
 Alpha virt. eigenvalues --    0.12816   0.13138   0.13841   0.15509   0.16405
 Alpha virt. eigenvalues --    0.17109   0.17436   0.18313   0.21945   0.23685

 Mulliken charges:
               1
     1  O   -0.429719
     2  C    0.133739
     3  C   -0.237079
     4  C   -0.086837
     5  O   -0.238474
     6  C   -0.094921
     7  C   -0.225629
     8  C    0.316574
     9  C   -0.436677
    10  H    0.277806
    11  H    0.099501
    12  H    0.094850
    13  H    0.108070
    14  H    0.112185
    15  H    0.092063
    16  H    0.122650
    17  H    0.099790
    18  H    0.097638
    19  H    0.194471
 Sum of Mulliken charges =   0.00000

 Dipole moment (field-independent basis, Debye):
    X=              0.7508    Y=              0.1371    Z=             -0.3359  Tot=              0.8339
 Quadrupole moment (field-independent basis, Debye-Ang):
   XX=            -50.9577   YY=            -57.2289   ZZ=            -50.8812
   XY=              5.1573   XZ=              1.1221   YZ=             -3.7650

  Exact polarizability: 100.748   6.401  70.092  -2.911  -2.196  61.865
 Approx polarizability: 141.123   7.908  97.719 -10.538  -2.365  99.719

                      1                      2                      3
                      A                      A                      A
 Frequencies --     98.3938               134.4288               181.0259
 Red. masses --      3.3157                 4.3471                 3.5021
 Frc consts  --      0.0189                 0.0463                 0.0676
 IR Inten    --      1.0147                 0.2512                 3.9552

                      4                      5                      6
                      A                      A                      A
 Frequencies --    243.6121               272.8653               329.7420
 Red. masses --      1.8656                 1.3130                 4.5830
 Frc consts  --      0.0652                 0.0576                 0.2936
 IR Inten    --     23.7988                49.4937                30.4667

                      7                      8                      9
                      A                      A                      A
 Frequencies --    361.4220               392.2717               437.1632
 Red. masses --      2.2974                 4.8195                 3.1686
 Frc consts  --      0.1768                 0.4369                 0.3568
 IR Inten    --      2.4579                 1.2781                 8.9085

                     10                     11                     12
                      A                      A                      A
 Frequencies --    464.6844               521.0407               526.6058
 Red. masses --      3.6495                 4.7497                 4.4828
 Frc consts  --      0.4643                 0.7597                 0.7324
 IR Inten    --      1.3107                 7.1100                 1.3874

                     13                     14                     15
                      A                      A                      A
 Frequencies --    619.7350               636.3473               639.7635
 Red. masses --      2.4238                 1.2187                 1.2498
 Frc consts  --      0.5485                 0.2908                 0.3014
 IR Inten    --      5.9468                43.0275                44.9954

                     16                     17                     18
                      A                      A                      A
 Frequencies --    800.8276               892.2981               895.9061
 Red. masses --      2.1644                 2.6654                 2.0241
 Frc consts  --      0.8178                 1.2503                 0.9572
 IR Inten    --      1.5739                14.8305                17.1106

                     19                     20                     21
                      A                      A                      A
 Frequencies --    968.8791              1004.7582              1036.7721
 Red. masses --      1.7721                 2.3463                 3.3662
 Frc consts  --      0.9801                 1.3956                 2.1319
 IR Inten    --      5.1799                19.8680                22.6238

                     22                     23                     24
                      A                      A                      A
 Frequencies --   1049.7289              1092.6120              1101.6516
 Red. masses --      3.8343                 2.9609                 1.8172
 Frc consts  --      2.4894                 2.0826                 1.2994
 IR Inten    --      7.4610                32.2196                30.5959

                     25                     26                     27
                      A                      A                      A
 Frequencies --   1122.4258              1171.4767              1199.3523
 Red. masses --      3.3276                 4.4522                 1.2562
 Frc consts  --      2.4700                 3.5999                 1.0646
 IR Inten    --     48.3128               134.3024                 9.2550

                     28                     29                     30
                      A                      A                      A
 Frequencies --   1240.8956              1261.1263              1294.1254
 Red. masses --      1.4023                 1.4085                 1.3607
 Frc consts  --      1.2722                 1.3198                 1.3426
 IR Inten    --      7.1287                24.1345                 0.7785

                     31                     32                     33
                      A                      A                      A
 Frequencies --   1315.8493              1335.3451              1356.7047
 Red. masses --      1.2538                 1.2131                 1.2504
 Frc consts  --      1.2791                 1.2745                 1.3560
 IR Inten    --     10.2143                 6.3096                 0.8565

                     34                     35                     36
                      A                      A                      A
 Frequencies --   1375.8826              1395.0270              1411.2742
 Red. masses --      1.4137                 1.3451                 1.2847
 Frc consts  --      1.5767                 1.5423                 1.5076
 IR Inten    --      0.9381                 9.4697                42.1768

                     37                     38                     39
                      A                      A                      A
 Frequencies --   1432.7530              1477.1821              1493.7928
 Red. masses --      1.2487                 1.0971                 1.0779
 Frc consts  --      1.5102                 1.4104                 1.4171
 IR Inten    --     18.0983                 3.3988                 0.9507

                     40                     41                     42
                      A                      A                      A
 Frequencies --   1506.1379              2236.8688              2963.1620
 Red. masses --      1.1038                 5.9419                 1.0711
 Frc consts  --      1.4753                17.5169                 5.5413
 IR Inten    --      5.1305                 2.8468                39.2050

                     43                     44                     45
                      A                      A                      A
 Frequencies --   2974.6459              2997.4067              3018.7324
 Red. masses --      1.0705                 1.0801                 1.0655
 Frc consts  --      5.5808                 5.7174                 5.7206
 IR Inten    --     37.4361                22.2158                16.8282

                     46                     47                     48
                      A                      A                      A
 Frequencies --   3044.4408              3084.6696              3091.1944
 Red. masses --      1.0831                 1.0985                 1.0924
 Frc consts  --      5.9145                 6.1586                 6.1501
 IR Inten    --     34.7188                33.7970                38.8658

                     49                     50                     51
                      A                      A                      A
 Frequencies --   3104.7352              3505.0711              3798.4668
 Red. masses --      1.0939                 1.1619                 1.0658
 Frc consts  --      6.2126                 8.4103                 9.0604
 IR Inten    --     22.2096                70.8694                15.0908

 - Thermochemistry -
 -------------------
 Temperature   298.150 Kelvin.  Pressure   1.00000 Atm.
 Atom     1 has atomic number  8 and mass  15.99491

 Molecular mass:   126.06808 amu.
 Principal axes and moments of inertia in atomic units:
                           1         2         3
     Eigenvalues --   735.440691293.667941905.63677
           X            0.99922   0.03905   0.00502
           Y           -0.03896   0.99910  -0.01657
           Z           -0.00567   0.01636   0.99985
 This molecule is an asymmetric top.
 Rotational symmetry number  1.
 Warning -- assumption of classical behavior for rotation
           may cause significant error
 Rotational temperatures (Kelvin)      0.11777     0.06695     0.04545
 Rotational constants (GHZ):           2.45396     1.39506     0.94705
 Zero-point vibrational energy     418162.3 (Joules/Mol)
                                   99.94319 (Kcal/Mol)
 Warning -- explicit consideration of  13 degrees of freedom as
           vibrations may cause significant error
 Vibrational temperatures:    141.57   193.41   260.46   350.50   392.59
          (Kelvin)            474.42   520.00   564.39   628.98   668.58
                              749.66   757.67   891.66   915.56   920.48
                             1152.21  1283.82  1289.01  1394.00  1445.62
                             1491.68  1510.32  1572.02  1585.03  1614.92
                             1685.49  1725.60  1785.37  1814.48  1861.96
                             1893.21  1921.26  1951.99  1979.59  2007.13
                             2030.51  2061.41  2125.33  2149.23  2166.99
                             3218.35  4263.32  4279.85  4312.59  4343.28
                             4380.27  4438.15  4447.53  4467.02  5043.01
                             5465.14

 Zero-point correction=                           0.159270 (Hartree/Particle)
 Thermal correction to Energy=                    0.168023
 Thermal correction to Enthalpy=                  0.168967
 Thermal correction to Gibbs Free Energy=         0.126120
 Sum of electronic and zero-point Energies=           -422.996096
 Sum of electronic and thermal Energies=              -422.987342
 Sum of electronic and thermal Enthalpies=            -422.986398
 Sum of electronic and thermal Free Energies=         -423.029245

                     E (Thermal)             CV                S
                      KCal/Mol        Cal/Mol-Kelvin    Cal/Mol-Kelvin
 Total                  105.436             33.775             90.179
 Electronic               0.000              0.000              0.000
 Translational            0.889              2.981             40.409
 Rotational               0.889              2.981             28.985
 Vibrational            103.659             27.813             20.786
 Vibration     1          0.604              1.950              3.486
 Vibration     2          0.613              1.919              2.882
 Vibration     3          0.630              1.866              2.318
 Vibration     4          0.659              1.773              1.776
 Vibration     5          0.676              1.723              1.578
 Vibration     6          0.713              1.616              1.261
 Vibration     7          0.736              1.552              1.116
 Vibration     8          0.760              1.487              0.991
 Vibration     9          0.797              1.389              0.836
 Vibration    10          0.822              1.328              0.753
 Vibration    11          0.876              1.203              0.608
 Vibration    12          0.882              1.191              0.595
 Vibration    13          0.980              0.990              0.417

 Optimization completed.
    -- Stationary point found.
 Normal termination of Gaussian 09 at Tue Jan 28 09:12:26 2020.
