 Gaussian 09, Revision D.01,
 Gaussian 09:  ES64L-G09RevD.01 24-Apr-2013

 -----------------------------
 # b3lyp 6-31G(2df,p) opt Freq
 -----------------------------

 -----
 titel
 -----
 Symbolic Z-matrix:
 Charge =  0 Multiplicity = 1

 SCF Done:  E(RB3LYP) =  -423.189243116     A.U. after   14 cycles
 Optimization completed.
    -- Stationary point found.
 Normal termination of Gaussian 09 at Mon Jan 27 13:26:16 2020.

 ----------------------------------------------------------------------
 #N Geom=AllCheck Guess=TCheck SCRF=Check GenChk RB3LYP/6-31G(2df,p) Fr
 eq
 ----------------------------------------------------------------------

 Structure from the checkpoint file:  "/scratch/puck/g09_fd16e644-dc8b-438f-93d1-3df1b594f42b/Gau-55486.chk"
 -----
 titel
 -----
 Charge =  0 Multiplicity = 1

                         Standard orientation:
 ---------------------------------------------------------------------
 Center     Atomic      Atomic             Coordinates (Angstroms)
 Number     Number       Type             X           Y           Z
 ---------------------------------------------------------------------
      1          8           0       -3.404193   -0.562841   -0.318775
      2          6           0       -2.419381   -0.290124    0.316199
      3          6           0       -1.060819    0.025264   -0.257355
      4          6           0       -0.573063    1.442896    0.137189
      5          6           0        0.956383    1.396276   -0.061252
      6          6           0        1.334812   -0.081988    0.084501
      7          6           0        2.656633   -0.562294    0.497877
      8          8           0        2.259689   -0.603679   -0.876033
      9          6           0        0.052615   -0.879327    0.314535
     10          1           0       -2.450042   -0.245622    1.433436
     11          1           0       -1.115934   -0.072474   -1.345759
     12          1           0       -1.058735    2.227686   -0.447007
     13          1           0       -0.814305    1.625383    1.192245
     14          1           0        1.232157    1.717920   -1.070301
     15          1           0        1.487884    2.040128    0.644538
     16          1           0        3.442252    0.154136    0.737170
     17          1           0        2.754650   -1.531932    0.986520
     18          1           0        0.105037   -1.864080   -0.154134
     19          1           0       -0.110009   -1.023209    1.391586
 ---------------------------------------------------------------------

 SCF Done:  E(RB3LYP) =  -423.189243116     A.U. after    1 cycles

 The electronic state is 1-A.
 Alpha  occ. eigenvalues --  -19.15199 -19.14063 -10.27140 -10.24885 -10.23660
 Alpha  occ. eigenvalues --  -10.20276 -10.20184 -10.19988 -10.19517  -1.07343
 Alpha  occ. eigenvalues --   -1.04774  -0.85102  -0.74075  -0.71675  -0.66344
 Alpha  occ. eigenvalues --   -0.62163  -0.57521  -0.56168  -0.50819  -0.49269
 Alpha  occ. eigenvalues --   -0.47018  -0.45201  -0.43882  -0.43201  -0.40991
 Alpha  occ. eigenvalues --   -0.39522  -0.38036  -0.36165  -0.35944  -0.34402
 Alpha  occ. eigenvalues --   -0.34271  -0.29878  -0.26859  -0.25111
 Alpha virt. eigenvalues --   -0.02392   0.06794   0.08381   0.10560   0.11371
 Alpha virt. eigenvalues --    0.12009   0.12596   0.14636   0.15521   0.15838
 Alpha virt. eigenvalues --    0.16995   0.17628   0.18642   0.19380   0.21701

 Mulliken charges:
               1
     1  O   -0.247908
     2  C    0.152201
     3  C   -0.068365
     4  C   -0.235961
     5  C   -0.300683
     6  C    0.446530
     7  C   -0.255251
     8  O   -0.270896
     9  C   -0.308838
    10  H    0.064840
    11  H    0.102647
    12  H    0.118464
    13  H    0.105248
    14  H    0.128646
    15  H    0.110002
    16  H    0.112841
    17  H    0.111938
    18  H    0.128124
    19  H    0.106424
 Sum of Mulliken charges =   0.00000

 Dipole moment (field-independent basis, Debye):
    X=              1.9807    Y=              1.2421    Z=              2.3567  Tot=              3.3196
 Quadrupole moment (field-independent basis, Debye-Ang):
   XX=            -65.7958   YY=            -51.3687   ZZ=            -53.4508
   XY=             -1.5403   XZ=              1.4957   YZ=             -1.9519

  Exact polarizability:  95.143   0.555  69.628   4.107  -1.221  65.354
 Approx polarizability: 124.838   2.149  98.998   8.285   1.403 108.365

                      1                      2                      3
                      A                      A                      A
 Frequencies --     35.3652                74.5712               123.5169
 Red. masses --      3.2302                 4.7679                 2.6474
 Frc consts  --      0.0024                 0.0156                 0.0238
 IR Inten    --      1.6510                 4.6558                 1.8190

                      4                      5                      6
                      A                      A                      A
 Frequencies --    262.5897               318.3147               346.2568
 Red. masses --      2.4016                 2.7471                 2.3324
 Frc consts  --      0.0976                 0.1640                 0.1648
 IR Inten    --      0.4867                 4.0296                 6.0733

                      7                      8                      9
                      A                      A                      A
 Frequencies --    376.2197               398.7900               435.4069
 Red. masses --      3.5614                 2.8491                 2.8181
 Frc consts  --      0.2970                 0.2670                 0.3148
 IR Inten    --      0.1687                 6.0646                 3.1288

                     10                     11                     12
                      A                      A                      A
 Frequencies --    523.5083               615.9811               744.2022
 Red. masses --      3.9215                 2.5628                 2.2327
 Frc consts  --      0.6332                 0.5729                 0.7286
 IR Inten    --      1.1855                 9.8891                 1.1824

                     13                     14                     15
                      A                      A                      A
 Frequencies --    804.9579               836.4066               877.8092
 Red. masses --      3.4793                 2.1762                 1.9599
 Frc consts  --      1.3283                 0.8970                 0.8898
 IR Inten    --     32.7920                 1.7361                 5.4060

                     16                     17                     18
                      A                      A                      A
 Frequencies --    906.5109               939.2550               946.2097
 Red. masses --      1.7241                 2.4941                 2.1932
 Frc consts  --      0.8348                 1.2964                 1.1569
 IR Inten    --      1.3643                 5.5007                 8.0607

                     19                     20                     21
                      A                      A                      A
 Frequencies --    980.8506              1002.7357              1025.9795
 Red. masses --      1.9758                 2.3827                 1.7311
 Frc consts  --      1.1199                 1.4115                 1.0736
 IR Inten    --     15.0843                 1.9606                11.4049

                     22                     23                     24
                      A                      A                      A
 Frequencies --   1088.1761              1094.6485              1130.5410
 Red. masses --      2.2050                 2.6162                 1.3032
 Frc consts  --      1.5384                 1.8470                 0.9814
 IR Inten    --     36.2511                 0.9572                 4.6370

                     25                     26                     27
                      A                      A                      A
 Frequencies --   1157.2456              1191.2081              1204.7774
 Red. masses --      1.3144                 1.5099                 1.5178
 Frc consts  --      1.0371                 1.2624                 1.2980
 IR Inten    --      0.7687                 0.8017                 2.1311

                     28                     29                     30
                      A                      A                      A
 Frequencies --   1216.3736              1257.2148              1260.2366
 Red. masses --      2.3811                 1.4039                 1.4245
 Frc consts  --      2.0757                 1.3074                 1.3330
 IR Inten    --      9.8793                 6.1031                 0.1494

                     31                     32                     33
                      A                      A                      A
 Frequencies --   1296.2136              1307.7608              1334.9516
 Red. masses --      1.4085                 1.4209                 1.2268
 Frc consts  --      1.3943                 1.4317                 1.2881
 IR Inten    --      1.0835                 3.2667                 0.2191

                     34                     35                     36
                      A                      A                      A
 Frequencies --   1355.0341              1421.6424              1429.0824
 Red. masses --      1.4737                 2.4962                 1.2441
 Frc consts  --      1.5943                 2.9725                 1.4970
 IR Inten    --      6.1536                 8.9907                 6.5120

                     37                     38                     39
                      A                      A                      A
 Frequencies --   1473.4029              1483.7402              1501.3100
 Red. masses --      1.0940                 1.0791                 1.0976
 Frc consts  --      1.3993                 1.3997                 1.4576
 IR Inten    --      4.0862                 2.8848                 2.4234

                     40                     41                     42
                      A                      A                      A
 Frequencies --   1534.3851              1837.0804              2824.0638
 Red. masses --      1.3889                10.5144                 1.0805
 Frc consts  --      1.9266                20.9069                 5.0774
 IR Inten    --      4.0605               227.0290               100.9651

                     43                     44                     45
                      A                      A                      A
 Frequencies --   3018.6927              3029.4090              3057.6211
 Red. masses --      1.0684                 1.0685                 1.0604
 Frc consts  --      5.7362                 5.7777                 5.8410
 IR Inten    --     14.3978                24.1039                15.6084

                     46                     47                     48
                      A                      A                      A
 Frequencies --   3072.7354              3073.5073              3097.6412
 Red. masses --      1.0517                 1.0826                 1.0997
 Frc consts  --      5.8506                 6.0257                 6.2170
 IR Inten    --     24.3182                15.8892                12.9921

                     49                     50                     51
                      A                      A                      A
 Frequencies --   3109.9873              3115.0584              3156.9465
 Red. masses --      1.1001                 1.0956                 1.1191
 Frc consts  --      6.2690                 6.2640                 6.5716
 IR Inten    --     24.8332                12.6001                23.7850

 - Thermochemistry -
 -------------------
 Temperature   298.150 Kelvin.  Pressure   1.00000 Atm.
 Atom     1 has atomic number  8 and mass  15.99491

 Molecular mass:   126.06808 amu.
 Principal axes and moments of inertia in atomic units:
                           1         2         3
     Eigenvalues --   450.437261910.658332140.82668
           X            0.99998  -0.00352   0.00494
           Y            0.00370   0.99937  -0.03534
           Z           -0.00482   0.03536   0.99936
 This molecule is an asymmetric top.
 Rotational symmetry number  1.
 Warning -- assumption of classical behavior for rotation
           may cause significant error
 Rotational temperatures (Kelvin)      0.19229     0.04533     0.04046
 Rotational constants (GHZ):           4.00664     0.94457     0.84301
 Zero-point vibrational energy     416935.2 (Joules/Mol)
                                   99.64991 (Kcal/Mol)
 Warning -- explicit consideration of  11 degrees of freedom as
           vibrations may cause significant error
 Vibrational temperatures:     50.88   107.29   177.71   377.81   457.98
          (Kelvin)            498.19   541.30   573.77   626.45   753.21
                              886.26  1070.74  1158.15  1203.40  1262.97
                             1304.27  1351.38  1361.38  1411.22  1442.71
                             1476.15  1565.64  1574.95  1626.59  1665.02
                             1713.88  1733.40  1750.09  1808.85  1813.20
                             1864.96  1881.57  1920.70  1949.59  2045.42
                             2056.13  2119.90  2134.77  2160.05  2207.64
                             2643.15  4063.19  4343.22  4358.64  4399.23
                             4420.98  4422.09  4456.81  4474.57  4481.87
                             4542.14

 Zero-point correction=                           0.158802 (Hartree/Particle)
 Thermal correction to Energy=                    0.167286
 Thermal correction to Enthalpy=                  0.168230
 Thermal correction to Gibbs Free Energy=         0.124487
 Sum of electronic and zero-point Energies=           -423.030441
 Sum of electronic and thermal Energies=              -423.021957
 Sum of electronic and thermal Enthalpies=            -423.021013
 Sum of electronic and thermal Free Energies=         -423.064756

                     E (Thermal)             CV                S
                      KCal/Mol        Cal/Mol-Kelvin    Cal/Mol-Kelvin
 Total                  104.974             31.480             92.065
 Electronic               0.000              0.000              0.000
 Translational            0.889              2.981             40.409
 Rotational               0.889              2.981             29.001
 Vibrational            103.196             25.518             22.656
 Vibration     1          0.594              1.982              5.503
 Vibration     2          0.599              1.966              4.029
 Vibration     3          0.610              1.929              3.045
 Vibration     4          0.670              1.741              1.644
 Vibration     5          0.705              1.639              1.319
 Vibration     6          0.724              1.583              1.183
 Vibration     7          0.747              1.521              1.054
 Vibration     8          0.765              1.473              0.967
 Vibration     9          0.796              1.393              0.841
 Vibration    10          0.878              1.198              0.602
 Vibration    11          0.976              0.998              0.423

 Optimization completed.
    -- Stationary point found.
 Normal termination of Gaussian 09 at Mon Jan 27 14:10:03 2020.
