 Gaussian 09, Revision D.01,
 Gaussian 09:  ES64L-G09RevD.01 24-Apr-2013

 -----------------------------
 # b3lyp 6-31G(2df,p) opt Freq
 -----------------------------

 -----
 titel
 -----
 Symbolic Z-matrix:
 Charge =  0 Multiplicity = 1

 SCF Done:  E(RB3LYP) =  -423.158036714     A.U. after   12 cycles
 Optimization completed.
    -- Stationary point found.
 Normal termination of Gaussian 09 at Tue Jan 28 02:23:06 2020.

 ----------------------------------------------------------------------
 #N Geom=AllCheck Guess=TCheck SCRF=Check GenChk RB3LYP/6-31G(2df,p) Fr
 eq
 ----------------------------------------------------------------------

 Structure from the checkpoint file:  "/scratch/puck/g09_913dd5b5-883d-4beb-89f8-07231d88fc9c/Gau-194431.chk"
 -----
 titel
 -----
 Charge =  0 Multiplicity = 1

                         Standard orientation:
 ---------------------------------------------------------------------
 Center     Atomic      Atomic             Coordinates (Angstroms)
 Number     Number       Type             X           Y           Z
 ---------------------------------------------------------------------
      1          8           0       -2.285136   -0.890933   -0.425201
      2          6           0       -1.444199   -0.098846    0.400627
      3          6           0       -0.246213   -0.907811    0.971438
      4          6           0        0.924309   -0.510077    0.071313
      5          8           0        1.914006   -1.449012   -0.219911
      6          6           0        1.344741    0.953126    0.034264
      7          6           0        0.207261    1.858636    0.501971
      8          6           0       -0.768902    1.028513   -0.396809
      9          6           0        0.466189    0.358628   -1.065426
     10          1           0       -1.742018   -1.240110   -1.141611
     11          1           0       -2.098422    0.289422    1.186938
     12          1           0       -0.061153   -0.685763    2.028334
     13          1           0       -0.448394   -1.979233    0.886294
     14          1           0        2.494494   -1.518971    0.545669
     15          1           0        2.398638    1.202046   -0.020480
     16          1           0       -0.014405    1.907327    1.575167
     17          1           0        0.324211    2.876611    0.122126
     18          1           0       -1.464759    1.593480   -1.015390
     19          1           0        0.681735    0.181733   -2.110429
 ---------------------------------------------------------------------

 SCF Done:  E(RB3LYP) =  -423.158036714     A.U. after    1 cycles

 The electronic state is 1-A.
 Alpha  occ. eigenvalues --  -19.14681 -19.12979 -10.23880 -10.22754 -10.19067
 Alpha  occ. eigenvalues --  -10.18873 -10.18704 -10.18660 -10.17648  -1.03396
 Alpha  occ. eigenvalues --   -1.01318  -0.90247  -0.74728  -0.72809  -0.66175
 Alpha  occ. eigenvalues --   -0.60689  -0.56644  -0.54283  -0.51896  -0.48461
 Alpha  occ. eigenvalues --   -0.46910  -0.46175  -0.42846  -0.40492  -0.39078
 Alpha  occ. eigenvalues --   -0.38445  -0.36729  -0.35013  -0.33426  -0.31690
 Alpha  occ. eigenvalues --   -0.29356  -0.26774  -0.25609  -0.24465
 Alpha virt. eigenvalues --    0.07153   0.07905   0.09525   0.10700   0.13375
 Alpha virt. eigenvalues --    0.14105   0.14615   0.15710   0.16760   0.17016
 Alpha virt. eigenvalues --    0.18870   0.19372   0.19599   0.21739   0.22499

 Mulliken charges:
               1
     1  O   -0.442672
     2  C    0.152022
     3  C   -0.337653
     4  C    0.418564
     5  O   -0.483938
     6  C   -0.123805
     7  C   -0.256664
     8  C   -0.078928
     9  C   -0.147705
    10  H    0.281538
    11  H    0.082648
    12  H    0.094609
    13  H    0.110692
    14  H    0.283415
    15  H    0.082587
    16  H    0.089129
    17  H    0.106590
    18  H    0.076430
    19  H    0.093139
 Sum of Mulliken charges =   0.00000

 Dipole moment (field-independent basis, Debye):
    X=              1.6090    Y=              0.8645    Z=              0.8113  Tot=              1.9986
 Quadrupole moment (field-independent basis, Debye-Ang):
   XX=            -56.6034   YY=            -53.3916   ZZ=            -50.2099
   XY=             -1.6500   XZ=              2.9035   YZ=             -1.1171

  Exact polarizability:  76.551  -0.632  75.302   0.739   0.381  68.551
 Approx polarizability: 109.343  -0.947 108.363   3.238   3.128 108.157

                      1                      2                      3
                      A                      A                      A
 Frequencies --    123.6072               250.4158               286.8569
 Red. masses --      4.1538                 2.2245                 1.4172
 Frc consts  --      0.0374                 0.0822                 0.0687
 IR Inten    --      2.2584                23.2985                29.2222

                      4                      5                      6
                      A                      A                      A
 Frequencies --    316.6514               340.4333               371.1303
 Red. masses --      1.9722                 1.1754                 3.3180
 Frc consts  --      0.1165                 0.0803                 0.2693
 IR Inten    --     13.0264                73.5291                48.8507

                      7                      8                      9
                      A                      A                      A
 Frequencies --    406.6606               419.4939               466.2880
 Red. masses --      3.9535                 4.3401                 1.9327
 Frc consts  --      0.3852                 0.4500                 0.2476
 IR Inten    --      8.4908                 2.1446                 0.3552

                     10                     11                     12
                      A                      A                      A
 Frequencies --    590.4502               684.7662               714.2814
 Red. masses --      4.5794                 3.7141                 3.8049
 Frc consts  --      0.9406                 1.0261                 1.1438
 IR Inten    --      6.5516                 4.1546                 2.8653

                     13                     14                     15
                      A                      A                      A
 Frequencies --    773.3958               826.6578               855.4446
 Red. masses --      3.7860                 2.3549                 1.3901
 Frc consts  --      1.3342                 0.9482                 0.5993
 IR Inten    --      0.1320                10.0234                11.0112

                     16                     17                     18
                      A                      A                      A
 Frequencies --    867.1578               894.4445               937.7178
 Red. masses --      1.8431                 2.1753                 1.9616
 Frc consts  --      0.8166                 1.0254                 1.0163
 IR Inten    --      4.1321                 6.2861                 3.9201

                     19                     20                     21
                      A                      A                      A
 Frequencies --    962.6588               973.4793               989.0226
 Red. masses --      2.0356                 2.0404                 1.8027
 Frc consts  --      1.1114                 1.1392                 1.0389
 IR Inten    --      4.5896                 5.6082                 1.0475

                     22                     23                     24
                      A                      A                      A
 Frequencies --   1001.7417              1035.7673              1062.7415
 Red. masses --      1.9086                 2.3627                 1.9427
 Frc consts  --      1.1284                 1.4934                 1.2928
 IR Inten    --      2.0934                24.4393                58.1373

                     25                     26                     27
                      A                      A                      A
 Frequencies --   1091.5387              1116.8685              1136.6612
 Red. masses --      2.0648                 1.6703                 1.5196
 Frc consts  --      1.4495                 1.2276                 1.1567
 IR Inten    --     13.8407                28.5142                32.7456

                     28                     29                     30
                      A                      A                      A
 Frequencies --   1180.6321              1206.8568              1227.2398
 Red. masses --      1.3594                 1.5478                 1.6689
 Frc consts  --      1.1165                 1.3282                 1.4810
 IR Inten    --     15.6167                10.9497                12.8098

                     31                     32                     33
                      A                      A                      A
 Frequencies --   1234.6476              1255.7768              1278.6772
 Red. masses --      1.5873                 1.9283                 1.7273
 Frc consts  --      1.4256                 1.7916                 1.6639
 IR Inten    --      2.2987                17.0483                77.4229

                     34                     35                     36
                      A                      A                      A
 Frequencies --   1296.0221              1307.5754              1326.3855
 Red. masses --      1.4934                 1.7688                 1.6347
 Frc consts  --      1.4779                 1.7818                 1.6945
 IR Inten    --      3.9539                 0.9785                24.2439

                     37                     38                     39
                      A                      A                      A
 Frequencies --   1340.4252              1429.5673              1430.5495
 Red. masses --      1.8131                 1.6912                 1.6667
 Frc consts  --      1.9194                 2.0363                 2.0096
 IR Inten    --     19.4002                36.3321                43.7438

                     40                     41                     42
                      A                      A                      A
 Frequencies --   1484.9301              1503.3429              3027.3312
 Red. masses --      1.1211                 1.1102                 1.0639
 Frc consts  --      1.4565                 1.4783                 5.7447
 IR Inten    --      0.6541                 1.7523                44.3355

                     43                     44                     45
                      A                      A                      A
 Frequencies --   3040.6197              3071.8211              3094.3420
 Red. masses --      1.0642                 1.0854                 1.0998
 Frc consts  --      5.7970                 6.0342                 6.2045
 IR Inten    --     28.5696                39.5589                26.4131

                     46                     47                     48
                      A                      A                      A
 Frequencies --   3096.8773              3124.9542              3172.5840
 Red. masses --      1.1016                 1.0895                 1.0908
 Frc consts  --      6.2247                 6.2684                 6.4690
 IR Inten    --     14.4512                29.8958                20.4955

                     49                     50                     51
                      A                      A                      A
 Frequencies --   3207.3054              3790.5613              3797.5980
 Red. masses --      1.0959                 1.0657                 1.0662
 Frc consts  --      6.6419                 9.0214                 9.0594
 IR Inten    --      7.4863                11.4839                21.0192

 - Thermochemistry -
 -------------------
 Temperature   298.150 Kelvin.  Pressure   1.00000 Atm.
 Atom     1 has atomic number  8 and mass  15.99491

 Molecular mass:   126.06808 amu.
 Principal axes and moments of inertia in atomic units:
                           1         2         3
     Eigenvalues --   720.965031014.382321367.52622
           X            0.99999   0.00329   0.00195
           Y           -0.00327   0.99996  -0.00842
           Z           -0.00198   0.00841   0.99996
 This molecule is an asymmetric top.
 Rotational symmetry number  1.
 Warning -- assumption of classical behavior for rotation
           may cause significant error
 Rotational temperatures (Kelvin)      0.12014     0.08539     0.06334
 Rotational constants (GHZ):           2.50323     1.77915     1.31971
 Zero-point vibrational energy     421222.8 (Joules/Mol)
                                  100.67467 (Kcal/Mol)
 Warning -- explicit consideration of  10 degrees of freedom as
           vibrations may cause significant error
 Vibrational temperatures:    177.84   360.29   412.72   455.59   489.81
          (Kelvin)            533.97   585.09   603.56   670.88   849.53
                              985.22  1027.69  1112.74  1189.37  1230.79
                             1247.65  1286.90  1349.17  1385.05  1400.62
                             1422.98  1441.28  1490.24  1529.05  1570.48
                             1606.92  1635.40  1698.66  1736.40  1765.72
                             1776.38  1806.78  1839.73  1864.68  1881.31
                             1908.37  1928.57  2056.83  2058.24  2136.48
                             2162.97  4355.65  4374.77  4419.66  4452.06
                             4455.71  4496.11  4564.63  4614.59  5453.77
                             5463.89

 Zero-point correction=                           0.160435 (Hartree/Particle)
 Thermal correction to Energy=                    0.168056
 Thermal correction to Enthalpy=                  0.169000
 Thermal correction to Gibbs Free Energy=         0.128872
 Sum of electronic and zero-point Energies=           -422.997601
 Sum of electronic and thermal Energies=              -422.989981
 Sum of electronic and thermal Enthalpies=            -422.989037
 Sum of electronic and thermal Free Energies=         -423.029165

                     E (Thermal)             CV                S
                      KCal/Mol        Cal/Mol-Kelvin    Cal/Mol-Kelvin
 Total                  105.456             31.484             84.456
 Electronic               0.000              0.000              0.000
 Translational            0.889              2.981             40.409
 Rotational               0.889              2.981             28.394
 Vibrational            103.679             25.523             15.653
 Vibration     1          0.610              1.929              3.043
 Vibration     2          0.663              1.762              1.728
 Vibration     3          0.684              1.698              1.492
 Vibration     4          0.704              1.642              1.327
 Vibration     5          0.720              1.595              1.210
 Vibration     6          0.743              1.531              1.075
 Vibration     7          0.771              1.456              0.938
 Vibration     8          0.782              1.428              0.894
 Vibration     9          0.824              1.325              0.748
 Vibration    10          0.948              1.052              0.466

 Optimization completed.
    -- Stationary point found.
 Normal termination of Gaussian 09 at Tue Jan 28 03:09:36 2020.
