 Gaussian 09, Revision D.01,
 Gaussian 09:  ES64L-G09RevD.01 24-Apr-2013

 -----------------------------
 # b3lyp 6-31G(2df,p) opt Freq
 -----------------------------

 -----
 titel
 -----
 Symbolic Z-matrix:
 Charge =  0 Multiplicity = 1

 SCF Done:  E(RB3LYP) =  -423.186455610     A.U. after   13 cycles
 Optimization completed.
    -- Stationary point found.
 Normal termination of Gaussian 09 at Tue Jan 28 09:55:13 2020.

 ----------------------------------------------------------------------
 #N Geom=AllCheck Guess=TCheck SCRF=Check GenChk RB3LYP/6-31G(2df,p) Fr
 eq
 ----------------------------------------------------------------------

 Structure from the checkpoint file:  "/scratch/puck/g09_d1b86aab-a260-4f2e-93ad-cede30026c97/Gau-21390.chk"
 -----
 titel
 -----
 Charge =  0 Multiplicity = 1

                         Standard orientation:
 ---------------------------------------------------------------------
 Center     Atomic      Atomic             Coordinates (Angstroms)
 Number     Number       Type             X           Y           Z
 ---------------------------------------------------------------------
      1          6           0        2.713242   -0.513399   -0.000133
      2          6           0        1.784897    0.705430    0.000176
      3          6           0        0.323429    0.340523    0.000013
      4          6           0       -0.778373    1.431326   -0.000584
      5          6           0       -1.931388    0.441254   -0.000349
      6          6           0       -1.372953   -0.762208   -0.753620
      7          8           0       -0.043939   -0.466252   -1.127320
      8          6           0       -1.373165   -0.761652    0.753977
      9          8           0       -0.044291   -0.465388    1.127880
     10          1           0        3.760432   -0.197831    0.000161
     11          1           0        2.537375   -1.131580    0.883361
     12          1           0        2.537664   -1.130940   -0.884126
     13          1           0        1.970322    1.330226    0.880499
     14          1           0        1.970504    1.330856   -0.879660
     15          1           0       -0.736006    2.052856    0.896405
     16          1           0       -0.735727    2.052103   -0.898080
     17          1           0       -2.976945    0.714309   -0.000592
     18          1           0       -1.907746   -1.427779   -1.414772
     19          1           0       -1.908179   -1.426738    1.415439
 ---------------------------------------------------------------------

 SCF Done:  E(RB3LYP) =  -423.186455610     A.U. after    1 cycles

 The electronic state is 1-A.
 Alpha  occ. eigenvalues --  -19.14659 -19.14659 -10.27837 -10.23337 -10.23311
 Alpha  occ. eigenvalues --  -10.19238 -10.18628 -10.18600 -10.16793  -1.10460
 Alpha  occ. eigenvalues --   -0.99470  -0.84024  -0.78571  -0.73291  -0.63820
 Alpha  occ. eigenvalues --   -0.60274  -0.59157  -0.55858  -0.52620  -0.47852
 Alpha  occ. eigenvalues --   -0.46331  -0.44266  -0.42331  -0.41128  -0.40856
 Alpha  occ. eigenvalues --   -0.39475  -0.36570  -0.35487  -0.34531  -0.34246
 Alpha  occ. eigenvalues --   -0.30894  -0.30886  -0.25644  -0.23750
 Alpha virt. eigenvalues --    0.08358   0.11546   0.11981   0.13137   0.14288
 Alpha virt. eigenvalues --    0.14425   0.15274   0.16105   0.16722   0.16984
 Alpha virt. eigenvalues --    0.17830   0.19118   0.19464   0.22131   0.22279

 Mulliken charges:
               1
     1  C   -0.380391
     2  C   -0.287292
     3  C    0.471808
     4  C   -0.260606
     5  C   -0.183967
     6  C    0.040331
     7  O   -0.289346
     8  C    0.040332
     9  O   -0.289351
    10  H    0.106402
    11  H    0.134152
    12  H    0.134157
    13  H    0.112464
    14  H    0.112435
    15  H    0.110114
    16  H    0.110114
    17  H    0.097657
    18  H    0.110493
    19  H    0.110493
 Sum of Mulliken charges =   0.00000

 Dipole moment (field-independent basis, Debye):
    X=             -1.1748    Y=              0.8110    Z=             -0.0006  Tot=              1.4275
 Quadrupole moment (field-independent basis, Debye-Ang):
   XX=            -47.8437   YY=            -51.4536   ZZ=            -55.5653
   XY=              2.7861   XZ=              0.0002   YZ=             -0.0011

  Exact polarizability:  83.924   2.082  70.510   0.000  -0.001  63.626
 Approx polarizability: 108.892   2.147 104.046   0.000   0.000 104.850

                      1                      2                      3
                      A                      A                      A
 Frequencies --     86.2310               178.6932               202.1750
 Red. masses --      2.2786                 3.2548                 1.1647
 Frc consts  --      0.0100                 0.0612                 0.0280
 IR Inten    --      0.3742                 1.7030                 0.5023

                      4                      5                      6
                      A                      A                      A
 Frequencies --    309.8093               382.5517               445.9187
 Red. masses --      2.0605                 3.5580                 1.8325
 Frc consts  --      0.1165                 0.3068                 0.2147
 IR Inten    --      2.9260                 4.5619                 1.1082

                      7                      8                      9
                      A                      A                      A
 Frequencies --    564.1652               604.1943               645.1741
 Red. masses --      3.9022                 6.3510                 3.4883
 Frc consts  --      0.7318                 1.3660                 0.8555
 IR Inten    --      6.0126                 7.3730                 2.1983

                     10                     11                     12
                      A                      A                      A
 Frequencies --    720.9938               745.8494               755.7484
 Red. masses --      5.7402                 7.2827                 1.6950
 Frc consts  --      1.7581                 2.3870                 0.5704
 IR Inten    --      0.0525                 6.3787                14.8892

                     13                     14                     15
                      A                      A                      A
 Frequencies --    799.1962               800.3908               829.1146
 Red. masses --      1.6121                 1.4520                 5.4189
 Frc consts  --      0.6067                 0.5480                 2.1948
 IR Inten    --     15.7712                10.6683                 4.0138

                     16                     17                     18
                      A                      A                      A
 Frequencies --    850.6907               958.3545               981.8704
 Red. masses --      2.1300                 1.6101                 1.8393
 Frc consts  --      0.9082                 0.8713                 1.0447
 IR Inten    --     33.8114                20.2877                 4.3199

                     19                     20                     21
                      A                      A                      A
 Frequencies --    987.2197              1002.7218              1019.8937
 Red. masses --      2.0251                 2.7498                 3.4226
 Frc consts  --      1.1629                 1.6289                 2.0976
 IR Inten    --     19.2572                 6.0676                14.1705

                     22                     23                     24
                      A                      A                      A
 Frequencies --   1027.9125              1030.4176              1037.6445
 Red. masses --      2.0989                 2.2218                 1.3520
 Frc consts  --      1.3066                 1.3899                 0.8577
 IR Inten    --     17.2012                 0.4412                 0.7357

                     25                     26                     27
                      A                      A                      A
 Frequencies --   1078.8001              1086.6417              1132.8588
 Red. masses --      2.5835                 2.3101                 1.5363
 Frc consts  --      1.7715                 1.6071                 1.1616
 IR Inten    --     88.2784                 6.4732                 0.7476

                     28                     29                     30
                      A                      A                      A
 Frequencies --   1133.7782              1180.2961              1196.1779
 Red. masses --      2.3863                 1.3207                 2.2019
 Frc consts  --      1.8073                 1.0840                 1.8563
 IR Inten    --     18.8553                 1.9268                28.1401

                     31                     32                     33
                      A                      A                      A
 Frequencies --   1275.0722              1276.4677              1327.9721
 Red. masses --      1.3368                 1.6651                 1.9123
 Frc consts  --      1.2805                 1.5985                 1.9869
 IR Inten    --      2.4151                 6.5431                28.3542

                     34                     35                     36
                      A                      A                      A
 Frequencies --   1332.3394              1365.6323              1407.9496
 Red. masses --      1.3961                 2.3649                 1.2695
 Frc consts  --      1.4601                 2.5986                 1.4827
 IR Inten    --      7.7340                 3.8268                 1.1749

                     37                     38                     39
                      A                      A                      A
 Frequencies --   1421.1206              1471.0253              1477.1076
 Red. masses --      2.4743                 1.1098                 1.1201
 Frc consts  --      2.9442                 1.4149                 1.4399
 IR Inten    --     23.5184                 2.6640                 3.6039

                     40                     41                     42
                      A                      A                      A
 Frequencies --   1494.0512              1511.5688              3047.7698
 Red. masses --      1.0383                 1.0807                 1.0599
 Frc consts  --      1.3655                 1.4549                 5.8009
 IR Inten    --      4.7718                 8.6306                14.1463

                     43                     44                     45
                      A                      A                      A
 Frequencies --   3051.7625              3073.6565              3085.4679
 Red. masses --      1.0354                 1.0573                 1.1023
 Frc consts  --      5.6815                 5.8850                 6.1830
 IR Inten    --     24.1886                21.4713                 7.6035

                     46                     47                     48
                      A                      A                      A
 Frequencies --   3122.5527              3131.4496              3136.0939
 Red. masses --      1.1009                 1.1086                 1.1027
 Frc consts  --      6.3242                 6.4047                 6.3898
 IR Inten    --     26.5425                 9.0586                24.1979

                     49                     50                     51
                      A                      A                      A
 Frequencies --   3218.5433              3228.7963              3238.9374
 Red. masses --      1.0920                 1.0917                 1.0999
 Frc consts  --      6.6648                 6.7054                 6.7985
 IR Inten    --      4.7049                 4.6202                13.6058

 - Thermochemistry -
 -------------------
 Temperature   298.150 Kelvin.  Pressure   1.00000 Atm.
 Atom     1 has atomic number  6 and mass  12.00000

 Molecular mass:   126.06808 amu.
 Principal axes and moments of inertia in atomic units:
                           1         2         3
     Eigenvalues --   502.398621216.076531267.76319
           X            0.99999  -0.00430   0.00000
           Y            0.00430   0.99999  -0.00013
           Z            0.00000   0.00013   1.00000
 This molecule is an asymmetric top.
 Rotational symmetry number  1.
 Warning -- assumption of classical behavior for rotation
           may cause significant error
 Rotational temperatures (Kelvin)      0.17240     0.07122     0.06832
 Rotational constants (GHZ):           3.59225     1.48407     1.42356
 Zero-point vibrational energy     421509.1 (Joules/Mol)
                                  100.74309 (Kcal/Mol)
 Warning -- explicit consideration of   8 degrees of freedom as
           vibrations may cause significant error
 Vibrational temperatures:    124.07   257.10   290.88   445.75   550.41
          (Kelvin)            641.58   811.71   869.30   928.26  1037.35
                             1073.11  1087.35  1149.86  1151.58  1192.91
                             1223.95  1378.86  1412.69  1420.39  1442.69
                             1467.40  1478.93  1482.54  1492.94  1552.15
                             1563.43  1629.93  1631.25  1698.18  1721.03
                             1834.54  1836.55  1910.65  1916.94  1964.84
                             2025.72  2044.67  2116.47  2125.23  2149.60
                             2174.81  4385.06  4390.80  4422.30  4439.29
                             4492.65  4505.45  4512.13  4630.76  4645.51
                             4660.10

 Zero-point correction=                           0.160544 (Hartree/Particle)
 Thermal correction to Energy=                    0.167862
 Thermal correction to Enthalpy=                  0.168806
 Thermal correction to Gibbs Free Energy=         0.128840
 Sum of electronic and zero-point Energies=           -423.025911
 Sum of electronic and thermal Energies=              -423.018594
 Sum of electronic and thermal Enthalpies=            -423.017650
 Sum of electronic and thermal Free Energies=         -423.057616

                     E (Thermal)             CV                S
                      KCal/Mol        Cal/Mol-Kelvin    Cal/Mol-Kelvin
 Total                  105.335             29.683             84.116
 Electronic               0.000              0.000              0.000
 Translational            0.889              2.981             40.409
 Rotational               0.889              2.981             28.140
 Vibrational            103.557             23.721             15.568
 Vibration     1          0.601              1.959              3.744
 Vibration     2          0.629              1.869              2.342
 Vibration     3          0.639              1.837              2.113
 Vibration     4          0.699              1.655              1.363
 Vibration     5          0.752              1.507              1.029
 Vibration     6          0.805              1.370              0.808
 Vibration     7          0.920              1.109              0.516
 Vibration     8          0.963              1.023              0.443

 Optimization completed.
    -- Stationary point found.
 Normal termination of Gaussian 09 at Tue Jan 28 10:40:24 2020.
