 Gaussian 09, Revision D.01,
 Gaussian 09:  ES64L-G09RevD.01 24-Apr-2013

 -----------------------------
 # b3lyp 6-31G(2df,p) opt Freq
 -----------------------------

 -----
 titel
 -----
 Symbolic Z-matrix:
 Charge =  0 Multiplicity = 1

 SCF Done:  E(RB3LYP) =  -423.173562420     A.U. after   14 cycles
 Optimization completed.
    -- Stationary point found.
 Normal termination of Gaussian 09 at Mon Jan 27 18:39:02 2020.

 ----------------------------------------------------------------------
 #N Geom=AllCheck Guess=TCheck SCRF=Check GenChk RB3LYP/6-31G(2df,p) Fr
 eq
 ----------------------------------------------------------------------

 Structure from the checkpoint file:  "/scratch/puck/g09_c1d42f54-7e96-4398-a057-8ec4b3fc1c27/Gau-18677.chk"
 -----
 titel
 -----
 Charge =  0 Multiplicity = 1

                         Standard orientation:
 ---------------------------------------------------------------------
 Center     Atomic      Atomic             Coordinates (Angstroms)
 Number     Number       Type             X           Y           Z
 ---------------------------------------------------------------------
      1          6           0       -2.278281   -0.649964    0.101507
      2          6           0       -0.861106   -0.117292    0.004819
      3          6           0       -0.703103    1.261207   -0.692397
      4          8           0        0.600842    1.730553   -0.300201
      5          6           0        1.142036    0.712766    0.570071
      6          6           0       -0.095609    0.201107    1.313111
      7          6           0        1.482853   -0.457053   -0.362742
      8          8           0        1.059418   -1.752403    0.090197
      9          6           0        0.168674   -0.991693   -0.734280
     10          1           0       -2.299621   -1.613430    0.620443
     11          1           0       -2.925170    0.043325    0.649801
     12          1           0       -2.716369   -0.798645   -0.892152
     13          1           0       -0.758365    1.191797   -1.786331
     14          1           0       -1.466236    1.972962   -0.351147
     15          1           0        1.954627    1.153014    1.146667
     16          1           0        0.086782   -0.676510    1.930287
     17          1           0       -0.572359    0.991461    1.896894
     18          1           0        2.340809   -0.428148   -1.026024
     19          1           0       -0.058965   -1.415503   -1.708935
 ---------------------------------------------------------------------

 SCF Done:  E(RB3LYP) =  -423.173562420     A.U. after    1 cycles

 The electronic state is 1-A.
 Alpha  occ. eigenvalues --  -19.15367 -19.13687 -10.23562 -10.23509 -10.23228
 Alpha  occ. eigenvalues --  -10.22843 -10.20514 -10.18414 -10.18147  -1.07809
 Alpha  occ. eigenvalues --   -1.02977  -0.82003  -0.75692  -0.69209  -0.68183
 Alpha  occ. eigenvalues --   -0.63250  -0.56867  -0.54957  -0.52266  -0.49913
 Alpha  occ. eigenvalues --   -0.46615  -0.44289  -0.43060  -0.40921  -0.40628
 Alpha  occ. eigenvalues --   -0.38944  -0.37558  -0.36877  -0.35360  -0.33598
 Alpha  occ. eigenvalues --   -0.30810  -0.29684  -0.26685  -0.24512
 Alpha virt. eigenvalues --    0.08274   0.09424   0.10230   0.11716   0.12793
 Alpha virt. eigenvalues --    0.13662   0.14112   0.15532   0.16151   0.16774
 Alpha virt. eigenvalues --    0.17755   0.18808   0.19081   0.20827   0.22064

 Mulliken charges:
               1
     1  C   -0.498230
     2  C    0.236314
     3  C   -0.093966
     4  O   -0.280991
     5  C    0.049323
     6  C   -0.266464
     7  C    0.032215
     8  O   -0.265021
     9  C    0.024508
    10  H    0.130207
    11  H    0.118202
    12  H    0.116734
    13  H    0.097586
    14  H    0.097848
    15  H    0.077000
    16  H    0.123189
    17  H    0.100230
    18  H    0.104488
    19  H    0.096826
 Sum of Mulliken charges =   0.00000

 Dipole moment (field-independent basis, Debye):
    X=             -1.2102    Y=              0.1607    Z=             -0.2985  Tot=              1.2568
 Quadrupole moment (field-independent basis, Debye-Ang):
   XX=            -50.6925   YY=            -60.0597   ZZ=            -50.6498
   XY=              0.5393   XZ=              0.3814   YZ=              2.3936

  Exact polarizability:  80.124  -0.082  69.667   1.863   1.719  68.209
 Approx polarizability: 112.953  -0.296 109.256   5.041  -1.079 103.023

                      1                      2                      3
                      A                      A                      A
 Frequencies --    219.3042               227.5405               266.6352
 Red. masses --      1.2200                 2.0268                 2.4131
 Frc consts  --      0.0346                 0.0618                 0.1011
 IR Inten    --      0.0945                 0.5927                 0.1334

                      4                      5                      6
                      A                      A                      A
 Frequencies --    313.9813               360.1771               406.0462
 Red. masses --      2.8422                 3.6381                 3.5196
 Frc consts  --      0.1651                 0.2781                 0.3419
 IR Inten    --      5.7429                 9.1801                 5.2369

                      7                      8                      9
                      A                      A                      A
 Frequencies --    476.6340               554.7523               597.2261
 Red. masses --      2.4559                 3.7175                 3.9971
 Frc consts  --      0.3287                 0.6741                 0.8400
 IR Inten    --      1.5681                 3.9727                 0.3986

                     10                     11                     12
                      A                      A                      A
 Frequencies --    611.5036               787.2060               805.4232
 Red. masses --      4.6964                 4.0072                 2.9831
 Frc consts  --      1.0347                 1.4631                 1.1402
 IR Inten    --      1.4868                 2.6033                 5.3860

                     13                     14                     15
                      A                      A                      A
 Frequencies --    865.3026               877.3210               901.3704
 Red. masses --      2.5500                 2.9758                 2.4010
 Frc consts  --      1.1249                 1.3495                 1.1493
 IR Inten    --      6.0358                 7.9190                 8.5439

                     16                     17                     18
                      A                      A                      A
 Frequencies --    906.2918               912.9678               951.7695
 Red. masses --      2.9699                 3.5540                 2.2755
 Frc consts  --      1.4372                 1.7453                 1.2145
 IR Inten    --     15.1777                36.6302                17.0826

                     19                     20                     21
                      A                      A                      A
 Frequencies --    964.7294               986.6480              1011.1652
 Red. masses --      2.3394                 1.4415                 1.6272
 Frc consts  --      1.2828                 0.8268                 0.9803
 IR Inten    --      6.7763                 5.1335                11.0357

                     22                     23                     24
                      A                      A                      A
 Frequencies --   1014.3637              1043.9534              1100.1713
 Red. masses --      2.7593                 2.2889                 1.3317
 Frc consts  --      1.6728                 1.4697                 0.9497
 IR Inten    --     13.2260                44.5281                 3.3955

                     25                     26                     27
                      A                      A                      A
 Frequencies --   1116.1428              1176.2485              1198.2157
 Red. masses --      1.2535                 1.4618                 2.0709
 Frc consts  --      0.9201                 1.1916                 1.7518
 IR Inten    --      8.0793                 3.0152                 1.2866

                     28                     29                     30
                      A                      A                      A
 Frequencies --   1208.6774              1246.8149              1265.1919
 Red. masses --      2.1912                 1.5468                 1.4471
 Frc consts  --      1.8861                 1.4167                 1.3647
 IR Inten    --      1.4093                 3.8439                 0.7294

                     31                     32                     33
                      A                      A                      A
 Frequencies --   1271.6334              1293.6599              1301.4712
 Red. masses --      1.8493                 1.4602                 1.5996
 Frc consts  --      1.7619                 1.4398                 1.5963
 IR Inten    --      5.5930                 0.3354                 0.3713

                     34                     35                     36
                      A                      A                      A
 Frequencies --   1337.9881              1373.0143              1416.5501
 Red. masses --      1.6369                 1.6177                 1.5795
 Frc consts  --      1.7265                 1.7968                 1.8674
 IR Inten    --      9.5605                 4.1918                 4.6974

                     37                     38                     39
                      A                      A                      A
 Frequencies --   1419.1775              1479.9745              1494.4346
 Red. masses --      1.9449                 1.1590                 1.0496
 Frc consts  --      2.3079                 1.4957                 1.3811
 IR Inten    --      8.8622                 6.4256                 5.2081

                     40                     41                     42
                      A                      A                      A
 Frequencies --   1498.5569              1521.9929              3007.9211
 Red. masses --      1.0521                 1.0958                 1.0557
 Frc consts  --      1.3920                 1.4955                 5.6277
 IR Inten    --      4.8504                 1.1196                55.5631

                     43                     44                     45
                      A                      A                      A
 Frequencies --   3028.1950              3046.2880              3086.2876
 Red. masses --      1.0362                 1.1095                 1.0633
 Frc consts  --      5.5982                 6.0662                 5.9676
 IR Inten    --     31.9228                32.7058                14.5527

                     46                     47                     48
                      A                      A                      A
 Frequencies --   3091.0738              3103.3828              3128.8783
 Red. masses --      1.0998                 1.1012                 1.0898
 Frc consts  --      6.1915                 6.2485                 6.2860
 IR Inten    --     26.5192                18.2071                34.4738

                     49                     50                     51
                      A                      A                      A
 Frequencies --   3148.6775              3160.5035              3177.9446
 Red. masses --      1.0892                 1.1034                 1.0948
 Frc consts  --      6.3625                 6.4939                 6.5146
 IR Inten    --     17.3412                 6.9268                19.8512

 - Thermochemistry -
 -------------------
 Temperature   298.150 Kelvin.  Pressure   1.00000 Atm.
 Atom     1 has atomic number  6 and mass  12.00000

 Molecular mass:   126.06808 amu.
 Principal axes and moments of inertia in atomic units:
                           1         2         3
     Eigenvalues --   761.64285 838.874141188.23470
           X            0.99253   0.12203   0.00006
           Y           -0.12201   0.99239   0.01690
           Z            0.00200  -0.01678   0.99986
 This molecule is an asymmetric top.
 Rotational symmetry number  1.
 Warning -- assumption of classical behavior for rotation
           may cause significant error
 Rotational temperatures (Kelvin)      0.11372     0.10325     0.07289
 Rotational constants (GHZ):           2.36954     2.15138     1.51884
 Zero-point vibrational energy     423247.0 (Joules/Mol)
                                  101.15847 (Kcal/Mol)
 Warning -- explicit consideration of  10 degrees of freedom as
           vibrations may cause significant error
 Vibrational temperatures:    315.53   327.38   383.63   451.75   518.21
          (Kelvin)            584.21   685.77   798.16   859.27   879.82
                             1132.61  1158.82  1244.98  1262.27  1296.87
                             1303.95  1313.56  1369.38  1388.03  1419.56
                             1454.84  1459.44  1502.01  1582.90  1605.88
                             1692.36  1723.96  1739.02  1793.89  1820.33
                             1829.59  1861.29  1872.52  1925.06  1975.46
                             2038.10  2041.88  2129.35  2150.16  2156.09
                             2189.81  4327.72  4356.89  4382.92  4440.47
                             4447.36  4465.07  4501.75  4530.24  4547.25
                             4572.35

 Zero-point correction=                           0.161206 (Hartree/Particle)
 Thermal correction to Energy=                    0.168230
 Thermal correction to Enthalpy=                  0.169174
 Thermal correction to Gibbs Free Energy=         0.130312
 Sum of electronic and zero-point Energies=           -423.012356
 Sum of electronic and thermal Energies=              -423.005333
 Sum of electronic and thermal Enthalpies=            -423.004388
 Sum of electronic and thermal Free Energies=         -423.043251

                     E (Thermal)             CV                S
                      KCal/Mol        Cal/Mol-Kelvin    Cal/Mol-Kelvin
 Total                  105.566             29.334             81.792
 Electronic               0.000              0.000              0.000
 Translational            0.889              2.981             40.409
 Rotational               0.889              2.981             28.120
 Vibrational            103.788             23.372             13.264
 Vibration     1          0.647              1.812              1.965
 Vibration     2          0.651              1.799              1.898
 Vibration     3          0.672              1.734              1.618
 Vibration     4          0.702              1.647              1.341
 Vibration     5          0.735              1.554              1.121
 Vibration     6          0.771              1.457              0.941
 Vibration     7          0.833              1.302              0.719
 Vibration     8          0.910              1.129              0.534
 Vibration     9          0.955              1.038              0.454
 Vibration    10          0.971              1.007              0.430

 Optimization completed.
    -- Stationary point found.
 Normal termination of Gaussian 09 at Mon Jan 27 20:29:20 2020.
