 Gaussian 09, Revision D.01,
 Gaussian 09:  ES64L-G09RevD.01 24-Apr-2013

 -----------------------------
 # b3lyp 6-31G(2df,p) opt Freq
 -----------------------------

 -----
 titel
 -----
 Symbolic Z-matrix:
 Charge =  0 Multiplicity = 1

 SCF Done:  E(RB3LYP) =  -423.210060360     A.U. after   14 cycles
 Optimization completed.
    -- Stationary point found.
 Normal termination of Gaussian 09 at Tue Jan 28 03:04:08 2020.

 ----------------------------------------------------------------------
 #N Geom=AllCheck Guess=TCheck SCRF=Check GenChk RB3LYP/6-31G(2df,p) Fr
 eq
 ----------------------------------------------------------------------

 Structure from the checkpoint file:  "/scratch/puck/g09_9d5ea655-34d6-418d-8bd4-e3e71d7340d2/Gau-88232.chk"
 -----
 titel
 -----
 Charge =  0 Multiplicity = 1

                         Standard orientation:
 ---------------------------------------------------------------------
 Center     Atomic      Atomic             Coordinates (Angstroms)
 Number     Number       Type             X           Y           Z
 ---------------------------------------------------------------------
      1          6           0       -2.912475   -0.449188   -0.221088
      2          6           0       -1.420854   -0.310999   -0.456204
      3          8           0       -1.013463    1.075400   -0.602781
      4          6           0       -0.190285    1.022267    0.581982
      5          6           0        1.290210    1.185785    0.269568
      6          6           0        1.780719   -0.215472   -0.117543
      7          8           0        2.755338   -0.469765   -0.773064
      8          6           0        0.819780   -1.247913    0.496716
      9          6           0       -0.487371   -0.500906    0.763226
     10          1           0       -3.220512    0.098226    0.675468
     11          1           0       -3.469099   -0.049368   -1.074098
     12          1           0       -3.185271   -1.503193   -0.096909
     13          1           0       -1.121138   -0.891699   -1.339942
     14          1           0       -0.555858    1.707901    1.353068
     15          1           0        1.482957    1.910720   -0.523919
     16          1           0        1.849201    1.504041    1.160104
     17          1           0        0.721193   -2.116889   -0.159174
     18          1           0        1.275718   -1.601189    1.430719
     19          1           0       -0.990537   -0.805083    1.681499
 ---------------------------------------------------------------------

 SCF Done:  E(RB3LYP) =  -423.210060360     A.U. after    1 cycles

 The electronic state is 1-A.
 Alpha  occ. eigenvalues --  -19.13518 -19.13195 -10.27124 -10.24136 -10.23987
 Alpha  occ. eigenvalues --  -10.20101 -10.19657 -10.19105 -10.18220  -1.04581
 Alpha  occ. eigenvalues --   -1.03980  -0.82338  -0.77186  -0.72338  -0.68172
 Alpha  occ. eigenvalues --   -0.62618  -0.54539  -0.54200  -0.50480  -0.48344
 Alpha  occ. eigenvalues --   -0.46835  -0.43843  -0.42599  -0.42568  -0.41625
 Alpha  occ. eigenvalues --   -0.39579  -0.38635  -0.37795  -0.36960  -0.34776
 Alpha  occ. eigenvalues --   -0.31226  -0.30150  -0.26077  -0.23881
 Alpha virt. eigenvalues --   -0.01918   0.08383   0.08935   0.10305   0.10878
 Alpha virt. eigenvalues --    0.12916   0.13423   0.15400   0.15694   0.16214
 Alpha virt. eigenvalues --    0.16611   0.18398   0.19157   0.19824   0.22988

 Mulliken charges:
               1
     1  C   -0.406070
     2  C    0.158105
     3  O   -0.311681
     4  C    0.118648
     5  C   -0.333615
     6  C    0.387718
     7  O   -0.300506
     8  C   -0.344691
     9  C   -0.101540
    10  H    0.119492
    11  H    0.130479
    12  H    0.116466
    13  H    0.080299
    14  H    0.077947
    15  H    0.143062
    16  H    0.125034
    17  H    0.131601
    18  H    0.129933
    19  H    0.079318
 Sum of Mulliken charges =   0.00000

 Dipole moment (field-independent basis, Debye):
    X=             -1.9425    Y=             -0.6353    Z=              2.4999  Tot=              3.2290
 Quadrupole moment (field-independent basis, Debye-Ang):
   XX=            -60.4702   YY=            -52.4590   ZZ=            -52.5433
   XY=              4.3633   XZ=              3.8916   YZ=              1.1706

  Exact polarizability:  86.445   2.548  72.694  -1.304   2.394  65.521
 Approx polarizability: 112.711   0.453 107.031  -5.667   3.279 104.551

                      1                      2                      3
                      A                      A                      A
 Frequencies --     58.5370                77.4607               229.0821
 Red. masses --      3.8531                 4.6147                 1.2387
 Frc consts  --      0.0078                 0.0163                 0.0383
 IR Inten    --      1.6006                 4.5104                 0.2740

                      4                      5                      6
                      A                      A                      A
 Frequencies --    256.9424               277.2268               355.6458
 Red. masses --      1.9923                 1.8723                 2.5632
 Frc consts  --      0.0775                 0.0848                 0.1910
 IR Inten    --      0.7173                 0.4648                 1.0288

                      7                      8                      9
                      A                      A                      A
 Frequencies --    448.2953               450.4751               463.0523
 Red. masses --      2.6095                 2.8410                 4.9567
 Frc consts  --      0.3090                 0.3397                 0.6262
 IR Inten    --      1.3164                 6.3481                 6.8631

                     10                     11                     12
                      A                      A                      A
 Frequencies --    648.2362               649.7756               741.7115
 Red. masses --      4.0795                 4.2027                 1.9111
 Frc consts  --      1.0100                 1.0455                 0.6195
 IR Inten    --      2.9402                 1.1194                 6.0739

                     13                     14                     15
                      A                      A                      A
 Frequencies --    783.5092               796.2749               846.4293
 Red. masses --      3.8200                 3.0132                 2.3169
 Frc consts  --      1.3816                 1.1257                 0.9780
 IR Inten    --      6.7499                 2.8122                 5.4486

                     16                     17                     18
                      A                      A                      A
 Frequencies --    874.8504               897.5125               926.5416
 Red. masses --      2.3096                 2.4974                 2.3344
 Frc consts  --      1.0415                 1.1853                 1.1807
 IR Inten    --      1.9960                 5.3120                16.6474

                     19                     20                     21
                      A                      A                      A
 Frequencies --   1010.7210              1022.6380              1049.8948
 Red. masses --      1.4976                 1.8106                 2.4773
 Frc consts  --      0.9014                 1.1156                 1.6089
 IR Inten    --     14.1306                24.0168                61.7817

                     22                     23                     24
                      A                      A                      A
 Frequencies --   1081.5509              1102.7054              1116.9820
 Red. masses --      2.0130                 1.8620                 1.8032
 Frc consts  --      1.3874                 1.3339                 1.3255
 IR Inten    --     18.7289                10.7893                 9.1232

                     25                     26                     27
                      A                      A                      A
 Frequencies --   1130.2015              1168.5830              1178.1389
 Red. masses --      2.7452                 1.9573                 1.8806
 Frc consts  --      2.0660                 1.5748                 1.5379
 IR Inten    --     35.9308                32.9563                 9.2500

                     28                     29                     30
                      A                      A                      A
 Frequencies --   1223.3555              1259.1629              1274.0629
 Red. masses --      1.4574                 1.4287                 1.7742
 Frc consts  --      1.2851                 1.3346                 1.6968
 IR Inten    --      0.3631                 0.9315                 3.8967

                     31                     32                     33
                      A                      A                      A
 Frequencies --   1289.7555              1314.3636              1336.1370
 Red. masses --      1.5218                 1.4600                 1.4234
 Frc consts  --      1.4915                 1.4860                 1.4972
 IR Inten    --      3.5469                 8.7225                 6.8646

                     34                     35                     36
                      A                      A                      A
 Frequencies --   1365.2901              1397.6355              1408.5307
 Red. masses --      1.4265                 1.3297                 1.4279
 Frc consts  --      1.5667                 1.5304                 1.6691
 IR Inten    --     14.8421                 2.0613                15.5521

                     37                     38                     39
                      A                      A                      A
 Frequencies --   1429.4412              1449.5460              1484.4175
 Red. masses --      1.0938                 1.0890                 1.0570
 Frc consts  --      1.3168                 1.3482                 1.3723
 IR Inten    --     13.3872                 6.1578                 3.0861

                     40                     41                     42
                      A                      A                      A
 Frequencies --   1493.0634              1852.2275              3002.6656
 Red. masses --      1.0494                12.6012                 1.0850
 Frc consts  --      1.3783                25.4713                 5.7638
 IR Inten    --      3.1093               220.4333                42.3341

                     43                     44                     45
                      A                      A                      A
 Frequencies --   3028.5950              3032.2738              3034.7607
 Red. masses --      1.0686                 1.0354                 1.0672
 Frc consts  --      5.7749                 5.6094                 5.7907
 IR Inten    --      2.7950                16.9935                16.6755

                     46                     47                     48
                      A                      A                      A
 Frequencies --   3052.1344              3100.6429              3103.8774
 Red. masses --      1.0865                 1.0930                 1.0930
 Frc consts  --      5.9631                 6.1912                 6.2043
 IR Inten    --     43.5943                 6.2161                16.5195

                     49                     50                     51
                      A                      A                      A
 Frequencies --   3104.5461              3113.5642              3120.3355
 Red. masses --      1.0990                 1.1016                 1.0939
 Frc consts  --      6.2408                 6.2919                 6.2753
 IR Inten    --     27.1732                27.7469                 2.1012

 - Thermochemistry -
 -------------------
 Temperature   298.150 Kelvin.  Pressure   1.00000 Atm.
 Atom     1 has atomic number  6 and mass  12.00000

 Molecular mass:   126.06808 amu.
 Principal axes and moments of inertia in atomic units:
                           1         2         3
     Eigenvalues --   507.235381505.251041689.54230
           X            0.99957   0.02674   0.01206
           Y           -0.02702   0.99935   0.02404
           Z           -0.01141  -0.02435   0.99964
 This molecule is an asymmetric top.
 Rotational symmetry number  1.
 Warning -- assumption of classical behavior for rotation
           may cause significant error
 Rotational temperatures (Kelvin)      0.17076     0.05754     0.05126
 Rotational constants (GHZ):           3.55800     1.19896     1.06818
 Zero-point vibrational energy     418174.7 (Joules/Mol)
                                   99.94616 (Kcal/Mol)
 Warning -- explicit consideration of   9 degrees of freedom as
           vibrations may cause significant error
 Vibrational temperatures:     84.22   111.45   329.60   369.68   398.87
          (Kelvin)            511.69   645.00   648.13   666.23   932.67
                              934.88  1067.16  1127.29  1145.66  1217.82
                             1258.71  1291.32  1333.08  1454.20  1471.35
                             1510.56  1556.11  1586.55  1607.09  1626.11
                             1681.33  1695.08  1760.13  1811.65  1833.09
                             1855.67  1891.07  1922.40  1964.35  2010.88
                             2026.56  2056.64  2085.57  2135.74  2148.18
                             2664.94  4320.16  4357.47  4362.76  4366.34
                             4391.34  4461.13  4465.78  4466.74  4479.72
                             4489.46

 Zero-point correction=                           0.159274 (Hartree/Particle)
 Thermal correction to Energy=                    0.167394
 Thermal correction to Enthalpy=                  0.168338
 Thermal correction to Gibbs Free Energy=         0.126034
 Sum of electronic and zero-point Energies=           -423.050786
 Sum of electronic and thermal Energies=              -423.042666
 Sum of electronic and thermal Enthalpies=            -423.041722
 Sum of electronic and thermal Free Energies=         -423.084026

                     E (Thermal)             CV                S
                      KCal/Mol        Cal/Mol-Kelvin    Cal/Mol-Kelvin
 Total                  105.041             31.034             89.037
 Electronic               0.000              0.000              0.000
 Translational            0.889              2.981             40.409
 Rotational               0.889              2.981             28.647
 Vibrational            103.264             25.072             19.982
 Vibration     1          0.596              1.974              4.506
 Vibration     2          0.599              1.964              3.954
 Vibration     3          0.652              1.797              1.886
 Vibration     4          0.667              1.751              1.682
 Vibration     5          0.678              1.716              1.551
 Vibration     6          0.731              1.564              1.141
 Vibration     7          0.807              1.365              0.801
 Vibration     8          0.809              1.360              0.794
 Vibration     9          0.821              1.332              0.757

 Normal termination of Gaussian 09 at Tue Jan 28 03:45:51 2020.
