 Gaussian 09, Revision D.01,
 Gaussian 09:  ES64L-G09RevD.01 24-Apr-2013

 -----------------------------
 # b3lyp 6-31G(2df,p) opt Freq
 -----------------------------

 -----
 titel
 -----
 Symbolic Z-matrix:
 Charge =  0 Multiplicity = 1

 SCF Done:  E(RB3LYP) =  -423.147863291     A.U. after   13 cycles
 Optimization completed.
    -- Stationary point found.
 Normal termination of Gaussian 09 at Tue Jan 28 09:37:19 2020.

 ----------------------------------------------------------------------
 #N Geom=AllCheck Guess=TCheck SCRF=Check GenChk RB3LYP/6-31G(2df,p) Fr
 eq
 ----------------------------------------------------------------------

 Structure from the checkpoint file:  "/scratch/puck/g09_ad4c651b-bd77-4298-81d1-5ceb7daa02e6/Gau-132154.chk"
 -----
 titel
 -----
 Charge =  0 Multiplicity = 1

                         Standard orientation:
 ---------------------------------------------------------------------
 Center     Atomic      Atomic             Coordinates (Angstroms)
 Number     Number       Type             X           Y           Z
 ---------------------------------------------------------------------
      1          6           0        2.868430    0.343896    0.222025
      2          8           0        1.830265   -0.031712   -0.665226
      3          6           0        0.571133   -0.071025   -0.072785
      4          6           0        0.224018   -1.248503    0.797758
      5          6           0       -0.431110   -1.088218   -0.565741
      6          6           0       -1.777448   -0.404798   -0.594011
      7          8           0       -2.250167    0.036770    0.688827
      8          6           0       -1.620696    0.997574   -0.169470
      9          6           0       -0.155319    1.270285    0.136469
     10          1           0        2.923815   -0.329611    1.088660
     11          1           0        3.804008    0.283592   -0.338809
     12          1           0        2.742787    1.372648    0.588977
     13          1           0        0.980361   -2.022869    0.867975
     14          1           0       -0.394820   -1.106862    1.675212
     15          1           0       -0.175149   -1.779979   -1.358478
     16          1           0       -2.548411   -0.741108   -1.281050
     17          1           0       -2.266485    1.806446   -0.503006
     18          1           0        0.239533    1.988472   -0.590934
     19          1           0       -0.020471    1.693529    1.137169
 ---------------------------------------------------------------------

 SCF Done:  E(RB3LYP) =  -423.147863291     A.U. after    1 cycles

 The electronic state is 1-A.
 Alpha  occ. eigenvalues --  -19.14778 -19.14513 -10.23784 -10.23567 -10.23404
 Alpha  occ. eigenvalues --  -10.22471 -10.18926 -10.18852 -10.18234  -1.07003
 Alpha  occ. eigenvalues --   -1.03947  -0.86104  -0.74676  -0.69658  -0.67672
 Alpha  occ. eigenvalues --   -0.60678  -0.56613  -0.55428  -0.53429  -0.47754
 Alpha  occ. eigenvalues --   -0.46046  -0.45477  -0.44603  -0.42656  -0.41767
 Alpha  occ. eigenvalues --   -0.40038  -0.36591  -0.36125  -0.34378  -0.32778
 Alpha  occ. eigenvalues --   -0.28907  -0.26815  -0.25883  -0.24899
 Alpha virt. eigenvalues --    0.07683   0.09073   0.10462   0.12048   0.13257
 Alpha virt. eigenvalues --    0.14476   0.14576   0.15552   0.15952   0.16514
 Alpha virt. eigenvalues --    0.17294   0.17788   0.18790   0.19740   0.20996

 Mulliken charges:
               1
     1  C   -0.252129
     2  O   -0.281880
     3  C    0.429333
     4  C   -0.344039
     5  C   -0.147196
     6  C    0.026546
     7  O   -0.255882
     8  C    0.043268
     9  C   -0.329461
    10  H    0.110523
    11  H    0.126255
    12  H    0.109045
    13  H    0.112436
    14  H    0.134242
    15  H    0.095958
    16  H    0.096838
    17  H    0.096640
    18  H    0.115005
    19  H    0.114497
 Sum of Mulliken charges =   0.00000

 Dipole moment (field-independent basis, Debye):
    X=              0.9750    Y=              0.6366    Z=             -0.3917  Tot=              1.2285
 Quadrupole moment (field-independent basis, Debye-Ang):
   XX=            -53.3917   YY=            -50.2892   ZZ=            -54.0312
   XY=             -0.3480   XZ=              6.0014   YZ=              0.5801

  Exact polarizability:  85.309   0.332  74.366   4.163   0.606  63.008
 Approx polarizability: 110.605   2.717 110.137   1.287   1.316 102.971

                      1                      2                      3
                      A                      A                      A
 Frequencies --    106.5145               151.3195               183.6331
 Red. masses --      2.5886                 3.2849                 1.1357
 Frc consts  --      0.0173                 0.0443                 0.0226
 IR Inten    --      2.0775                 3.7508                 0.0156

                      4                      5                      6
                      A                      A                      A
 Frequencies --    274.5659               305.7280               363.4963
 Red. masses --      2.8374                 3.1129                 4.7899
 Frc consts  --      0.1260                 0.1714                 0.3729
 IR Inten    --      5.2831                 1.8977                 3.5325

                      7                      8                      9
                      A                      A                      A
 Frequencies --    410.9571               412.5635               563.1435
 Red. masses --      3.7856                 2.1201                 2.6517
 Frc consts  --      0.3767                 0.2126                 0.4955
 IR Inten    --      6.3518                 2.3427                 3.2228

                     10                     11                     12
                      A                      A                      A
 Frequencies --    639.7934               695.3871               714.3079
 Red. masses --      3.4248                 5.6546                 3.8949
 Frc consts  --      0.8260                 1.6110                 1.1709
 IR Inten    --     11.8079                 0.7825                 0.4063

                     13                     14                     15
                      A                      A                      A
 Frequencies --    815.4997               827.7005               876.2107
 Red. masses --      2.9052                 2.5087                 2.0625
 Frc consts  --      1.1384                 1.0126                 0.9330
 IR Inten    --      6.0215                25.0643                17.7668

                     16                     17                     18
                      A                      A                      A
 Frequencies --    892.7910               921.5316               951.6162
 Red. masses --      1.9974                 2.3138                 2.6390
 Frc consts  --      0.9380                 1.1577                 1.4080
 IR Inten    --      1.9892                10.3941                 4.7575

                     19                     20                     21
                      A                      A                      A
 Frequencies --    969.0853               990.9938              1048.6358
 Red. masses --      2.0714                 1.9235                 1.5018
 Frc consts  --      1.1461                 1.1130                 0.9730
 IR Inten    --      0.9470                 1.8061                 3.9119

                     22                     23                     24
                      A                      A                      A
 Frequencies --   1051.8226              1067.7975              1075.8189
 Red. masses --      2.0636                 1.9480                 1.5806
 Frc consts  --      1.3451                 1.3086                 1.0778
 IR Inten    --     27.3758                19.3146                22.9588

                     25                     26                     27
                      A                      A                      A
 Frequencies --   1099.1741              1118.9841              1182.8183
 Red. masses --      1.7044                 1.6792                 1.2847
 Frc consts  --      1.2133                 1.2388                 1.0590
 IR Inten    --      7.4220                18.0485                 2.5809

                     28                     29                     30
                      A                      A                      A
 Frequencies --   1196.6452              1209.7256              1239.7534
 Red. masses --      1.4661                 1.5301                 1.8102
 Frc consts  --      1.2369                 1.3193                 1.6393
 IR Inten    --     28.3760                10.9482                18.1366

                     31                     32                     33
                      A                      A                      A
 Frequencies --   1257.7400              1268.1654              1304.6451
 Red. masses --      1.8728                 1.5128                 2.0689
 Frc consts  --      1.7456                 1.4334                 2.0748
 IR Inten    --     12.4440                10.8368                32.1228

                     34                     35                     36
                      A                      A                      A
 Frequencies --   1341.9275              1373.9742              1417.1862
 Red. masses --      1.5351                 2.2906                 2.3949
 Frc consts  --      1.6287                 2.5478                 2.8339
 IR Inten    --     12.4537                80.2462                13.5847

                     37                     38                     39
                      A                      A                      A
 Frequencies --   1463.5625              1471.3296              1485.9764
 Red. masses --      1.3229                 1.1092                 1.1984
 Frc consts  --      1.6695                 1.4148                 1.5591
 IR Inten    --      7.3022                 1.0279                 3.5110

                     40                     41                     42
                      A                      A                      A
 Frequencies --   1490.9744              1508.3412              2991.4882
 Red. masses --      1.1215                 1.0557                 1.0352
 Frc consts  --      1.4690                 1.4151                 5.4584
 IR Inten    --      3.3287                 6.0161                50.2600

                     43                     44                     45
                      A                      A                      A
 Frequencies --   3042.4921              3046.0394              3088.8549
 Red. masses --      1.0844                 1.0767                 1.1041
 Frc consts  --      5.9142                 5.8861                 6.2068
 IR Inten    --     14.5125                49.7802                11.7459

                     46                     47                     48
                      A                      A                      A
 Frequencies --   3118.6661              3139.0032              3139.5605
 Red. masses --      1.0982                 1.0550                 1.0873
 Frc consts  --      6.2932                 6.1245                 6.3144
 IR Inten    --     30.8406                16.1880                19.8561

                     49                     50                     51
                      A                      A                      A
 Frequencies --   3159.0786              3196.9430              3236.3088
 Red. masses --      1.0932                 1.0923                 1.1166
 Frc consts  --      6.4277                 6.5774                 6.8905
 IR Inten    --     31.4361                 7.7451                 2.1190

 - Thermochemistry -
 -------------------
 Temperature   298.150 Kelvin.  Pressure   1.00000 Atm.
 Atom     1 has atomic number  6 and mass  12.00000

 Molecular mass:   126.06808 amu.
 Principal axes and moments of inertia in atomic units:
                           1         2         3
     Eigenvalues --   468.158411412.479521580.32877
           X            0.99965   0.00349   0.02618
           Y           -0.00349   0.99999  -0.00022
           Z           -0.02618   0.00013   0.99966
 This molecule is an asymmetric top.
 Rotational symmetry number  1.
 Warning -- assumption of classical behavior for rotation
           may cause significant error
 Rotational temperatures (Kelvin)      0.18501     0.06132     0.05481
 Rotational constants (GHZ):           3.85498     1.27771     1.14200
 Zero-point vibrational energy     418096.5 (Joules/Mol)
                                   99.92745 (Kcal/Mol)
 Warning -- explicit consideration of   9 degrees of freedom as
           vibrations may cause significant error
 Vibrational temperatures:    153.25   217.71   264.21   395.04   439.87
          (Kelvin)            522.99   591.27   593.59   810.24   920.52
                             1000.51  1027.73  1173.32  1190.87  1260.67
                             1284.53  1325.88  1369.16  1394.30  1425.82
                             1508.75  1513.34  1536.32  1547.86  1581.46
                             1609.97  1701.81  1721.70  1740.52  1783.73
                             1809.61  1824.60  1877.09  1930.73  1976.84
                             2039.01  2105.74  2116.91  2137.99  2145.18
                             2170.16  4304.08  4377.46  4382.57  4444.17
                             4487.06  4516.32  4517.12  4545.20  4599.68
                             4656.32

 Zero-point correction=                           0.159245 (Hartree/Particle)
 Thermal correction to Energy=                    0.167129
 Thermal correction to Enthalpy=                  0.168073
 Thermal correction to Gibbs Free Energy=         0.127003
 Sum of electronic and zero-point Energies=           -422.988619
 Sum of electronic and thermal Energies=              -422.980734
 Sum of electronic and thermal Enthalpies=            -422.979790
 Sum of electronic and thermal Free Energies=         -423.020860

                     E (Thermal)             CV                S
                      KCal/Mol        Cal/Mol-Kelvin    Cal/Mol-Kelvin
 Total                  104.875             30.998             86.440
 Electronic               0.000              0.000              0.000
 Translational            0.889              2.981             40.409
 Rotational               0.889              2.981             28.437
 Vibrational            103.098             25.037             17.594
 Vibration     1          0.605              1.944              3.331
 Vibration     2          0.619              1.901              2.656
 Vibration     3          0.631              1.862              2.291
 Vibration     4          0.677              1.720              1.567
 Vibration     5          0.696              1.663              1.385
 Vibration     6          0.737              1.547              1.107
 Vibration     7          0.775              1.446              0.923
 Vibration     8          0.776              1.443              0.918
 Vibration     9          0.919              1.111              0.518

 Optimization completed.
    -- Stationary point found.
 Normal termination of Gaussian 09 at Tue Jan 28 10:21:54 2020.
