 Gaussian 09, Revision D.01,
 Gaussian 09:  ES64L-G09RevD.01 24-Apr-2013

 -----------------------------
 # b3lyp 6-31G(2df,p) opt Freq
 -----------------------------

 -----
 titel
 -----
 Symbolic Z-matrix:
 Charge =  0 Multiplicity = 1

 SCF Done:  E(RB3LYP) =  -423.152249952     A.U. after   14 cycles
 Optimization completed.
    -- Stationary point found.
 Normal termination of Gaussian 09 at Tue Jan 28 12:09:16 2020.

 ----------------------------------------------------------------------
 #N Geom=AllCheck Guess=TCheck SCRF=Check GenChk RB3LYP/6-31G(2df,p) Fr
 eq
 ----------------------------------------------------------------------

 Structure from the checkpoint file:  "/scratch/puck/g09_ea2b7bb4-6a7e-4201-ac49-02664ead9401/Gau-65840.chk"
 -----
 titel
 -----
 Charge =  0 Multiplicity = 1

                         Standard orientation:
 ---------------------------------------------------------------------
 Center     Atomic      Atomic             Coordinates (Angstroms)
 Number     Number       Type             X           Y           Z
 ---------------------------------------------------------------------
      1          8           0       -2.609386   -0.408372   -0.020358
      2          6           0       -1.486217   -0.037916   -0.797427
      3          6           0       -0.244162    0.076691    0.082079
      4          6           0       -0.179022    1.407396    0.918224
      5          6           0        0.835638    1.969140   -0.154060
      6          6           0        1.053884    0.514538   -0.515220
      7          6           0        1.949722   -0.462443   -0.445353
      8          6           0        1.247651   -1.689913    0.121204
      9          8           0        0.006143   -1.199521    0.671987
     10          1           0       -2.336610   -1.193193    0.470754
     11          1           0       -1.290864   -0.766197   -1.600624
     12          1           0       -1.726027    0.922276   -1.266193
     13          1           0       -1.119312    1.946295    1.051660
     14          1           0        0.307690    1.242546    1.880441
     15          1           0        0.324479    2.552094   -0.925689
     16          1           0        1.702107    2.529521    0.200278
     17          1           0        3.021990   -0.412466   -0.586994
     18          1           0        1.046716   -2.475516   -0.624051
     19          1           0        1.830801   -2.147176    0.930704
 ---------------------------------------------------------------------

 SCF Done:  E(RB3LYP) =  -423.152249952     A.U. after    1 cycles

 The electronic state is 1-A.
 Alpha  occ. eigenvalues --  -19.14174 -19.12752 -10.23641 -10.23023 -10.22259
 Alpha  occ. eigenvalues --  -10.20286 -10.19124 -10.18983 -10.18765  -1.04026
 Alpha  occ. eigenvalues --   -1.00625  -0.85411  -0.76826  -0.70632  -0.66374
 Alpha  occ. eigenvalues --   -0.63489  -0.57828  -0.53934  -0.49673  -0.48735
 Alpha  occ. eigenvalues --   -0.47245  -0.45699  -0.43645  -0.41712  -0.41101
 Alpha  occ. eigenvalues --   -0.36971  -0.36621  -0.35238  -0.34722  -0.32742
 Alpha  occ. eigenvalues --   -0.30438  -0.27403  -0.25947  -0.22989
 Alpha virt. eigenvalues --    0.00113   0.08350   0.09410   0.11319   0.12613
 Alpha virt. eigenvalues --    0.13518   0.13932   0.15687   0.16220   0.17023
 Alpha virt. eigenvalues --    0.17500   0.18346   0.18809   0.20708   0.21259

 Mulliken charges:
               1
     1  O   -0.424375
     2  C   -0.100868
     3  C    0.354288
     4  C   -0.280342
     5  C   -0.317689
     6  C    0.195456
     7  C   -0.237371
     8  C   -0.128153
     9  O   -0.335675
    10  H    0.290814
    11  H    0.085646
    12  H    0.101867
    13  H    0.115175
    14  H    0.117725
    15  H    0.119735
    16  H    0.117767
    17  H    0.106158
    18  H    0.105727
    19  H    0.114117
 Sum of Mulliken charges =   0.00000

 Dipole moment (field-independent basis, Debye):
    X=              2.2468    Y=              0.3392    Z=             -0.3324  Tot=              2.2965
 Quadrupole moment (field-independent basis, Debye-Ang):
   XX=            -56.5287   YY=            -49.2642   ZZ=            -53.7054
   XY=             -0.5827   XZ=              0.4376   YZ=              0.1010

  Exact polarizability:  84.258  -8.858  87.710  -0.976  -0.024  60.981
 Approx polarizability: 122.489 -18.917 128.603  -2.821  -3.112  93.888

                      1                      2                      3
                      A                      A                      A
 Frequencies --     89.0976               140.3032               177.3527
 Red. masses --      4.2131                 3.0829                 2.7668
 Frc consts  --      0.0197                 0.0358                 0.0513
 IR Inten    --      3.8550                 2.2604                 0.1300

                      4                      5                      6
                      A                      A                      A
 Frequencies --    240.3189               291.9853               341.1495
 Red. masses --      2.2649                 2.8714                 2.1397
 Frc consts  --      0.0771                 0.1442                 0.1467
 IR Inten    --      2.3405                 0.8890                 3.9258

                      7                      8                      9
                      A                      A                      A
 Frequencies --    394.4427               474.5983               493.3291
 Red. masses --      3.3062                 1.1723                 3.3437
 Frc consts  --      0.3031                 0.1556                 0.4795
 IR Inten    --      5.4288               105.1015                 1.9869

                     10                     11                     12
                      A                      A                      A
 Frequencies --    628.2328               679.1336               714.0382
 Red. masses --      3.5605                 3.2618                 4.6288
 Frc consts  --      0.8280                 0.8864                 1.3905
 IR Inten    --     17.3287                 4.9826                 6.8961

                     13                     14                     15
                      A                      A                      A
 Frequencies --    772.2631               797.2206               821.4243
 Red. masses --      1.3902                 2.4154                 1.6965
 Frc consts  --      0.4885                 0.9045                 0.6744
 IR Inten    --      8.9430                10.6095                 6.6385

                     16                     17                     18
                      A                      A                      A
 Frequencies --    875.6580               915.6347               922.6416
 Red. masses --      2.4755                 2.4046                 2.1717
 Frc consts  --      1.1184                 1.1878                 1.0892
 IR Inten    --      7.3373                 7.4070                 7.1747

                     19                     20                     21
                      A                      A                      A
 Frequencies --    935.3819              1014.4640              1022.0455
 Red. masses --      1.9045                 4.0887                 2.1563
 Frc consts  --      0.9817                 2.4792                 1.3271
 IR Inten    --      1.2055                39.8092                20.8178

                     22                     23                     24
                      A                      A                      A
 Frequencies --   1051.8048              1065.6678              1086.8680
 Red. masses --      2.3517                 2.5446                 2.4414
 Frc consts  --      1.5329                 1.7026                 1.6992
 IR Inten    --     32.0314                91.4317                20.9863

                     25                     26                     27
                      A                      A                      A
 Frequencies --   1121.1415              1128.4429              1172.0972
 Red. masses --      2.1176                 2.0066                 1.8091
 Frc consts  --      1.5682                 1.5055                 1.4643
 IR Inten    --      9.4156                14.5479                10.1704

                     28                     29                     30
                      A                      A                      A
 Frequencies --   1196.5399              1219.1989              1221.9866
 Red. masses --      1.1062                 1.3289                 1.4293
 Frc consts  --      0.9331                 1.1638                 1.2575
 IR Inten    --      1.6080                 2.0722                 7.5235

                     31                     32                     33
                      A                      A                      A
 Frequencies --   1239.3229              1257.6850              1315.3505
 Red. masses --      1.6254                 1.5352                 2.2894
 Frc consts  --      1.4709                 1.4307                 2.3337
 IR Inten    --      5.2687                19.8569                 4.5996

                     34                     35                     36
                      A                      A                      A
 Frequencies --   1363.8965              1376.1743              1431.5813
 Red. masses --      1.3933                 1.3105                 1.2819
 Frc consts  --      1.5270                 1.4623                 1.5479
 IR Inten    --     14.6296                 5.6055                70.7341

                     37                     38                     39
                      A                      A                      A
 Frequencies --   1470.3394              1484.1516              1501.2711
 Red. masses --      1.0921                 1.1081                 1.0948
 Frc consts  --      1.3910                 1.4381                 1.4538
 IR Inten    --      2.6338                 2.4635                 0.4256

                     40                     41                     42
                      A                      A                      A
 Frequencies --   1518.7998              1725.8049              2975.1305
 Red. masses --      1.0872                 8.3926                 1.0691
 Frc consts  --      1.4776                14.7276                 5.5754
 IR Inten    --      0.8478                 4.3543                21.9501

                     43                     44                     45
                      A                      A                      A
 Frequencies --   2980.3778              3035.7085              3060.9514
 Red. masses --      1.0690                 1.0934                 1.0621
 Frc consts  --      5.5948                 5.9368                 5.8632
 IR Inten    --    111.1713                42.3715                19.8575

                     46                     47                     48
                      A                      A                      A
 Frequencies --   3071.5939              3075.8672              3121.4476
 Red. masses --      1.0846                 1.0646                 1.1047
 Frc consts  --      6.0288                 5.9344                 6.3416
 IR Inten    --     23.9837                40.0976                13.9417

                     49                     50                     51
                      A                      A                      A
 Frequencies --   3146.5444              3212.3352              3785.0644
 Red. masses --      1.1093                 1.0958                 1.0653
 Frc consts  --      6.4712                 6.6621                 8.9927
 IR Inten    --     20.0527                 7.0632                26.0547

 - Thermochemistry -
 -------------------
 Temperature   298.150 Kelvin.  Pressure   1.00000 Atm.
 Atom     1 has atomic number  8 and mass  15.99491

 Molecular mass:   126.06808 amu.
 Principal axes and moments of inertia in atomic units:
                           1         2         3
     Eigenvalues --   753.254211048.047611496.62957
           X            0.99960  -0.02689   0.00874
           Y            0.02677   0.99954   0.01407
           Z           -0.00911  -0.01383   0.99986
 This molecule is an asymmetric top.
 Rotational symmetry number  1.
 Warning -- assumption of classical behavior for rotation
           may cause significant error
 Rotational temperatures (Kelvin)      0.11499     0.08264     0.05787
 Rotational constants (GHZ):           2.39593     1.72200     1.20587
 Zero-point vibrational energy     419613.3 (Joules/Mol)
                                  100.28998 (Kcal/Mol)
 Warning -- explicit consideration of   9 degrees of freedom as
           vibrations may cause significant error
 Vibrational temperatures:    128.19   201.86   255.17   345.76   420.10
          (Kelvin)            490.84   567.51   682.84   709.79   903.89
                              977.12  1027.34  1111.11  1147.02  1181.84
                             1259.87  1317.39  1327.47  1345.80  1459.59
                             1470.49  1513.31  1533.26  1563.76  1613.07
                             1623.58  1686.38  1721.55  1754.15  1758.16
                             1783.11  1809.53  1892.49  1962.34  1980.01
                             2059.72  2115.49  2135.36  2159.99  2185.21
                             2483.05  4280.54  4288.09  4367.70  4404.02
                             4419.33  4425.48  4491.06  4527.17  4621.83
                             5445.86

 Zero-point correction=                           0.159822 (Hartree/Particle)
 Thermal correction to Energy=                    0.167925
 Thermal correction to Enthalpy=                  0.168869
 Thermal correction to Gibbs Free Energy=         0.127194
 Sum of electronic and zero-point Energies=           -422.992428
 Sum of electronic and thermal Energies=              -422.984325
 Sum of electronic and thermal Enthalpies=            -422.983381
 Sum of electronic and thermal Free Energies=         -423.025056

                     E (Thermal)             CV                S
                      KCal/Mol        Cal/Mol-Kelvin    Cal/Mol-Kelvin
 Total                  105.375             31.503             87.714
 Electronic               0.000              0.000              0.000
 Translational            0.889              2.981             40.409
 Rotational               0.889              2.981             28.559
 Vibrational            103.597             25.541             18.746
 Vibration     1          0.602              1.957              3.680
 Vibration     2          0.615              1.913              2.800
 Vibration     3          0.628              1.870              2.356
 Vibration     4          0.657              1.779              1.801
 Vibration     5          0.687              1.689              1.462
 Vibration     6          0.721              1.593              1.207
 Vibration     7          0.761              1.482              0.983
 Vibration     8          0.831              1.306              0.725
 Vibration     9          0.849              1.265              0.675

 Normal termination of Gaussian 09 at Tue Jan 28 12:57:03 2020.
