 Gaussian 09, Revision D.01,
 Gaussian 09:  ES64L-G09RevD.01 24-Apr-2013

 -----------------------------
 # b3lyp 6-31G(2df,p) opt Freq
 -----------------------------

 -----
 titel
 -----
 Symbolic Z-matrix:
 Charge =  0 Multiplicity = 1

 SCF Done:  E(RB3LYP) =  -423.230736981     A.U. after   14 cycles
 Optimization completed.
    -- Stationary point found.
 Normal termination of Gaussian 09 at Mon Jan 27 12:57:40 2020.

 ----------------------------------------------------------------------
 #N Geom=AllCheck Guess=TCheck SCRF=Check GenChk RB3LYP/6-31G(2df,p) Fr
 eq
 ----------------------------------------------------------------------

 Structure from the checkpoint file:  "/scratch/puck/g09_433099a7-8f51-47b2-9a73-56c8f2a5efc6/Gau-73326.chk"
 -----
 titel
 -----
 Charge =  0 Multiplicity = 1

                         Standard orientation:
 ---------------------------------------------------------------------
 Center     Atomic      Atomic             Coordinates (Angstroms)
 Number     Number       Type             X           Y           Z
 ---------------------------------------------------------------------
      1          8           0       -2.883822    0.197418   -0.533156
      2          6           0       -1.753972    0.109399   -0.130905
      3          6           0       -0.719115    1.242666   -0.113113
      4          6           0        0.466827    0.736207    0.729185
      5          6           0        1.867213    1.019351    0.146767
      6          6           0        2.211760   -0.286463   -0.622598
      7          8           0        1.053687   -1.113082   -0.570979
      8          6           0        0.359462   -0.809033    0.632799
      9          6           0       -1.112450   -1.151312    0.463238
     10          1           0       -0.423676    1.424201   -1.153515
     11          1           0       -1.171921    2.167774    0.251720
     12          1           0        0.375777    1.081756    1.762289
     13          1           0        1.864735    1.895544   -0.506498
     14          1           0        2.597250    1.207065    0.938300
     15          1           0        2.452143   -0.123165   -1.676628
     16          1           0        3.066354   -0.797806   -0.155164
     17          1           0        0.829316   -1.317510    1.488063
     18          1           0       -1.277815   -2.020727   -0.176887
     19          1           0       -1.589431   -1.356707    1.429162
 ---------------------------------------------------------------------

 SCF Done:  E(RB3LYP) =  -423.230736981     A.U. after    1 cycles

 The electronic state is 1-A.
 Alpha  occ. eigenvalues --  -19.14311 -19.12650 -10.26676 -10.23667 -10.23204
 Alpha  occ. eigenvalues --  -10.19914 -10.19262 -10.19021 -10.18897  -1.04362
 Alpha  occ. eigenvalues --   -1.03703  -0.83181  -0.77785  -0.71223  -0.69070
 Alpha  occ. eigenvalues --   -0.59890  -0.57290  -0.53902  -0.50787  -0.48397
 Alpha  occ. eigenvalues --   -0.46946  -0.44796  -0.43763  -0.42747  -0.40066
 Alpha  occ. eigenvalues --   -0.39270  -0.38010  -0.35887  -0.34731  -0.34104
 Alpha  occ. eigenvalues --   -0.33295  -0.31777  -0.26006  -0.23773
 Alpha virt. eigenvalues --   -0.01441   0.06949   0.09798   0.11321   0.12586
 Alpha virt. eigenvalues --    0.13059   0.13682   0.15488   0.15953   0.17124
 Alpha virt. eigenvalues --    0.17918   0.18800   0.19817   0.20899   0.22490

 Mulliken charges:
               1
     1  O   -0.309647
     2  C    0.401781
     3  C   -0.330540
     4  C   -0.019495
     5  C   -0.266138
     6  C   -0.069233
     7  O   -0.265339
     8  C    0.102085
     9  C   -0.345487
    10  H    0.135759
    11  H    0.127778
    12  H    0.078211
    13  H    0.111085
    14  H    0.106756
    15  H    0.111574
    16  H    0.095083
    17  H    0.063231
    18  H    0.144143
    19  H    0.128390
 Sum of Mulliken charges =   0.00000

 Dipole moment (field-independent basis, Debye):
    X=              2.9229    Y=              0.8653    Z=              1.7088  Tot=              3.4946
 Quadrupole moment (field-independent basis, Debye-Ang):
   XX=            -61.1315   YY=            -52.7062   ZZ=            -51.5388
   XY=              2.4118   XZ=             -3.0267   YZ=             -1.4945

  Exact polarizability:  87.224   1.641  71.144   0.120  -2.622  64.907
 Approx polarizability: 118.615   1.231 102.181   3.163  -2.502 101.772

                      1                      2                      3
                      A                      A                      A
 Frequencies --     38.6031                61.5972               170.6186
 Red. masses --      3.1067                 2.1531                 3.1448
 Frc consts  --      0.0027                 0.0048                 0.0539
 IR Inten    --      2.5939                 2.3722                 3.7651

                      4                      5                      6
                      A                      A                      A
 Frequencies --    304.8357               329.7796               453.4948
 Red. masses --      2.5894                 2.4780                 2.4190
 Frc consts  --      0.1418                 0.1588                 0.2931
 IR Inten    --      1.5709                 4.4086                 0.9144

                      7                      8                      9
                      A                      A                      A
 Frequencies --    479.8302               528.9609               647.7269
 Red. masses --      3.7172                 4.8291                 2.9539
 Frc consts  --      0.5042                 0.7961                 0.7302
 IR Inten    --      8.7590                 4.3522                 1.6783

                     10                     11                     12
                      A                      A                      A
 Frequencies --    701.6857               717.8603               779.6320
 Red. masses --      2.6513                 4.4389                 2.8282
 Frc consts  --      0.7691                 1.3477                 1.0128
 IR Inten    --      1.4273                 1.5656                 5.4291

                     13                     14                     15
                      A                      A                      A
 Frequencies --    813.0158               823.5715               843.8933
 Red. masses --      1.9145                 2.0511                 3.4478
 Frc consts  --      0.7456                 0.8197                 1.4467
 IR Inten    --      2.4299                 3.2353                 0.4344

                     16                     17                     18
                      A                      A                      A
 Frequencies --    918.7956               921.5786               962.3402
 Red. masses --      1.9391                 2.3784                 2.5982
 Frc consts  --      0.9645                 1.1901                 1.4177
 IR Inten    --     10.7484                 4.0024                 2.0592

                     19                     20                     21
                      A                      A                      A
 Frequencies --    994.7894              1025.2134              1064.3637
 Red. masses --      1.7842                 1.7511                 2.5622
 Frc consts  --      1.0403                 1.0844                 1.7102
 IR Inten    --      9.6219                 5.6494                 9.7812

                     22                     23                     24
                      A                      A                      A
 Frequencies --   1082.3306              1135.4109              1141.2384
 Red. masses --      2.7459                 2.1307                 3.3628
 Frc consts  --      1.8952                 1.6184                 2.5805
 IR Inten    --     74.7550                14.9237                61.6166

                     25                     26                     27
                      A                      A                      A
 Frequencies --   1166.0680              1204.9623              1229.1653
 Red. masses --      1.7596                 1.4654                 1.4106
 Frc consts  --      1.4096                 1.2536                 1.2557
 IR Inten    --     37.5930                 1.6945                 7.1083

                     28                     29                     30
                      A                      A                      A
 Frequencies --   1233.0170              1260.9539              1276.9503
 Red. masses --      1.2557                 1.1785                 1.4774
 Frc consts  --      1.1248                 1.1040                 1.4194
 IR Inten    --      1.6061                 3.3626                 3.6534

                     31                     32                     33
                      A                      A                      A
 Frequencies --   1278.6527              1310.3751              1329.4460
 Red. masses --      1.6517                 1.3436                 1.5546
 Frc consts  --      1.5911                 1.3593                 1.6188
 IR Inten    --      3.3029                 3.1383                 1.4968

                     34                     35                     36
                      A                      A                      A
 Frequencies --   1360.0550              1368.9137              1397.6802
 Red. masses --      1.3007                 1.4959                 1.3676
 Frc consts  --      1.4176                 1.6516                 1.5741
 IR Inten    --      8.4775                 9.3371                 5.6447

                     37                     38                     39
                      A                      A                      A
 Frequencies --   1433.5446              1448.6461              1498.0202
 Red. masses --      1.0965                 1.0899                 1.0857
 Frc consts  --      1.3276                 1.3476                 1.4355
 IR Inten    --     13.3476                 5.2894                 2.9887

                     40                     41                     42
                      A                      A                      A
 Frequencies --   1525.4473              1848.9996              2984.5960
 Red. masses --      1.0934                12.7812                 1.0828
 Frc consts  --      1.4991                25.7451                 5.6830
 IR Inten    --      0.1025               231.5301                39.8836

                     43                     44                     45
                      A                      A                      A
 Frequencies --   2992.6229              3045.2740              3051.1196
 Red. masses --      1.0731                 1.0662                 1.0670
 Frc consts  --      5.6625                 5.8258                 5.8526
 IR Inten    --     92.2647                 4.9246                 7.9197

                     46                     47                     48
                      A                      A                      A
 Frequencies --   3061.8525              3073.8870              3083.4717
 Red. masses --      1.0645                 1.0834                 1.0922
 Frc consts  --      5.8796                 6.0312                 6.1181
 IR Inten    --     22.9862                32.4084                15.0181

                     49                     50                     51
                      A                      A                      A
 Frequencies --   3105.9666              3110.2472              3117.8931
 Red. masses --      1.0995                 1.1024                 1.0960
 Frc consts  --      6.2491                 6.2835                 6.2772
 IR Inten    --     18.1266                31.4048                 2.5280

 - Thermochemistry -
 -------------------
 Temperature   298.150 Kelvin.  Pressure   1.00000 Atm.
 Atom     1 has atomic number  8 and mass  15.99491

 Molecular mass:   126.06808 amu.
 Principal axes and moments of inertia in atomic units:
                           1         2         3
     Eigenvalues --   520.337711382.611471606.50167
           X            0.99975   0.01984  -0.01012
           Y           -0.02019   0.99917  -0.03541
           Z            0.00941   0.03561   0.99932
 This molecule is an asymmetric top.
 Rotational symmetry number  1.
 Warning -- assumption of classical behavior for rotation
           may cause significant error
 Rotational temperatures (Kelvin)      0.16646     0.06265     0.05391
 Rotational constants (GHZ):           3.46840     1.30531     1.12340
 Zero-point vibrational energy     423113.1 (Joules/Mol)
                                  101.12647 (Kcal/Mol)
 Warning -- explicit consideration of   8 degrees of freedom as
           vibrations may cause significant error
 Vibrational temperatures:     55.54    88.62   245.48   438.59   474.48
          (Kelvin)            652.48   690.37   761.06   931.93  1009.57
                             1032.84  1121.72  1169.75  1184.93  1214.17
                             1321.94  1325.94  1384.59  1431.28  1475.05
                             1531.38  1557.23  1633.60  1641.99  1677.71
                             1733.67  1768.49  1774.03  1814.23  1837.24
                             1839.69  1885.34  1912.77  1956.81  1969.56
                             2010.95  2062.55  2084.28  2155.31  2194.78
                             2660.29  4294.16  4305.71  4381.46  4389.88
                             4405.32  4422.63  4436.42  4468.79  4474.95
                             4485.95

 Zero-point correction=                           0.161155 (Hartree/Particle)
 Thermal correction to Energy=                    0.168902
 Thermal correction to Enthalpy=                  0.169846
 Thermal correction to Gibbs Free Energy=         0.127652
 Sum of electronic and zero-point Energies=           -423.069582
 Sum of electronic and thermal Energies=              -423.061835
 Sum of electronic and thermal Enthalpies=            -423.060891
 Sum of electronic and thermal Free Energies=         -423.103085

                     E (Thermal)             CV                S
                      KCal/Mol        Cal/Mol-Kelvin    Cal/Mol-Kelvin
 Total                  105.988             29.436             88.806
 Electronic               0.000              0.000              0.000
 Translational            0.889              2.981             40.409
 Rotational               0.889              2.981             28.537
 Vibrational            104.210             23.475             19.860
 Vibration     1          0.594              1.981              5.330
 Vibration     2          0.597              1.973              4.405
 Vibration     3          0.626              1.879              2.429
 Vibration     4          0.696              1.665              1.390
 Vibration     5          0.713              1.616              1.261
 Vibration     6          0.812              1.353              0.785
 Vibration     7          0.836              1.295              0.711
 Vibration     8          0.884              1.186              0.590

 Optimization completed.
    -- Stationary point found.
 Normal termination of Gaussian 09 at Mon Jan 27 13:42:15 2020.
