 Gaussian 09, Revision D.01,
 Gaussian 09:  ES64L-G09RevD.01 24-Apr-2013

 -----------------------------
 # b3lyp 6-31G(2df,p) opt Freq
 -----------------------------

 -----
 titel
 -----
 Symbolic Z-matrix:
 Charge =  0 Multiplicity = 1

 SCF Done:  E(RB3LYP) =  -423.165927234     A.U. after   14 cycles
 Optimization completed.
    -- Stationary point found.
 Normal termination of Gaussian 09 at Mon Jan 27 17:40:22 2020.

 ----------------------------------------------------------------------
 #N Geom=AllCheck Guess=TCheck SCRF=Check GenChk RB3LYP/6-31G(2df,p) Fr
 eq
 ----------------------------------------------------------------------

 Structure from the checkpoint file:  "/scratch/puck/g09_f4cf1d48-e7d1-4b16-8c3c-7597b11c05fc/Gau-63875.chk"
 -----
 titel
 -----
 Charge =  0 Multiplicity = 1

                         Standard orientation:
 ---------------------------------------------------------------------
 Center     Atomic      Atomic             Coordinates (Angstroms)
 Number     Number       Type             X           Y           Z
 ---------------------------------------------------------------------
      1          6           0        2.559788   -0.248297   -0.539123
      2          6           0        1.135065   -0.088669   -0.050048
      3          6           0        0.299838   -1.359467   -0.176859
      4          8           0       -0.915522   -1.337039    0.524258
      5          6           0       -2.007064   -0.746738   -0.139826
      6          6           0       -1.972506    0.747750   -0.290456
      7          6           0       -0.924422    1.569655   -0.227693
      8          6           0        0.513639    1.250557   -0.037657
      9          8           0        0.980182    0.616553    1.177757
     10          1           0        2.584168   -0.543214   -1.594063
     11          1           0        3.111619    0.687770   -0.427556
     12          1           0        3.079454   -1.020400    0.038866
     13          1           0        0.145956   -1.588608   -1.245019
     14          1           0        0.878574   -2.186018    0.253879
     15          1           0       -2.147416   -1.206547   -1.136964
     16          1           0       -2.890328   -1.019813    0.450190
     17          1           0       -2.951044    1.188013   -0.478480
     18          1           0       -1.118005    2.631051   -0.365756
     19          1           0        1.163709    2.072903   -0.341244
 ---------------------------------------------------------------------

 SCF Done:  E(RB3LYP) =  -423.165927234     A.U. after    1 cycles

 The electronic state is 1-A.
 Alpha  occ. eigenvalues --  -19.14308 -19.14168 -10.23864 -10.23734 -10.23443
 Alpha  occ. eigenvalues --  -10.23275 -10.19169 -10.18793 -10.18366  -1.06575
 Alpha  occ. eigenvalues --   -1.03539  -0.79782  -0.76609  -0.72232  -0.67793
 Alpha  occ. eigenvalues --   -0.63813  -0.56810  -0.54329  -0.50722  -0.49130
 Alpha  occ. eigenvalues --   -0.47517  -0.45599  -0.44216  -0.41414  -0.40995
 Alpha  occ. eigenvalues --   -0.38493  -0.37799  -0.37435  -0.36852  -0.32401
 Alpha  occ. eigenvalues --   -0.29658  -0.26836  -0.25678  -0.24287
 Alpha virt. eigenvalues --   -0.00330   0.08126   0.09855   0.10636   0.11862
 Alpha virt. eigenvalues --    0.13628   0.14349   0.16289   0.16924   0.17344
 Alpha virt. eigenvalues --    0.17623   0.18237   0.19471   0.20630   0.22548

 Mulliken charges:
               1
     1  C   -0.466413
     2  C    0.360010
     3  C   -0.159711
     4  O   -0.220300
     5  C   -0.143811
     6  C   -0.076980
     7  C   -0.053694
     8  C   -0.035906
     9  O   -0.279433
    10  H    0.121245
    11  H    0.131504
    12  H    0.128042
    13  H    0.091585
    14  H    0.113325
    15  H    0.099483
    16  H    0.121777
    17  H    0.096238
    18  H    0.090835
    19  H    0.082204
 Sum of Mulliken charges =   0.00000

 Dipole moment (field-independent basis, Debye):
    X=             -0.2689    Y=              0.0955    Z=             -2.6643  Tot=              2.6795
 Quadrupole moment (field-independent basis, Debye-Ang):
   XX=            -47.8049   YY=            -51.2748   ZZ=            -57.1405
   XY=             -1.5855   XZ=             -0.7203   YZ=             -0.0050

  Exact polarizability:  96.746  -0.270  80.788   1.316   0.137  56.102
 Approx polarizability: 130.727   5.234 118.374   5.330   0.038  94.915

                      1                      2                      3
                      A                      A                      A
 Frequencies --     70.6387               158.0539               198.4205
 Red. masses --      2.3031                 1.4707                 1.7152
 Frc consts  --      0.0068                 0.0216                 0.0398
 IR Inten    --      0.2668                 0.5300                 0.8580

                      4                      5                      6
                      A                      A                      A
 Frequencies --    270.4377               280.9018               329.1280
 Red. masses --      5.2727                 3.4522                 3.4340
 Frc consts  --      0.2272                 0.1605                 0.2192
 IR Inten    --      0.8467                 2.3644                 1.0187

                      7                      8                      9
                      A                      A                      A
 Frequencies --    397.0745               403.7380               469.9698
 Red. masses --      2.3837                 2.7088                 3.0877
 Frc consts  --      0.2214                 0.2601                 0.4018
 IR Inten    --      4.2858                 0.8889                 4.5257

                     10                     11                     12
                      A                      A                      A
 Frequencies --    525.6936               583.5706               688.1859
 Red. masses --      2.9700                 4.0772                 2.4861
 Frc consts  --      0.4836                 0.8181                 0.6937
 IR Inten    --      8.4438                 5.9185                20.4092

                     13                     14                     15
                      A                      A                      A
 Frequencies --    749.8509               788.9958               828.7362
 Red. masses --      2.6421                 3.6179                 3.9602
 Frc consts  --      0.8753                 1.3269                 1.6025
 IR Inten    --     14.0278                 1.2489                 5.0882

                     16                     17                     18
                      A                      A                      A
 Frequencies --    879.1859               907.7673               934.1043
 Red. masses --      3.2552                 2.8883                 2.4488
 Frc consts  --      1.4825                 1.4023                 1.2589
 IR Inten    --     20.2589                21.1398                 0.4487

                     19                     20                     21
                      A                      A                      A
 Frequencies --    998.0516              1000.1172              1024.0399
 Red. masses --      1.3559                 1.5821                 2.1205
 Frc consts  --      0.7958                 0.9323                 1.3101
 IR Inten    --      2.1074                 1.7428                 6.4188

                     22                     23                     24
                      A                      A                      A
 Frequencies --   1047.1839              1059.1126              1102.6321
 Red. masses --      1.9833                 1.9863                 1.9756
 Frc consts  --      1.2814                 1.3127                 1.4152
 IR Inten    --     30.2879                11.4563                12.1166

                     25                     26                     27
                      A                      A                      A
 Frequencies --   1137.3742              1187.7293              1232.4262
 Red. masses --      2.1733                 3.5546                 1.8705
 Frc consts  --      1.6565                 2.9544                 1.6739
 IR Inten    --     16.8311                77.8570                 3.3487

                     28                     29                     30
                      A                      A                      A
 Frequencies --   1261.5791              1291.8591              1336.6869
 Red. masses --      1.1377                 1.2932                 1.1833
 Frc consts  --      1.0669                 1.2716                 1.2457
 IR Inten    --      1.8385                25.3714                 7.5317

                     31                     32                     33
                      A                      A                      A
 Frequencies --   1369.8792              1396.7342              1409.0171
 Red. masses --      1.4559                 1.3227                 1.2791
 Frc consts  --      1.6097                 1.5203                 1.4962
 IR Inten    --     11.1311                 1.7152                 4.3419

                     34                     35                     36
                      A                      A                      A
 Frequencies --   1420.7002              1433.0870              1471.3404
 Red. masses --      1.4163                 1.4699                 1.1051
 Frc consts  --      1.6842                 1.7787                 1.4096
 IR Inten    --      6.5935                 1.2834                 0.8139

                     37                     38                     39
                      A                      A                      A
 Frequencies --   1473.5054              1485.1562              1489.7365
 Red. masses --      1.2836                 1.1727                 1.0867
 Frc consts  --      1.6420                 1.5239                 1.4209
 IR Inten    --      4.6120                 9.3469                 5.8039

                     40                     41                     42
                      A                      A                      A
 Frequencies --   1507.3036              1734.7767              2924.2087
 Red. masses --      1.6526                 7.0202                 1.0721
 Frc consts  --      2.2122                12.4477                 5.4012
 IR Inten    --      4.2036                 2.4258                51.1989

                     43                     44                     45
                      A                      A                      A
 Frequencies --   2965.8694              3033.3147              3047.6484
 Red. masses --      1.0671                 1.0375                 1.0891
 Frc consts  --      5.5303                 5.6245                 5.9600
 IR Inten    --     49.3211                19.1967                37.8690

                     46                     47                     48
                      A                      A                      A
 Frequencies --   3050.7201              3087.8308              3096.1770
 Red. masses --      1.0902                 1.0857                 1.1006
 Frc consts  --      5.9783                 6.0994                 6.2163
 IR Inten    --     21.9050                30.8804                21.1316

                     49                     50                     51
                      A                      A                      A
 Frequencies --   3126.0872              3130.5387              3157.4024
 Red. masses --      1.1003                 1.0840                 1.0935
 Frc consts  --      6.3355                 6.2591                 6.4228
 IR Inten    --     15.9662                 9.9299                31.3480

 - Thermochemistry -
 -------------------
 Temperature   298.150 Kelvin.  Pressure   1.00000 Atm.
 Atom     1 has atomic number  6 and mass  12.00000

 Molecular mass:   126.06808 amu.
 Principal axes and moments of inertia in atomic units:
                           1         2         3
     Eigenvalues --   650.955651150.894471526.82499
           X            0.99970  -0.02156  -0.01138
           Y            0.02164   0.99974   0.00661
           Z            0.01123  -0.00686   0.99991
 This molecule is an asymmetric top.
 Rotational symmetry number  1.
 Warning -- assumption of classical behavior for rotation
           may cause significant error
 Rotational temperatures (Kelvin)      0.13306     0.07526     0.05673
 Rotational constants (GHZ):           2.77245     1.56812     1.18202
 Zero-point vibrational energy     418419.5 (Joules/Mol)
                                  100.00466 (Kcal/Mol)
 Warning -- explicit consideration of  11 degrees of freedom as
           vibrations may cause significant error
 Vibrational temperatures:    101.63   227.40   285.48   389.10   404.15
          (Kelvin)            473.54   571.30   580.89   676.18   756.35
                              839.63   990.14  1078.87  1135.19  1192.37
                             1264.95  1306.07  1343.97  1435.97  1438.94
                             1473.36  1506.66  1523.82  1586.44  1636.43
                             1708.88  1773.18  1815.13  1858.69  1923.19
                             1970.95  2009.59  2027.26  2044.07  2061.89
                             2116.93  2120.04  2136.81  2143.40  2168.67
                             2495.95  4207.28  4267.22  4364.26  4384.88
                             4389.30  4442.69  4454.70  4497.74  4504.14
                             4542.79

 Zero-point correction=                           0.159368 (Hartree/Particle)
 Thermal correction to Energy=                    0.167580
 Thermal correction to Enthalpy=                  0.168524
 Thermal correction to Gibbs Free Energy=         0.126640
 Sum of electronic and zero-point Energies=           -423.006560
 Sum of electronic and thermal Energies=              -422.998347
 Sum of electronic and thermal Enthalpies=            -422.997403
 Sum of electronic and thermal Free Energies=         -423.039288

                     E (Thermal)             CV                S
                      KCal/Mol        Cal/Mol-Kelvin    Cal/Mol-Kelvin
 Total                  105.158             31.648             88.154
 Electronic               0.000              0.000              0.000
 Translational            0.889              2.981             40.409
 Rotational               0.889              2.981             28.527
 Vibrational            103.381             25.687             19.218
 Vibration     1          0.598              1.968              4.135
 Vibration     2          0.621              1.894              2.573
 Vibration     3          0.637              1.842              2.148
 Vibration     4          0.674              1.728              1.593
 Vibration     5          0.681              1.709              1.528
 Vibration     6          0.712              1.617              1.264
 Vibration     7          0.764              1.476              0.973
 Vibration     8          0.769              1.462              0.949
 Vibration     9          0.827              1.317              0.738
 Vibration    10          0.881              1.193              0.597
 Vibration    11          0.940              1.067              0.479

 Optimization completed.
    -- Stationary point found.
 Normal termination of Gaussian 09 at Mon Jan 27 18:20:46 2020.
