 Gaussian 09, Revision D.01,
 Gaussian 09:  ES64L-G09RevD.01 24-Apr-2013

 -----------------------------
 # b3lyp 6-31G(2df,p) opt Freq
 -----------------------------

 -----
 titel
 -----
 Symbolic Z-matrix:
 Charge =  0 Multiplicity = 1

 SCF Done:  E(RB3LYP) =  -423.146965521     A.U. after   13 cycles
 Optimization completed.
    -- Stationary point found.
 Normal termination of Gaussian 09 at Mon Jan 27 17:57:01 2020.

 ----------------------------------------------------------------------
 #N Geom=AllCheck Guess=TCheck SCRF=Check GenChk RB3LYP/6-31G(2df,p) Fr
 eq
 ----------------------------------------------------------------------

 Structure from the checkpoint file:  "/scratch/puck/g09_07bbd655-7fe8-46f7-b4c0-efc6fdf9c9c3/Gau-113806.chk"
 -----
 titel
 -----
 Charge =  0 Multiplicity = 1

                         Standard orientation:
 ---------------------------------------------------------------------
 Center     Atomic      Atomic             Coordinates (Angstroms)
 Number     Number       Type             X           Y           Z
 ---------------------------------------------------------------------
      1          6           0       -2.433101   -0.730305   -0.062167
      2          6           0       -0.974361   -0.395730    0.096394
      3          6           0        0.132138   -1.391607    0.492334
      4          6           0        1.093535   -0.282730   -0.028673
      5          8           0        2.355286   -0.545684   -0.548795
      6          6           0        0.895673    0.823891    1.034396
      7          6           0       -0.573330    1.047089    0.638542
      8          8           0       -0.426526    1.535141   -0.730573
      9          6           0       -0.067453    0.179202   -1.019534
     10          1           0       -2.904124   -0.927228    0.907912
     11          1           0       -2.967288    0.101391   -0.533693
     12          1           0       -2.571768   -1.620440   -0.684909
     13          1           0        0.229350   -1.713894    1.534102
     14          1           0        0.117042   -2.262558   -0.170191
     15          1           0        2.957610   -0.732647    0.179217
     16          1           0        1.049378    0.465263    2.056613
     17          1           0        1.488446    1.722415    0.850903
     18          1           0       -1.229679    1.659007    1.257615
     19          1           0       -0.037647   -0.105822   -2.070373
 ---------------------------------------------------------------------

 SCF Done:  E(RB3LYP) =  -423.146965521     A.U. after    1 cycles

 The electronic state is 1-A.
 Alpha  occ. eigenvalues --  -19.14397 -19.13157 -10.23932 -10.23781 -10.22882
 Alpha  occ. eigenvalues --  -10.19802 -10.18129 -10.18047 -10.17899  -1.05426
 Alpha  occ. eigenvalues --   -1.02564  -0.85181  -0.74685  -0.71739  -0.65029
 Alpha  occ. eigenvalues --   -0.63744  -0.57466  -0.53607  -0.50090  -0.48237
 Alpha  occ. eigenvalues --   -0.46199  -0.44861  -0.42677  -0.40558  -0.39548
 Alpha  occ. eigenvalues --   -0.38824  -0.37385  -0.36071  -0.34623  -0.32933
 Alpha  occ. eigenvalues --   -0.29488  -0.28772  -0.25833  -0.23587
 Alpha virt. eigenvalues --    0.07212   0.09030   0.10488   0.12535   0.12795
 Alpha virt. eigenvalues --    0.14264   0.14664   0.15030   0.15428   0.16735
 Alpha virt. eigenvalues --    0.17410   0.18464   0.19102   0.20817   0.21620

 Mulliken charges:
               1
     1  C   -0.509379
     2  C    0.320257
     3  C   -0.367420
     4  C    0.372563
     5  O   -0.490240
     6  C   -0.286760
     7  C    0.028615
     8  O   -0.296891
     9  C    0.024787
    10  H    0.117105
    11  H    0.131955
    12  H    0.117923
    13  H    0.086935
    14  H    0.102676
    15  H    0.281007
    16  H    0.089815
    17  H    0.111688
    18  H    0.077778
    19  H    0.087588
 Sum of Mulliken charges =   0.00000

 Dipole moment (field-independent basis, Debye):
    X=             -0.0455    Y=             -1.4462    Z=              2.1211  Tot=              2.5676
 Quadrupole moment (field-independent basis, Debye-Ang):
   XX=            -50.8873   YY=            -55.6435   ZZ=            -52.2461
   XY=             -0.0135   XZ=              3.3407   YZ=              2.0520

  Exact polarizability:  81.285   0.384  71.845   1.671   1.955  69.473
 Approx polarizability: 109.731  -2.588 108.382   0.084   0.178 109.798

                      1                      2                      3
                      A                      A                      A
 Frequencies --    198.6998               219.1026               224.9527
 Red. masses --      1.1372                 2.5117                 1.1518
 Frc consts  --      0.0265                 0.0710                 0.0343
 IR Inten    --     71.1157                12.5712                 3.8701

                      4                      5                      6
                      A                      A                      A
 Frequencies --    251.6062               283.8947               374.5727
 Red. masses --      2.1859                 4.5555                 2.9189
 Frc consts  --      0.0815                 0.2163                 0.2413
 IR Inten    --      7.0283                 1.2420                 9.4279

                      7                      8                      9
                      A                      A                      A
 Frequencies --    432.5779               474.3731               551.8656
 Red. masses --      2.2932                 1.9896                 3.6104
 Frc consts  --      0.2528                 0.2638                 0.6478
 IR Inten    --      6.4831                 0.7632                10.9405

                     10                     11                     12
                      A                      A                      A
 Frequencies --    592.2126               623.8040               684.8189
 Red. masses --      4.4752                 3.8721                 3.8006
 Frc consts  --      0.9247                 0.8878                 1.0502
 IR Inten    --      0.5964                 5.7521                 1.4748

                     13                     14                     15
                      A                      A                      A
 Frequencies --    752.0440               822.4896               848.6443
 Red. masses --      3.1938                 3.6249                 2.5012
 Frc consts  --      1.0643                 1.4448                 1.0613
 IR Inten    --      0.9745                10.6184                 2.5392

                     16                     17                     18
                      A                      A                      A
 Frequencies --    884.6436               902.3585               916.6132
 Red. masses --      2.9832                 2.2789                 2.0802
 Frc consts  --      1.3755                 1.0933                 1.0297
 IR Inten    --     19.3146                 4.2612                14.6329

                     19                     20                     21
                      A                      A                      A
 Frequencies --    940.7687               979.6441              1007.5982
 Red. masses --      2.1774                 2.1181                 1.5649
 Frc consts  --      1.1354                 1.1977                 0.9361
 IR Inten    --     15.6483                15.0734                 3.2619

                     22                     23                     24
                      A                      A                      A
 Frequencies --   1041.1550              1048.7365              1072.0673
 Red. masses --      1.7715                 2.2121                 1.5705
 Frc consts  --      1.1314                 1.4335                 1.0635
 IR Inten    --      2.8028                10.4884                37.6302

                     25                     26                     27
                      A                      A                      A
 Frequencies --   1108.8099              1150.9410              1161.4631
 Red. masses --      1.4864                 1.7538                 1.9383
 Frc consts  --      1.0767                 1.3688                 1.5406
 IR Inten    --     11.5097                 2.9675                 1.8377

                     28                     29                     30
                      A                      A                      A
 Frequencies --   1185.0677              1195.5619              1214.1684
 Red. masses --      1.7783                 1.7412                 1.7098
 Frc consts  --      1.4715                 1.4664                 1.4851
 IR Inten    --     35.3770                13.5593                10.7461

                     31                     32                     33
                      A                      A                      A
 Frequencies --   1223.9476              1250.8631              1304.1238
 Red. masses --      1.8073                 1.8438                 2.0982
 Frc consts  --      1.5952                 1.6997                 2.1025
 IR Inten    --      8.5390                21.3268                77.2151

                     34                     35                     36
                      A                      A                      A
 Frequencies --   1331.0146              1350.0070              1386.5175
 Red. masses --      1.7065                 2.3012                 2.1324
 Frc consts  --      1.7812                 2.4710                 2.4153
 IR Inten    --     54.0408                14.3004                 5.4115

                     37                     38                     39
                      A                      A                      A
 Frequencies --   1412.2968              1476.6558              1493.0255
 Red. masses --      1.4371                 1.1127                 1.0540
 Frc consts  --      1.6888                 1.4295                 1.3843
 IR Inten    --      0.5405                 2.4396                 3.3065

                     40                     41                     42
                      A                      A                      A
 Frequencies --   1493.7657              1505.4112              3025.5655
 Red. masses --      1.0490                 1.1762                 1.0355
 Frc consts  --      1.3791                 1.5706                 5.5851
 IR Inten    --      4.7002                 4.2623                30.6174

                     43                     44                     45
                      A                      A                      A
 Frequencies --   3040.9403              3056.6824              3088.3110
 Red. masses --      1.0572                 1.0596                 1.1003
 Frc consts  --      5.7600                 5.8328                 6.1832
 IR Inten    --     33.3232                27.0063                16.7815

                     46                     47                     48
                      A                      A                      A
 Frequencies --   3099.6896              3100.8714              3118.4734
 Red. masses --      1.1044                 1.1042                 1.0909
 Frc consts  --      6.2518                 6.2553                 6.2506
 IR Inten    --     18.3133                23.4836                48.5457

                     49                     50                     51
                      A                      A                      A
 Frequencies --   3122.6216              3135.3814              3804.3220
 Red. masses --      1.1057                 1.0921                 1.0659
 Frc consts  --      6.3524                 6.3256                 9.0894
 IR Inten    --     18.3326                21.8938                22.4651

 - Thermochemistry -
 -------------------
 Temperature   298.150 Kelvin.  Pressure   1.00000 Atm.
 Atom     1 has atomic number  6 and mass  12.00000

 Molecular mass:   126.06808 amu.
 Principal axes and moments of inertia in atomic units:
                           1         2         3
     Eigenvalues --   628.310071076.572721267.10571
           X            0.99911   0.03698   0.02026
           Y           -0.03791   0.99814   0.04770
           Z           -0.01846  -0.04842   0.99866
 This molecule is an asymmetric top.
 Rotational symmetry number  1.
 Warning -- assumption of classical behavior for rotation
           may cause significant error
 Rotational temperatures (Kelvin)      0.13785     0.08045     0.06836
 Rotational constants (GHZ):           2.87237     1.67638     1.42430
 Zero-point vibrational energy     418488.1 (Joules/Mol)
                                  100.02105 (Kcal/Mol)
 Warning -- explicit consideration of  10 degrees of freedom as
           vibrations may cause significant error
 Vibrational temperatures:    285.88   315.24   323.66   362.00   408.46
          (Kelvin)            538.93   622.38   682.52   794.01   852.06
                              897.51   985.30  1082.02  1183.38  1221.01
                             1272.80  1298.29  1318.80  1353.55  1409.49
                             1449.71  1497.99  1508.90  1542.46  1595.33
                             1655.95  1671.08  1705.05  1720.14  1746.92
                             1760.99  1799.71  1876.34  1915.03  1942.36
                             1994.89  2031.98  2124.58  2148.13  2149.19
                             2165.95  4353.11  4375.23  4397.88  4443.39
                             4459.76  4461.46  4486.78  4492.75  4511.11
                             5473.56

 Zero-point correction=                           0.159394 (Hartree/Particle)
 Thermal correction to Energy=                    0.167058
 Thermal correction to Enthalpy=                  0.168002
 Thermal correction to Gibbs Free Energy=         0.127918
 Sum of electronic and zero-point Energies=           -422.987572
 Sum of electronic and thermal Energies=              -422.979908
 Sum of electronic and thermal Enthalpies=            -422.978964
 Sum of electronic and thermal Free Energies=         -423.019047

                     E (Thermal)             CV                S
                      KCal/Mol        Cal/Mol-Kelvin    Cal/Mol-Kelvin
 Total                  104.830             31.387             84.363
 Electronic               0.000              0.000              0.000
 Translational            0.889              2.981             40.409
 Rotational               0.889              2.981             28.240
 Vibrational            103.053             25.426             15.714
 Vibration     1          0.637              1.842              2.145
 Vibration     2          0.647              1.812              1.967
 Vibration     3          0.650              1.803              1.919
 Vibration     4          0.664              1.760              1.719
 Vibration     5          0.682              1.704              1.510
 Vibration     6          0.746              1.524              1.061
 Vibration     7          0.793              1.399              0.850
 Vibration     8          0.831              1.307              0.725
 Vibration     9          0.907              1.136              0.540
 Vibration    10          0.950              1.048              0.463

 Optimization completed.
    -- Stationary point found.
 Normal termination of Gaussian 09 at Mon Jan 27 18:40:40 2020.
