 Gaussian 09, Revision D.01,
 Gaussian 09:  ES64L-G09RevD.01 24-Apr-2013

 -----------------------------
 # b3lyp 6-31G(2df,p) opt Freq
 -----------------------------

 -----
 titel
 -----
 Symbolic Z-matrix:
 Charge =  0 Multiplicity = 1

 SCF Done:  E(RB3LYP) =  -423.236478598     A.U. after   14 cycles
 Optimization completed.
    -- Stationary point found.
 Normal termination of Gaussian 09 at Mon Jan 27 13:52:45 2020.

 ----------------------------------------------------------------------
 #N Geom=AllCheck Guess=TCheck SCRF=Check GenChk RB3LYP/6-31G(2df,p) Fr
 eq
 ----------------------------------------------------------------------

 Structure from the checkpoint file:  "/scratch/puck/g09_5da77a78-71bf-41c9-bbc0-c8cb28856bf5/Gau-39698.chk"
 -----
 titel
 -----
 Charge =  0 Multiplicity = 1

                         Standard orientation:
 ---------------------------------------------------------------------
 Center     Atomic      Atomic             Coordinates (Angstroms)
 Number     Number       Type             X           Y           Z
 ---------------------------------------------------------------------
      1          8           0        2.717915    0.594980    0.865866
      2          6           0        2.623896   -0.160017   -0.063984
      3          8           0        1.492790   -0.647258   -0.586635
      4          6           0        0.247102   -0.237816    0.038651
      5          6           0       -0.779630   -1.325907   -0.247789
      6          6           0       -2.113874   -0.990255    0.437289
      7          6           0       -2.492758    0.457417    0.260216
      8          6           0       -1.646286    1.391424   -0.171096
      9          6           0       -0.202310    1.117435   -0.509918
     10          1           0        3.476241   -0.571193   -0.627986
     11          1           0        0.427831   -0.153307    1.114356
     12          1           0       -0.925091   -1.394973   -1.332363
     13          1           0       -0.399994   -2.294892    0.090279
     14          1           0       -2.905642   -1.635958    0.038466
     15          1           0       -2.059446   -1.226456    1.510301
     16          1           0       -3.515698    0.731005    0.507050
     17          1           0       -1.985011    2.417743   -0.287011
     18          1           0       -0.057137    1.126040   -1.599752
     19          1           0        0.441470    1.906531   -0.107401
 ---------------------------------------------------------------------

 SCF Done:  E(RB3LYP) =  -423.236478598     A.U. after    1 cycles

 The electronic state is 1-A.
 Alpha  occ. eigenvalues --  -19.18576 -19.13134 -10.30657 -10.24360 -10.19240
 Alpha  occ. eigenvalues --  -10.18873 -10.18849 -10.18482 -10.18347  -1.10203
 Alpha  occ. eigenvalues --   -1.01899  -0.84062  -0.75452  -0.74987  -0.65451
 Alpha  occ. eigenvalues --   -0.62466  -0.57421  -0.53715  -0.51039  -0.49297
 Alpha  occ. eigenvalues --   -0.46873  -0.45165  -0.43857  -0.42268  -0.40894
 Alpha  occ. eigenvalues --   -0.39001  -0.38688  -0.37241  -0.34596  -0.33134
 Alpha  occ. eigenvalues --   -0.32892  -0.29503  -0.27716  -0.24714
 Alpha virt. eigenvalues --    0.01104   0.02163   0.08439   0.11156   0.12771
 Alpha virt. eigenvalues --    0.13272   0.13863   0.15368   0.16441   0.16663
 Alpha virt. eigenvalues --    0.17342   0.18724   0.18991   0.22540   0.22834

 Mulliken charges:
               1
     1  O   -0.308032
     2  C    0.173654
     3  O   -0.221916
     4  C    0.131875
     5  C   -0.222541
     6  C   -0.263500
     7  C   -0.042238
     8  C   -0.058160
     9  C   -0.267190
    10  H    0.107533
    11  H    0.112357
    12  H    0.109845
    13  H    0.103822
    14  H    0.109036
    15  H    0.114049
    16  H    0.087903
    17  H    0.089704
    18  H    0.114607
    19  H    0.129191
 Sum of Mulliken charges =   0.00000

 Dipole moment (field-independent basis, Debye):
    X=             -1.5297    Y=             -0.9676    Z=             -0.9970  Tot=              2.0664
 Quadrupole moment (field-independent basis, Debye-Ang):
   XX=            -53.7348   YY=            -52.1125   ZZ=            -54.8998
   XY=             -2.3957   XZ=             -4.6017   YZ=             -2.4227

  Exact polarizability:  95.248   4.234  76.773  -4.832  -1.260  60.796
 Approx polarizability: 122.086  13.502 116.262  -5.468   1.279 101.770

                      1                      2                      3
                      A                      A                      A
 Frequencies --     51.3041               106.6281               170.8919
 Red. masses --      5.8419                 3.7137                 2.2922
 Frc consts  --      0.0091                 0.0249                 0.0394
 IR Inten    --      1.5646                 0.7965                 2.8858

                      4                      5                      6
                      A                      A                      A
 Frequencies --    206.3943               269.5554               366.6378
 Red. masses --      2.5319                 3.0535                 3.8643
 Frc consts  --      0.0635                 0.1307                 0.3060
 IR Inten    --      2.8064                 8.9445                 5.2127

                      7                      8                      9
                      A                      A                      A
 Frequencies --    402.7050               435.0343               469.8099
 Red. masses --      2.1801                 3.8612                 2.6154
 Frc consts  --      0.2083                 0.4306                 0.3401
 IR Inten    --      1.3090                 4.2145                 4.7566

                     10                     11                     12
                      A                      A                      A
 Frequencies --    504.2106               675.3940               734.9355
 Red. masses --      4.4205                 1.3034                 2.6602
 Frc consts  --      0.6621                 0.3503                 0.8466
 IR Inten    --      0.5824                19.5118                 7.2134

                     13                     14                     15
                      A                      A                      A
 Frequencies --    782.1457               845.4710               878.7736
 Red. masses --      2.9960                 2.0860                 3.3087
 Frc consts  --      1.0799                 0.8785                 1.5055
 IR Inten    --      7.4623                 5.0239                 1.9935

                     16                     17                     18
                      A                      A                      A
 Frequencies --    930.4762               939.5278               964.8246
 Red. masses --      2.5090                 1.8229                 1.9902
 Frc consts  --      1.2799                 0.9481                 1.0916
 IR Inten    --      9.4783                 5.0915                 8.4500

                     19                     20                     21
                      A                      A                      A
 Frequencies --   1004.7056              1019.6114              1045.7725
 Red. masses --      1.2138                 3.9840                 1.6590
 Frc consts  --      0.7219                 2.4403                 1.0690
 IR Inten    --      1.4799                33.0128                 0.7090

                     22                     23                     24
                      A                      A                      A
 Frequencies --   1052.1467              1089.1084              1121.4708
 Red. masses --      1.7464                 2.0002                 1.9098
 Frc consts  --      1.1390                 1.3978                 1.4152
 IR Inten    --      4.7314                 0.6757                 3.1141

                     25                     26                     27
                      A                      A                      A
 Frequencies --   1154.8918              1210.5402              1214.3787
 Red. masses --      1.1699                 3.8290                 1.3545
 Frc consts  --      0.9194                 3.3059                 1.1769
 IR Inten    --      1.4167               341.9703                65.0833

                     28                     29                     30
                      A                      A                      A
 Frequencies --   1247.9802              1276.0511              1329.3845
 Red. masses --      1.3521                 1.2955                 1.2813
 Frc consts  --      1.2408                 1.2428                 1.3341
 IR Inten    --     14.0462                 2.0616                 2.2866

                     31                     32                     33
                      A                      A                      A
 Frequencies --   1333.4414              1364.4090              1386.9214
 Red. masses --      1.4043                 1.4717                 1.5252
 Frc consts  --      1.4712                 1.6142                 1.7286
 IR Inten    --      1.6382                 1.5607                 5.0973

                     34                     35                     36
                      A                      A                      A
 Frequencies --   1400.3089              1410.7190              1417.2521
 Red. masses --      1.5389                 1.1460                 1.4683
 Frc consts  --      1.7779                 1.3437                 1.7376
 IR Inten    --      5.7146                 1.8439                 0.9634

                     37                     38                     39
                      A                      A                      A
 Frequencies --   1477.3058              1482.8941              1502.3529
 Red. masses --      1.0879                 1.0849                 1.1034
 Frc consts  --      1.3989                 1.4056                 1.4674
 IR Inten    --      1.0099                 4.3112                 2.4673

                     40                     41                     42
                      A                      A                      A
 Frequencies --   1725.8128              1814.9252              3002.3017
 Red. masses --      6.4697                 9.5145                 1.0693
 Frc consts  --     11.3533                18.4652                 5.6789
 IR Inten    --      3.5412               267.4509                27.2546

                     43                     44                     45
                      A                      A                      A
 Frequencies --   3010.5163              3022.1750              3035.7653
 Red. masses --      1.0685                 1.0899                 1.0690
 Frc consts  --      5.7057                 5.8649                 5.8046
 IR Inten    --     17.0095                76.6474                10.9766

                     46                     47                     48
                      A                      A                      A
 Frequencies --   3050.0925              3066.3192              3076.6614
 Red. masses --      1.0840                 1.0850                 1.0920
 Frc consts  --      5.9417                 6.0106                 6.0899
 IR Inten    --     36.6823                 5.6216                13.4519

                     49                     50                     51
                      A                      A                      A
 Frequencies --   3092.8388              3146.9986              3170.4256
 Red. masses --      1.1007                 1.0835                 1.0971
 Frc consts  --      6.2032                 6.3220                 6.4971
 IR Inten    --     33.8984                 5.7689                35.9841

 - Thermochemistry -
 -------------------
 Temperature   298.150 Kelvin.  Pressure   1.00000 Atm.
 Atom     1 has atomic number  8 and mass  15.99491

 Molecular mass:   126.06808 amu.
 Principal axes and moments of inertia in atomic units:
                           1         2         3
     Eigenvalues --   512.922381719.428521993.62887
           X            0.99993   0.00224  -0.01167
           Y           -0.00260   0.99951  -0.03109
           Z            0.01160   0.03112   0.99945
 This molecule is an asymmetric top.
 Rotational symmetry number  1.
 Warning -- assumption of classical behavior for rotation
           may cause significant error
 Rotational temperatures (Kelvin)      0.16886     0.05037     0.04345
 Rotational constants (GHZ):           3.51855     1.04962     0.90525
 Zero-point vibrational energy     421631.0 (Joules/Mol)
                                  100.77223 (Kcal/Mol)
 Warning -- explicit consideration of  10 degrees of freedom as
           vibrations may cause significant error
 Vibrational temperatures:     73.82   153.41   245.88   296.96   387.83
          (Kelvin)            527.51   579.40   625.92   675.95   725.45
                              971.74  1057.41  1125.33  1216.44  1264.36
                             1338.75  1351.77  1388.17  1445.55  1466.99
                             1504.63  1513.80  1566.98  1613.54  1661.63
                             1741.70  1747.22  1795.56  1835.95  1912.69
                             1918.52  1963.08  1995.47  2014.73  2029.71
                             2039.11  2125.51  2133.55  2161.55  2483.06
                             2611.27  4319.64  4331.46  4348.23  4367.78
                             4388.40  4411.74  4426.62  4449.90  4527.82
                             4561.53

 Zero-point correction=                           0.160591 (Hartree/Particle)
 Thermal correction to Energy=                    0.168893
 Thermal correction to Enthalpy=                  0.169837
 Thermal correction to Gibbs Free Energy=         0.126996
 Sum of electronic and zero-point Energies=           -423.075888
 Sum of electronic and thermal Energies=              -423.067585
 Sum of electronic and thermal Enthalpies=            -423.066641
 Sum of electronic and thermal Free Energies=         -423.109482

                     E (Thermal)             CV                S
                      KCal/Mol        Cal/Mol-Kelvin    Cal/Mol-Kelvin
 Total                  105.982             31.030             90.167
 Electronic               0.000              0.000              0.000
 Translational            0.889              2.981             40.409
 Rotational               0.889              2.981             28.954
 Vibrational            104.205             25.068             20.804
 Vibration     1          0.596              1.977              4.766
 Vibration     2          0.606              1.944              3.329
 Vibration     3          0.626              1.878              2.426
 Vibration     4          0.641              1.831              2.075
 Vibration     5          0.674              1.729              1.599
 Vibration     6          0.740              1.541              1.094
 Vibration     7          0.768              1.464              0.953
 Vibration     8          0.796              1.394              0.842
 Vibration     9          0.827              1.317              0.738
 Vibration    10          0.859              1.241              0.648

 Optimization completed.
    -- Stationary point found.
 Normal termination of Gaussian 09 at Mon Jan 27 14:32:37 2020.
