 Gaussian 09, Revision D.01,
 Gaussian 09:  ES64L-G09RevD.01 24-Apr-2013

 -----------------------------
 # b3lyp 6-31G(2df,p) opt Freq
 -----------------------------

 -----
 titel
 -----
 Symbolic Z-matrix:
 Charge =  0 Multiplicity = 1

 SCF Done:  E(RB3LYP) =  -423.155050161     A.U. after   14 cycles
 Optimization completed.
    -- Stationary point found.
 Normal termination of Gaussian 09 at Mon Jan 27 22:55:31 2020.

 ----------------------------------------------------------------------
 #N Geom=AllCheck Guess=TCheck SCRF=Check GenChk RB3LYP/6-31G(2df,p) Fr
 eq
 ----------------------------------------------------------------------

 Structure from the checkpoint file:  "/scratch/puck/g09_e987d167-fd10-42ce-b139-4ca29522be0f/Gau-183267.chk"
 -----
 titel
 -----
 Charge =  0 Multiplicity = 1

                         Standard orientation:
 ---------------------------------------------------------------------
 Center     Atomic      Atomic             Coordinates (Angstroms)
 Number     Number       Type             X           Y           Z
 ---------------------------------------------------------------------
      1          6           0        0.434547    2.125142   -0.017465
      2          6           0       -0.224543    0.768712   -0.013983
      3          6           0       -1.738192    0.620998   -0.034043
      4          6           0       -1.942606   -0.706189   -0.028396
      5          6           0       -0.541861   -1.283263   -0.006229
      6          6           0        0.105555   -0.336682    1.097451
      7          8           0        1.433507   -0.529080    1.456653
      8          6           0        0.131279   -0.338982   -1.068837
      9          8           0        1.536390   -0.470416   -1.242611
     10          1           0        1.520331    2.025214    0.066624
     11          1           0        0.215219    2.676197   -0.938735
     12          1           0        0.087797    2.729604    0.827617
     13          1           0       -2.453300    1.432426   -0.022814
     14          1           0       -2.869766   -1.261717   -0.015887
     15          1           0       -0.396117   -2.363835   -0.007167
     16          1           0       -0.474493   -0.246370    2.019111
     17          1           0        1.938637   -0.596213    0.633020
     18          1           0       -0.375656   -0.264545   -2.038969
     19          1           0        1.703099   -1.233206   -1.806128
 ---------------------------------------------------------------------

 SCF Done:  E(RB3LYP) =  -423.155050161     A.U. after    1 cycles

 The electronic state is 1-A.
 Alpha  occ. eigenvalues --  -19.16158 -19.12494 -10.23931 -10.22821 -10.19406
 Alpha  occ. eigenvalues --  -10.18864 -10.18014 -10.17814 -10.17104  -1.04533
 Alpha  occ. eigenvalues --   -1.01056  -0.88453  -0.73682  -0.70587  -0.64985
 Alpha  occ. eigenvalues --   -0.63610  -0.56517  -0.53886  -0.52037  -0.48208
 Alpha  occ. eigenvalues --   -0.46389  -0.44370  -0.41816  -0.40877  -0.39071
 Alpha  occ. eigenvalues --   -0.38362  -0.36660  -0.35842  -0.34495  -0.33499
 Alpha  occ. eigenvalues --   -0.29515  -0.27696  -0.24260  -0.23014
 Alpha virt. eigenvalues --    0.01526   0.06118   0.11192   0.12300   0.13609
 Alpha virt. eigenvalues --    0.14345   0.15224   0.16338   0.16622   0.17157
 Alpha virt. eigenvalues --    0.17679   0.18105   0.20554   0.22185   0.23889

 Mulliken charges:
               1
     1  C   -0.517316
     2  C    0.236704
     3  C   -0.138098
     4  C   -0.099880
     5  C   -0.188852
     6  C    0.158100
     7  O   -0.451862
     8  C    0.101694
     9  O   -0.454986
    10  H    0.129491
    11  H    0.115251
    12  H    0.119233
    13  H    0.099596
    14  H    0.102012
    15  H    0.058838
    16  H    0.081276
    17  H    0.286263
    18  H    0.070554
    19  H    0.291979
 Sum of Mulliken charges =   0.00000

 Dipole moment (field-independent basis, Debye):
    X=             -0.7686    Y=             -0.7929    Z=             -2.1973  Tot=              2.4591
 Quadrupole moment (field-independent basis, Debye-Ang):
   XX=            -52.9246   YY=            -49.7897   ZZ=            -54.4728
   XY=             -1.8832   XZ=             -4.1599   YZ=              3.7790

  Exact polarizability:  81.073   0.516  80.769  -0.602   1.192  66.194
 Approx polarizability: 120.696  -0.027 125.283   1.026   1.197 102.208

                      1                      2                      3
                      A                      A                      A
 Frequencies --    162.9897               197.5047               219.3127
 Red. masses --      1.0634                 3.1519                 3.0001
 Frc consts  --      0.0166                 0.0724                 0.0850
 IR Inten    --      0.5401                 3.2745                 2.0213

                      4                      5                      6
                      A                      A                      A
 Frequencies --    278.4338               292.0937               335.2554
 Red. masses --      1.7449                 4.2921                 1.7832
 Frc consts  --      0.0797                 0.2158                 0.1181
 IR Inten    --     22.2534                15.5199                46.8448

                      7                      8                      9
                      A                      A                      A
 Frequencies --    376.5220               411.7334               470.7364
 Red. masses --      2.6068                 3.0326                 5.2681
 Frc consts  --      0.2177                 0.3029                 0.6878
 IR Inten    --      6.2036                 0.9930                 5.1827

                     10                     11                     12
                      A                      A                      A
 Frequencies --    556.6129               598.6554               631.0250
 Red. masses --      2.9053                 3.6995                 1.4654
 Frc consts  --      0.5303                 0.7812                 0.3438
 IR Inten    --      1.7553                22.1832                57.0309

                     13                     14                     15
                      A                      A                      A
 Frequencies --    666.3276               686.5290               689.9338
 Red. masses --      2.6737                 2.5151                 1.8981
 Frc consts  --      0.6994                 0.6984                 0.5323
 IR Inten    --     24.5373                17.7848                28.9963

                     16                     17                     18
                      A                      A                      A
 Frequencies --    847.3779               872.8874               906.3313
 Red. masses --      2.2393                 2.6725                 2.8468
 Frc consts  --      0.9474                 1.1997                 1.3778
 IR Inten    --      2.7849                 0.5983                10.0939

                     19                     20                     21
                      A                      A                      A
 Frequencies --    908.3792               913.9802               929.3281
 Red. masses --      1.4340                 1.8200                 2.5144
 Frc consts  --      0.6971                 0.8958                 1.2794
 IR Inten    --      2.1504                 3.8106                 3.0226

                     22                     23                     24
                      A                      A                      A
 Frequencies --   1001.1113              1061.4868              1081.6688
 Red. masses --      2.1657                 3.4238                 1.4538
 Frc consts  --      1.2789                 2.2729                 1.0022
 IR Inten    --     13.5498                35.6132                 2.4877

                     25                     26                     27
                      A                      A                      A
 Frequencies --   1086.6920              1133.4467              1164.7685
 Red. masses --      1.6454                 2.2336                 1.8632
 Frc consts  --      1.1448                 1.6907                 1.4893
 IR Inten    --      7.2041               116.2534                45.6923

                     28                     29                     30
                      A                      A                      A
 Frequencies --   1178.4747              1200.4005              1212.4524
 Red. masses --      1.5346                 1.9124                 1.5592
 Frc consts  --      1.2557                 1.6236                 1.3505
 IR Inten    --     27.8652                24.0461                99.5693

                     31                     32                     33
                      A                      A                      A
 Frequencies --   1221.0293              1267.3216              1281.1720
 Red. masses --      1.5145                 1.7931                 1.5844
 Frc consts  --      1.3304                 1.6968                 1.5322
 IR Inten    --      7.0515                19.7620                 9.9959

                     34                     35                     36
                      A                      A                      A
 Frequencies --   1313.6922              1361.2032              1409.2008
 Red. masses --      1.4191                 1.9338                 1.5441
 Frc consts  --      1.4429                 2.1110                 1.8066
 IR Inten    --      4.4176                10.4820                 4.0522

                     37                     38                     39
                      A                      A                      A
 Frequencies --   1414.8824              1470.2440              1489.8552
 Red. masses --      1.2963                 1.2069                 1.0497
 Frc consts  --      1.5290                 1.5371                 1.3728
 IR Inten    --      2.5583               101.5292                 5.1453

                     40                     41                     42
                      A                      A                      A
 Frequencies --   1490.4106              1607.5027              3028.0826
 Red. masses --      1.0497                 5.6923                 1.0810
 Frc consts  --      1.3738                 8.6665                 5.8398
 IR Inten    --     14.2210                 0.5207                58.1176

                     43                     44                     45
                      A                      A                      A
 Frequencies --   3031.8237              3087.2667              3093.7377
 Red. masses --      1.0415                 1.0880                 1.1009
 Frc consts  --      5.6406                 6.1098                 6.2079
 IR Inten    --     35.0129                39.1916                21.8310

                     46                     47                     48
                      A                      A                      A
 Frequencies --   3111.3525              3115.5959              3211.3272
 Red. masses --      1.0997                 1.0904                 1.0866
 Frc consts  --      6.2721                 6.2360                 6.6021
 IR Inten    --     12.7102                37.1707                 4.4206

                     49                     50                     51
                      A                      A                      A
 Frequencies --   3237.5662              3714.4009              3814.5975
 Red. masses --      1.1082                 1.0644                 1.0662
 Frc consts  --      6.8441                 8.6527                 9.1405
 IR Inten    --     12.4797               104.6908                34.7013

 - Thermochemistry -
 -------------------
 Temperature   298.150 Kelvin.  Pressure   1.00000 Atm.
 Atom     1 has atomic number  6 and mass  12.00000

 Molecular mass:   126.06808 amu.
 Principal axes and moments of inertia in atomic units:
                           1         2         3
     Eigenvalues --   831.377171011.502971126.84745
           X            0.99900   0.03868  -0.02224
           Y           -0.03748   0.99793   0.05236
           Z            0.02422  -0.05147   0.99838
 This molecule is an asymmetric top.
 Rotational symmetry number  1.
 Warning -- assumption of classical behavior for rotation
           may cause significant error
 Rotational temperatures (Kelvin)      0.10418     0.08563     0.07686
 Rotational constants (GHZ):           2.17079     1.78422     1.60158
 Zero-point vibrational energy     417764.2 (Joules/Mol)
                                   99.84803 (Kcal/Mol)
 Warning -- explicit consideration of  11 degrees of freedom as
           vibrations may cause significant error
 Vibrational temperatures:    234.51   284.16   315.54   400.60   420.26
          (Kelvin)            482.36   541.73   592.39   677.28   800.84
                              861.33   907.90   958.70   987.76   992.66
                             1219.19  1255.89  1304.01  1306.95  1315.01
                             1337.09  1440.37  1527.24  1556.28  1563.51
                             1630.77  1675.84  1695.56  1727.11  1744.45
                             1756.79  1823.39  1843.32  1890.11  1958.47
                             2027.52  2035.70  2115.35  2143.57  2144.37
                             2312.84  4356.73  4362.11  4441.88  4451.19
                             4476.54  4482.64  4620.38  4658.13  5344.19
                             5488.35

 Zero-point correction=                           0.159118 (Hartree/Particle)
 Thermal correction to Energy=                    0.167286
 Thermal correction to Enthalpy=                  0.168230
 Thermal correction to Gibbs Free Energy=         0.127221
 Sum of electronic and zero-point Energies=           -422.995932
 Sum of electronic and thermal Energies=              -422.987764
 Sum of electronic and thermal Enthalpies=            -422.986820
 Sum of electronic and thermal Free Energies=         -423.027829

                     E (Thermal)             CV                S
                      KCal/Mol        Cal/Mol-Kelvin    Cal/Mol-Kelvin
 Total                  104.974             33.204             86.312
 Electronic               0.000              0.000              0.000
 Translational            0.889              2.981             40.409
 Rotational               0.889              2.981             28.340
 Vibrational            103.196             27.242             17.563
 Vibration     1          0.623              1.888              2.515
 Vibration     2          0.637              1.843              2.156
 Vibration     3          0.647              1.812              1.965
 Vibration     4          0.679              1.713              1.543
 Vibration     5          0.687              1.688              1.462
 Vibration     6          0.716              1.605              1.235
 Vibration     7          0.747              1.520              1.053
 Vibration     8          0.776              1.445              0.921
 Vibration     9          0.828              1.315              0.735
 Vibration    10          0.912              1.125              0.531
 Vibration    11          0.957              1.035              0.452

 Optimization completed.
    -- Stationary point found.
 Normal termination of Gaussian 09 at Mon Jan 27 23:43:10 2020.
