 Gaussian 09, Revision D.01,
 Gaussian 09:  ES64L-G09RevD.01 24-Apr-2013

 -----------------------------
 # b3lyp 6-31G(2df,p) opt Freq
 -----------------------------

 -----
 titel
 -----
 Symbolic Z-matrix:
 Charge =  0 Multiplicity = 1

 SCF Done:  E(RB3LYP) =  -423.116667490     A.U. after   14 cycles
 Optimization completed.
    -- Stationary point found.
 Normal termination of Gaussian 09 at Tue Jan 28 14:25:12 2020.

 ----------------------------------------------------------------------
 #N Geom=AllCheck Guess=TCheck SCRF=Check GenChk RB3LYP/6-31G(2df,p) Fr
 eq
 ----------------------------------------------------------------------

 Structure from the checkpoint file:  "/scratch/puck/g09_9ef95487-1422-49b9-a5e0-5ace213f4f25/Gau-163939.chk"
 -----
 titel
 -----
 Charge =  0 Multiplicity = 1

                         Standard orientation:
 ---------------------------------------------------------------------
 Center     Atomic      Atomic             Coordinates (Angstroms)
 Number     Number       Type             X           Y           Z
 ---------------------------------------------------------------------
      1          8           0        3.413607    0.461060   -0.261634
      2          6           0        2.071203    0.652674    0.153964
      3          6           0        1.366768   -0.697817    0.084853
      4          6           0       -0.095901   -0.623615    0.491714
      5          6           0       -0.977991   -1.876685    0.312850
      6          8           0       -1.949728   -1.144537   -0.464904
      7          6           0       -1.102524    0.030100   -0.504999
      8          6           0       -1.772091    1.253251   -0.100657
      9          6           0       -2.307256    2.273398    0.243462
     10          1           0        3.861415    1.311576   -0.236672
     11          1           0        2.020991    1.043549    1.183591
     12          1           0        1.551777    1.379541   -0.491642
     13          1           0        1.454830   -1.089162   -0.936265
     14          1           0        1.898417   -1.401672    0.736863
     15          1           0       -0.201690   -0.190521    1.489784
     16          1           0       -0.510050   -2.679786   -0.272539
     17          1           0       -1.419424   -2.304192    1.219451
     18          1           0       -0.672172    0.158689   -1.509597
     19          1           0       -2.788366    3.171954    0.542198
 ---------------------------------------------------------------------

 SCF Done:  E(RB3LYP) =  -423.116667490     A.U. after    1 cycles

 The electronic state is 1-A.
 Alpha  occ. eigenvalues --  -19.13754 -19.13711 -10.25711 -10.23258 -10.23227
 Alpha  occ. eigenvalues --  -10.20256 -10.18865 -10.18501 -10.18131  -1.04233
 Alpha  occ. eigenvalues --   -1.01888  -0.80143  -0.76699  -0.71083  -0.69541
 Alpha  occ. eigenvalues --   -0.61644  -0.57660  -0.54070  -0.51936  -0.50513
 Alpha  occ. eigenvalues --   -0.47362  -0.46188  -0.44955  -0.42537  -0.40693
 Alpha  occ. eigenvalues --   -0.38388  -0.36086  -0.34642  -0.33103  -0.30671
 Alpha  occ. eigenvalues --   -0.27865  -0.27111  -0.27038  -0.25259
 Alpha virt. eigenvalues --    0.01847   0.04664   0.07358   0.09238   0.10891
 Alpha virt. eigenvalues --    0.11734   0.12110   0.12590   0.15171   0.15794
 Alpha virt. eigenvalues --    0.16707   0.17620   0.19480   0.19807   0.21493

 Mulliken charges:
               1
     1  O   -0.418958
     2  C   -0.072906
     3  C   -0.205294
     4  C   -0.054566
     5  C   -0.096737
     6  O   -0.285019
     7  C   -0.035833
     8  C    0.312011
     9  C   -0.440006
    10  H    0.287542
    11  H    0.089023
    12  H    0.094115
    13  H    0.109899
    14  H    0.111271
    15  H    0.093253
    16  H    0.100627
    17  H    0.110410
    18  H    0.099620
    19  H    0.201547
 Sum of Mulliken charges =   0.00000

 Dipole moment (field-independent basis, Debye):
    X=              1.4153    Y=              1.4362    Z=              1.1265  Tot=              2.3097
 Quadrupole moment (field-independent basis, Debye-Ang):
   XX=            -59.0164   YY=            -46.5442   ZZ=            -52.8606
   XY=              1.1585   XZ=             -1.3320   YZ=             -0.5301

  Exact polarizability:  81.670 -10.021  91.887  -3.495   2.344  60.293
 Approx polarizability: 106.379 -18.936 135.385  -6.102   8.655  93.935

                      1                      2                      3
                      A                      A                      A
 Frequencies --     42.3206                79.9213                93.8613
 Red. masses --      4.4143                 4.6323                 2.1071
 Frc consts  --      0.0047                 0.0174                 0.0109
 IR Inten    --      0.8937                 2.5653                 5.6825

                      4                      5                      6
                      A                      A                      A
 Frequencies --    145.8263               183.0348               210.2489
 Red. masses --      2.7336                 3.3917                 4.1864
 Frc consts  --      0.0342                 0.0669                 0.1090
 IR Inten    --      2.5685                 3.2471                 1.4826

                      7                      8                      9
                      A                      A                      A
 Frequencies --    266.9345               320.3023               367.2757
 Red. masses --      1.0836                 3.8740                 3.5491
 Frc consts  --      0.0455                 0.2342                 0.2821
 IR Inten    --    102.9284                 1.4542                 0.1768

                     10                     11                     12
                      A                      A                      A
 Frequencies --    430.5776               518.0916               533.9001
 Red. masses --      3.5043                 4.5085                 6.2072
 Frc consts  --      0.3828                 0.7130                 1.0425
 IR Inten    --      7.1332                 9.6322                 1.5320

                     13                     14                     15
                      A                      A                      A
 Frequencies --    616.7349               671.9963               749.4571
 Red. masses --      1.2190                 1.2564                 4.2567
 Frc consts  --      0.2732                 0.3343                 1.4087
 IR Inten    --     42.7121                35.5569                 7.7795

                     16                     17                     18
                      A                      A                      A
 Frequencies --    788.7029               858.0488               941.7419
 Red. masses --      1.2675                 1.7776                 2.0016
 Frc consts  --      0.4645                 0.7711                 1.0459
 IR Inten    --      1.8619                 5.4173                 6.4516

                     19                     20                     21
                      A                      A                      A
 Frequencies --    962.9339               997.8395              1017.8129
 Red. masses --      2.8670                 3.3754                 9.0061
 Frc consts  --      1.5663                 1.9801                 5.4970
 IR Inten    --     31.8664                 0.6445                97.6630

                     22                     23                     24
                      A                      A                      A
 Frequencies --   1055.5158              1057.0333              1094.7993
 Red. masses --      2.5467                 3.1844                 3.3650
 Frc consts  --      1.6717                 2.0963                 2.3763
 IR Inten    --     69.6284                30.9894                39.3467

                     25                     26                     27
                      A                      A                      A
 Frequencies --   1116.5237              1136.0524              1168.8278
 Red. masses --      2.3620                 1.8260                 1.2348
 Frc consts  --      1.7349                 1.3885                 0.9939
 IR Inten    --      0.2177                 1.0120                 1.6561

                     28                     29                     30
                      A                      A                      A
 Frequencies --   1210.2625              1240.7033              1258.3733
 Red. masses --      1.3076                 1.1802                 1.3090
 Frc consts  --      1.1284                 1.0704                 1.2213
 IR Inten    --      1.6009                30.2605                 1.2656

                     31                     32                     33
                      A                      A                      A
 Frequencies --   1273.5526              1310.6308              1319.7073
 Red. masses --      1.2919                 1.2080                 1.1711
 Frc consts  --      1.2345                 1.2226                 1.2017
 IR Inten    --     18.5181                 6.0048                 0.3775

                     34                     35                     36
                      A                      A                      A
 Frequencies --   1348.3217              1361.1690              1401.3806
 Red. masses --      1.3829                 1.3609                 1.6930
 Frc consts  --      1.4813                 1.4856                 1.9590
 IR Inten    --     11.1069                22.7406                 3.3343

                     37                     38                     39
                      A                      A                      A
 Frequencies --   1465.8987              1492.1376              1525.1679
 Red. masses --      1.4625                 1.0880                 1.0982
 Frc consts  --      1.8517                 1.4273                 1.5052
 IR Inten    --      5.8080                 2.8255                 2.1287

                     40                     41                     42
                      A                      A                      A
 Frequencies --   1526.3001              2233.8134              2961.7934
 Red. masses --      1.0908                 5.9339                 1.0547
 Frc consts  --      1.4972                17.4456                 5.4510
 IR Inten    --      1.9796                 1.8813                51.0014

                     43                     44                     45
                      A                      A                      A
 Frequencies --   2984.6754              2988.1081              3009.1289
 Red. masses --      1.0902                 1.0962                 1.0617
 Frc consts  --      5.7218                 5.7667                 5.6639
 IR Inten    --     14.9374                66.5286                54.2443

                     46                     47                     48
                      A                      A                      A
 Frequencies --   3029.1232              3059.9838              3067.6433
 Red. masses --      1.0590                 1.0972                 1.1034
 Frc consts  --      5.7251                 6.0531                 6.1178
 IR Inten    --     32.7582                22.7436                11.8318

                     49                     50                     51
                      A                      A                      A
 Frequencies --   3085.1343              3502.2911              3832.1358
 Red. masses --      1.0937                 1.1621                 1.0664
 Frc consts  --      6.1332                 8.3985                 9.2267
 IR Inten    --     56.7994                64.5439                22.2094

 - Thermochemistry -
 -------------------
 Temperature   298.150 Kelvin.  Pressure   1.00000 Atm.
 Atom     1 has atomic number  8 and mass  15.99491

 Molecular mass:   126.06808 amu.
 Principal axes and moments of inertia in atomic units:
                           1         2         3
     Eigenvalues --   772.194491817.621882429.78281
           X            0.99999   0.00265  -0.00336
           Y           -0.00266   0.99999  -0.00381
           Z            0.00335   0.00382   0.99999
 This molecule is an asymmetric top.
 Rotational symmetry number  1.
 Warning -- assumption of classical behavior for rotation
           may cause significant error
 Rotational temperatures (Kelvin)      0.11217     0.04765     0.03565
 Rotational constants (GHZ):           2.33716     0.99291     0.74276
 Zero-point vibrational energy     412195.8 (Joules/Mol)
                                   98.51715 (Kcal/Mol)
 Warning -- explicit consideration of  13 degrees of freedom as
           vibrations may cause significant error
 Vibrational temperatures:     60.89   114.99   135.05   209.81   263.35
          (Kelvin)            302.50   384.06   460.84   528.43   619.50
                              745.42   768.16   887.34   966.85  1078.30
                             1134.77  1234.54  1354.95  1385.45  1435.67
                             1464.40  1518.65  1520.83  1575.17  1606.43
                             1634.52  1681.68  1741.30  1785.09  1810.52
                             1832.36  1885.70  1898.76  1939.93  1958.42
                             2016.27  2109.10  2146.85  2194.37  2196.00
                             3213.96  4261.35  4294.28  4299.22  4329.46
                             4358.23  4402.63  4413.65  4438.81  5039.01
                             5513.58

 Zero-point correction=                           0.156997 (Hartree/Particle)
 Thermal correction to Energy=                    0.166823
 Thermal correction to Enthalpy=                  0.167767
 Thermal correction to Gibbs Free Energy=         0.121088
 Sum of electronic and zero-point Energies=           -422.959670
 Sum of electronic and thermal Energies=              -422.949845
 Sum of electronic and thermal Enthalpies=            -422.948900
 Sum of electronic and thermal Free Energies=         -422.995579

                     E (Thermal)             CV                S
                      KCal/Mol        Cal/Mol-Kelvin    Cal/Mol-Kelvin
 Total                  104.683             34.914             98.244
 Electronic               0.000              0.000              0.000
 Translational            0.889              2.981             40.409
 Rotational               0.889              2.981             29.613
 Vibrational            102.906             28.953             28.223
 Vibration     1          0.595              1.980              5.147
 Vibration     2          0.600              1.963              3.893
 Vibration     3          0.603              1.954              3.578
 Vibration     4          0.617              1.907              2.726
 Vibration     5          0.631              1.863              2.297
 Vibration     6          0.642              1.825              2.042
 Vibration     7          0.672              1.734              1.616
 Vibration     8          0.706              1.635              1.309
 Vibration     9          0.740              1.540              1.091
 Vibration    10          0.792              1.404              0.857
 Vibration    11          0.873              1.210              0.614
 Vibration    12          0.889              1.175              0.579
 Vibration    13          0.976              0.997              0.422

 Optimization completed.
    -- Stationary point found.
 Normal termination of Gaussian 09 at Tue Jan 28 15:07:12 2020.
