 Gaussian 09, Revision D.01,
 Gaussian 09:  ES64L-G09RevD.01 24-Apr-2013

 -----------------------------
 # b3lyp 6-31G(2df,p) opt Freq
 -----------------------------

 -----
 titel
 -----
 Symbolic Z-matrix:
 Charge =  0 Multiplicity = 1

 SCF Done:  E(RB3LYP) =  -423.200410764     A.U. after   14 cycles
 Optimization completed.
    -- Stationary point found.
 Normal termination of Gaussian 09 at Mon Jan 27 16:18:17 2020.

 ----------------------------------------------------------------------
 #N Geom=AllCheck Guess=TCheck SCRF=Check GenChk RB3LYP/6-31G(2df,p) Fr
 eq
 ----------------------------------------------------------------------

 Structure from the checkpoint file:  "/scratch/puck/g09_19327ffc-bf47-41e2-a949-e9c4451b1ae4/Gau-76177.chk"
 -----
 titel
 -----
 Charge =  0 Multiplicity = 1

                         Standard orientation:
 ---------------------------------------------------------------------
 Center     Atomic      Atomic             Coordinates (Angstroms)
 Number     Number       Type             X           Y           Z
 ---------------------------------------------------------------------
      1          6           0       -1.405051   -0.569312    1.406931
      2          6           0       -0.797886   -0.327756    0.023211
      3          6           0       -1.871750   -0.329100   -1.069997
      4          8           0        0.172076   -1.348345   -0.279391
      5          6           0        1.434137   -0.786472   -0.534885
      6          6           0        2.146506   -0.183160    0.625898
      7          6           0        1.389883    0.712218   -0.367604
      8          6           0       -0.030887    1.013285   -0.032211
      9          8           0       -0.545179    2.096188    0.099328
     10          1           0       -0.632729   -0.610398    2.179594
     11          1           0       -2.097163    0.240811    1.652038
     12          1           0       -1.949785   -1.517659    1.418440
     13          1           0       -1.419622   -0.190265   -2.056173
     14          1           0       -2.404827   -1.284036   -1.066830
     15          1           0       -2.582396    0.483123   -0.895668
     16          1           0        1.970324   -1.278697   -1.338498
     17          1           0        1.739495   -0.330462    1.619637
     18          1           0        3.226884   -0.099686    0.581505
     19          1           0        1.944939    1.426300   -0.961611
 ---------------------------------------------------------------------

 SCF Done:  E(RB3LYP) =  -423.200410764     A.U. after    1 cycles

 The electronic state is 1-A.
 Alpha  occ. eigenvalues --  -19.14961 -19.13256 -10.26947 -10.25230 -10.24662
 Alpha  occ. eigenvalues --  -10.20674 -10.20634 -10.18210 -10.18000  -1.05854
 Alpha  occ. eigenvalues --   -1.03730  -0.86530  -0.79155  -0.69703  -0.68228
 Alpha  occ. eigenvalues --   -0.62346  -0.58825  -0.55095  -0.51827  -0.46297
 Alpha  occ. eigenvalues --   -0.45980  -0.44594  -0.43763  -0.41090  -0.40592
 Alpha  occ. eigenvalues --   -0.39164  -0.38006  -0.37662  -0.36591  -0.36283
 Alpha  occ. eigenvalues --   -0.33678  -0.29885  -0.25282  -0.23941
 Alpha virt. eigenvalues --   -0.02096   0.08677   0.09057   0.11181   0.11308
 Alpha virt. eigenvalues --    0.13917   0.14461   0.15234   0.16269   0.16759
 Alpha virt. eigenvalues --    0.18354   0.19106   0.20426   0.21334   0.22754

 Mulliken charges:
               1
     1  C   -0.411228
     2  C    0.239714
     3  C   -0.400255
     4  O   -0.302415
     5  C    0.093213
     6  C   -0.321744
     7  C   -0.184098
     8  C    0.376808
     9  O   -0.342934
    10  H    0.119655
    11  H    0.138333
    12  H    0.125191
    13  H    0.120298
    14  H    0.122921
    15  H    0.136229
    16  H    0.110142
    17  H    0.133446
    18  H    0.128927
    19  H    0.117796
 Sum of Mulliken charges =   0.00000

 Dipole moment (field-independent basis, Debye):
    X=              1.3630    Y=             -1.3159    Z=             -0.2422  Tot=              1.9100
 Quadrupole moment (field-independent basis, Debye-Ang):
   XX=            -47.3264   YY=            -62.1315   ZZ=            -50.8527
   XY=              2.3642   XZ=             -1.0859   YZ=             -1.0522

  Exact polarizability:  87.692  -1.589  71.192  -0.036  -0.580  66.691
 Approx polarizability: 117.872  -8.376 118.521  -0.110   0.805  96.892

                      1                      2                      3
                      A                      A                      A
 Frequencies --     65.9913               179.4278               197.1788
 Red. masses --      3.9751                 2.6233                 1.2246
 Frc consts  --      0.0102                 0.0498                 0.0281
 IR Inten    --      5.1377                 0.7885                 0.7753

                      4                      5                      6
                      A                      A                      A
 Frequencies --    210.7705               234.3835               290.8472
 Red. masses --      2.4547                 1.1552                 2.7266
 Frc consts  --      0.0642                 0.0374                 0.1359
 IR Inten    --      0.2722                 2.0502                 2.9387

                      7                      8                      9
                      A                      A                      A
 Frequencies --    325.3784               380.6160               444.0546
 Red. masses --      2.4854                 2.6463                 3.3589
 Frc consts  --      0.1550                 0.2259                 0.3902
 IR Inten    --      1.4506                 1.7156                 7.1069

                     10                     11                     12
                      A                      A                      A
 Frequencies --    487.8098               596.7706               630.5431
 Red. masses --      3.5353                 5.1040                 5.1439
 Frc consts  --      0.4957                 1.0710                 1.2050
 IR Inten    --      8.9096                 0.9136                 1.6490

                     13                     14                     15
                      A                      A                      A
 Frequencies --    689.8086               762.5594               787.9104
 Red. masses --      3.3973                 2.9029                 2.5399
 Frc consts  --      0.9525                 0.9945                 0.9290
 IR Inten    --      2.5873                 3.8013                 6.2711

                     16                     17                     18
                      A                      A                      A
 Frequencies --    817.9161               884.2381               923.8087
 Red. masses --      2.0268                 2.5249                 1.8615
 Frc consts  --      0.7989                 1.1631                 0.9360
 IR Inten    --     23.8877                 4.4482                 6.7812

                     19                     20                     21
                      A                      A                      A
 Frequencies --    937.5816               963.6790              1002.4115
 Red. masses --      1.5927                 1.9567                 2.3732
 Frc consts  --      0.8249                 1.0707                 1.4050
 IR Inten    --      0.5767                22.0608                48.7731

                     22                     23                     24
                      A                      A                      A
 Frequencies --   1002.8909              1014.9743              1039.5853
 Red. masses --      2.1192                 1.4187                 1.2477
 Frc consts  --      1.2559                 0.8611                 0.7945
 IR Inten    --      4.7300                 8.6013                 2.0420

                     25                     26                     27
                      A                      A                      A
 Frequencies --   1094.5508              1132.4975              1157.5103
 Red. masses --      1.2708                 2.2186                 2.0519
 Frc consts  --      0.8970                 1.6765                 1.6198
 IR Inten    --      0.1738                 9.1460                73.0011

                     28                     29                     30
                      A                      A                      A
 Frequencies --   1183.1200              1190.0109              1209.8027
 Red. masses --      2.2368                 2.5776                 2.4215
 Frc consts  --      1.8447                 2.1507                 2.0881
 IR Inten    --      7.9155                45.7917                68.7278

                     31                     32                     33
                      A                      A                      A
 Frequencies --   1277.1610              1320.7896              1369.9472
 Red. masses --      2.8127                 2.2751                 1.6921
 Frc consts  --      2.7031                 2.3384                 1.8711
 IR Inten    --      2.7097                15.9929                22.1535

                     34                     35                     36
                      A                      A                      A
 Frequencies --   1387.0220              1408.1852              1471.7900
 Red. masses --      1.2450                 1.2284                 1.1565
 Frc consts  --      1.4112                 1.4352                 1.4761
 IR Inten    --      6.3749                11.3202                 3.9134

                     37                     38                     39
                      A                      A                      A
 Frequencies --   1476.2002              1480.2840              1495.5400
 Red. masses --      1.0734                 1.0751                 1.0705
 Frc consts  --      1.3782                 1.3880                 1.4106
 IR Inten    --      4.2668                 4.6559                 6.0834

                     40                     41                     42
                      A                      A                      A
 Frequencies --   1503.2605              1832.8477              3041.5879
 Red. masses --      1.0563                12.3380                 1.0333
 Frc consts  --      1.4064                24.4202                 5.6324
 IR Inten    --      4.8582               208.8595                17.3658

                     43                     44                     45
                      A                      A                      A
 Frequencies --   3045.6373              3116.9928              3119.4521
 Red. masses --      1.0344                 1.1028                 1.1021
 Frc consts  --      5.6532                 6.3125                 6.3184
 IR Inten    --      9.9957                10.0008                27.8905

                     46                     47                     48
                      A                      A                      A
 Frequencies --   3125.5683              3131.4274              3138.0111
 Red. masses --      1.1023                 1.1018                 1.0540
 Frc consts  --      6.3449                 6.3656                 6.1151
 IR Inten    --      2.9289                18.3058                11.0801

                     49                     50                     51
                      A                      A                      A
 Frequencies --   3175.0819              3202.8315              3229.7481
 Red. masses --      1.0920                 1.0937                 1.1166
 Frc consts  --      6.4863                 6.6104                 6.8625
 IR Inten    --     18.8977                 2.0823                 4.8031

 - Thermochemistry -
 -------------------
 Temperature   298.150 Kelvin.  Pressure   1.00000 Atm.
 Atom     1 has atomic number  6 and mass  12.00000

 Molecular mass:   126.06808 amu.
 Principal axes and moments of inertia in atomic units:
                           1         2         3
     Eigenvalues --   751.532041059.066901309.86689
           X            0.99873   0.05035   0.00146
           Y           -0.05029   0.99833  -0.02859
           Z           -0.00290   0.02848   0.99959
 This molecule is an asymmetric top.
 Rotational symmetry number  1.
 Warning -- assumption of classical behavior for rotation
           may cause significant error
 Rotational temperatures (Kelvin)      0.11525     0.08178     0.06612
 Rotational constants (GHZ):           2.40142     1.70409     1.37781
 Zero-point vibrational energy     413836.1 (Joules/Mol)
                                   98.90920 (Kcal/Mol)
 Warning -- explicit consideration of  11 degrees of freedom as
           vibrations may cause significant error
 Vibrational temperatures:     94.95   258.16   283.70   303.25   337.23
          (Kelvin)            418.46   468.15   547.62   638.89   701.85
                              858.62   907.21   992.48  1097.15  1133.63
                             1176.80  1272.22  1329.15  1348.97  1386.52
                             1442.24  1442.93  1460.32  1495.73  1574.81
                             1629.41  1665.40  1702.24  1712.16  1740.63
                             1837.55  1900.32  1971.05  1995.61  2026.06
                             2117.57  2123.92  2129.80  2151.75  2162.85
                             2637.06  4376.16  4381.99  4484.65  4488.19
                             4496.99  4505.42  4514.89  4568.23  4608.15
                             4646.88

 Zero-point correction=                           0.157622 (Hartree/Particle)
 Thermal correction to Energy=                    0.166315
 Thermal correction to Enthalpy=                  0.167259
 Thermal correction to Gibbs Free Energy=         0.124528
 Sum of electronic and zero-point Energies=           -423.042789
 Sum of electronic and thermal Energies=              -423.034096
 Sum of electronic and thermal Enthalpies=            -423.033152
 Sum of electronic and thermal Free Energies=         -423.075882

                     E (Thermal)             CV                S
                      KCal/Mol        Cal/Mol-Kelvin    Cal/Mol-Kelvin
 Total                  104.364             33.347             89.934
 Electronic               0.000              0.000              0.000
 Translational            0.889              2.981             40.409
 Rotational               0.889              2.981             28.435
 Vibrational            102.587             27.385             21.091
 Vibration     1          0.597              1.970              4.270
 Vibration     2          0.629              1.868              2.334
 Vibration     3          0.637              1.844              2.159
 Vibration     4          0.643              1.824              2.037
 Vibration     5          0.654              1.788              1.845
 Vibration     6          0.687              1.691              1.469
 Vibration     7          0.709              1.625              1.283
 Vibration     8          0.750              1.512              1.037
 Vibration     9          0.804              1.374              0.814
 Vibration    10          0.844              1.277              0.689
 Vibration    11          0.955              1.039              0.455

 Optimization completed.
    -- Stationary point found.
 Normal termination of Gaussian 09 at Mon Jan 27 17:11:09 2020.
