 Gaussian 09, Revision D.01,
 Gaussian 09:  ES64L-G09RevD.01 24-Apr-2013

 -----------------------------
 # b3lyp 6-31G(2df,p) opt Freq
 -----------------------------

 -----
 titel
 -----
 Symbolic Z-matrix:
 Charge =  0 Multiplicity = 1

 SCF Done:  E(RB3LYP) =  -423.138136568     A.U. after   12 cycles
 Optimization completed.
    -- Stationary point found.
 Normal termination of Gaussian 09 at Mon Jan 27 22:05:17 2020.

 ----------------------------------------------------------------------
 #N Geom=AllCheck Guess=TCheck SCRF=Check GenChk RB3LYP/6-31G(2df,p) Fr
 eq
 ----------------------------------------------------------------------

 Structure from the checkpoint file:  "/scratch/puck/g09_26a9783b-d99d-41e0-b835-c89b789df39d/Gau-111376.chk"
 -----
 titel
 -----
 Charge =  0 Multiplicity = 1

                         Standard orientation:
 ---------------------------------------------------------------------
 Center     Atomic      Atomic             Coordinates (Angstroms)
 Number     Number       Type             X           Y           Z
 ---------------------------------------------------------------------
      1          6           0        1.727892   -1.290990    0.963518
      2          6           0        0.901384   -0.375367    0.121830
      3          6           0        1.254243    0.691105   -0.878644
      4          6           0        0.419192    1.764644   -0.170362
      5          6           0       -0.370774    0.586675    0.419915
      6          8           0       -1.080049    0.716117    1.589673
      7          6           0       -1.072975   -0.076323   -0.794052
      8          8           0       -1.887947   -1.162531   -0.368784
      9          6           0        0.313442   -0.462405   -1.277942
     10          1           0        2.196993   -0.750767    1.793638
     11          1           0        1.129046   -2.100035    1.398929
     12          1           0        2.527452   -1.753168    0.373661
     13          1           0        2.199626    0.819669   -1.390029
     14          1           0        1.008030    2.281826    0.592208
     15          1           0       -0.140678    2.494967   -0.766616
     16          1           0       -1.766747    0.032970    1.555453
     17          1           0       -1.714526    0.558413   -1.415414
     18          1           0       -1.299063   -1.890145   -0.136036
     19          1           0        0.569405   -1.146457   -2.078484
 ---------------------------------------------------------------------

 SCF Done:  E(RB3LYP) =  -423.138136568     A.U. after    1 cycles

 The electronic state is 1-A.
 Alpha  occ. eigenvalues --  -19.14894 -19.14189 -10.23541 -10.23101 -10.19508
 Alpha  occ. eigenvalues --  -10.19416 -10.19299 -10.18743 -10.18209  -1.04362
 Alpha  occ. eigenvalues --   -1.01699  -0.92140  -0.73956  -0.71270  -0.68963
 Alpha  occ. eigenvalues --   -0.61192  -0.56739  -0.54496  -0.51248  -0.47563
 Alpha  occ. eigenvalues --   -0.46248  -0.44975  -0.43268  -0.41635  -0.40442
 Alpha  occ. eigenvalues --   -0.39021  -0.37585  -0.35873  -0.34099  -0.33355
 Alpha  occ. eigenvalues --   -0.29721  -0.26384  -0.24662  -0.24181
 Alpha virt. eigenvalues --    0.06171   0.10435   0.11493   0.11939   0.12059
 Alpha virt. eigenvalues --    0.13086   0.13522   0.14806   0.15785   0.16524
 Alpha virt. eigenvalues --    0.17684   0.18629   0.20356   0.21676   0.23077

 Mulliken charges:
               1
     1  C   -0.526599
     2  C    0.230617
     3  C   -0.120569
     4  C   -0.290829
     5  C    0.347014
     6  O   -0.477711
     7  C    0.074308
     8  O   -0.458300
     9  C   -0.168106
    10  H    0.131128
    11  H    0.112707
    12  H    0.123826
    13  H    0.089029
    14  H    0.107701
    15  H    0.090797
    16  H    0.283786
    17  H    0.079206
    18  H    0.285355
    19  H    0.086641
 Sum of Mulliken charges =   0.00000

 Dipole moment (field-independent basis, Debye):
    X=              1.4466    Y=             -1.2647    Z=             -0.6750  Tot=              2.0366
 Quadrupole moment (field-independent basis, Debye-Ang):
   XX=            -54.2901   YY=            -51.1738   ZZ=            -54.8055
   XY=             -0.2425   XZ=             -0.9642   YZ=             -2.5174

  Exact polarizability:  77.028  -0.542  76.590   0.112  -2.064  71.252
 Approx polarizability: 111.497   1.657 111.919  -1.370  -1.589 109.750

                      1                      2                      3
                      A                      A                      A
 Frequencies --    150.8882               176.0949               191.7750
 Red. masses --      3.7697                 3.3311                 1.0274
 Frc consts  --      0.0506                 0.0609                 0.0223
 IR Inten    --      0.5271                 0.3830                 0.1509

                      4                      5                      6
                      A                      A                      A
 Frequencies --    235.0035               271.6779               334.9469
 Red. masses --      5.0919                 2.7268                 1.1014
 Frc consts  --      0.1657                 0.1186                 0.0728
 IR Inten    --      7.7627                 3.3408                66.4128

                      7                      8                      9
                      A                      A                      A
 Frequencies --    402.5346               442.7031               456.4622
 Red. masses --      2.9288                 3.1098                 2.5502
 Frc consts  --      0.2796                 0.3591                 0.3131
 IR Inten    --      7.3423                 3.8784                 0.5122

                     10                     11                     12
                      A                      A                      A
 Frequencies --    525.4139               552.5742               621.4382
 Red. masses --      1.7091                 1.8721                 3.6955
 Frc consts  --      0.2780                 0.3368                 0.8409
 IR Inten    --     30.6280                44.4587                14.5917

                     13                     14                     15
                      A                      A                      A
 Frequencies --    684.3231               732.4641               774.6303
 Red. masses --      4.2683                 3.6746                 3.3440
 Frc consts  --      1.1777                 1.1615                 1.1822
 IR Inten    --      8.4802                 0.0913                 9.7517

                     16                     17                     18
                      A                      A                      A
 Frequencies --    855.7467               861.2332               891.1252
 Red. masses --      1.8902                 1.7834                 2.5702
 Frc consts  --      0.8156                 0.7794                 1.2025
 IR Inten    --      0.8704                 6.6848                16.9096

                     19                     20                     21
                      A                      A                      A
 Frequencies --    954.9148               985.3206               996.5116
 Red. masses --      1.7120                 1.8833                 1.7411
 Frc consts  --      0.9198                 1.0773                 1.0187
 IR Inten    --      5.4346                 5.0253                 9.9751

                     22                     23                     24
                      A                      A                      A
 Frequencies --   1007.8454              1010.6569              1073.4680
 Red. masses --      1.4846                 2.4731                 2.0809
 Frc consts  --      0.8885                 1.4883                 1.4128
 IR Inten    --     11.2415                34.0199                38.2472

                     25                     26                     27
                      A                      A                      A
 Frequencies --   1091.2574              1117.6629              1125.3097
 Red. masses --      2.4339                 1.7394                 1.5071
 Frc consts  --      1.7077                 1.2802                 1.1245
 IR Inten    --     27.7175                28.5363                31.7116

                     28                     29                     30
                      A                      A                      A
 Frequencies --   1158.4381              1216.9372              1228.2913
 Red. masses --      1.8938                 2.0672                 1.4486
 Frc consts  --      1.4974                 1.8037                 1.2876
 IR Inten    --      2.6756                 8.7835                 6.1578

                     31                     32                     33
                      A                      A                      A
 Frequencies --   1253.2985              1272.1684              1283.3958
 Red. masses --      1.9034                 1.5252                 1.6593
 Frc consts  --      1.7616                 1.4544                 1.6103
 IR Inten    --      3.8726                19.7516                11.6829

                     34                     35                     36
                      A                      A                      A
 Frequencies --   1348.0337              1403.1098              1411.7774
 Red. masses --      3.1848                 1.4696                 1.3675
 Frc consts  --      3.4098                 1.7046                 1.6058
 IR Inten    --    158.0735                36.3485                 1.4157

                     37                     38                     39
                      A                      A                      A
 Frequencies --   1424.9736              1453.1932              1483.4031
 Red. masses --      1.4396                 4.9686                 1.0450
 Frc consts  --      1.7223                 6.1820                 1.3548
 IR Inten    --     69.3129                 2.5404                 4.3059

                     40                     41                     42
                      A                      A                      A
 Frequencies --   1497.2267              1504.8721              3018.0693
 Red. masses --      1.0574                 1.1766                 1.0355
 Frc consts  --      1.3966                 1.5699                 5.5575
 IR Inten    --      6.9979                 6.0595                50.2097

                     43                     44                     45
                      A                      A                      A
 Frequencies --   3030.1165              3051.8637              3075.5699
 Red. masses --      1.0620                 1.0847                 1.0999
 Frc consts  --      5.7448                 5.9522                 6.1299
 IR Inten    --     37.9528                67.1615                23.2478

                     46                     47                     48
                      A                      A                      A
 Frequencies --   3088.1364              3098.6880              3183.7083
 Red. masses --      1.1007                 1.1031                 1.0921
 Frc consts  --      6.1844                 6.2405                 6.5220
 IR Inten    --     17.3415                24.6910                 9.5764

                     49                     50                     51
                      A                      A                      A
 Frequencies --   3198.8197              3714.9587              3792.9389
 Red. masses --      1.0940                 1.0647                 1.0654
 Frc consts  --      6.5957                 8.6576                 9.0303
 IR Inten    --     18.3600                43.4802                13.9156

 - Thermochemistry -
 -------------------
 Temperature   298.150 Kelvin.  Pressure   1.00000 Atm.
 Atom     1 has atomic number  6 and mass  12.00000

 Molecular mass:   126.06808 amu.
 Principal axes and moments of inertia in atomic units:
                           1         2         3
     Eigenvalues --   844.381341050.578081120.02329
           X            0.99742  -0.05358   0.04770
           Y            0.06407   0.96445  -0.25636
           Z           -0.03227   0.25876   0.96540
 This molecule is an asymmetric top.
 Rotational symmetry number  1.
 Warning -- assumption of classical behavior for rotation
           may cause significant error
 Rotational temperatures (Kelvin)      0.10258     0.08244     0.07733
 Rotational constants (GHZ):           2.13735     1.71786     1.61134
 Zero-point vibrational energy     416994.1 (Joules/Mol)
                                   99.66398 (Kcal/Mol)
 Warning -- explicit consideration of  11 degrees of freedom as
           vibrations may cause significant error
 Vibrational temperatures:    217.09   253.36   275.92   338.12   390.88
          (Kelvin)            481.91   579.16   636.95   656.75   755.95
                              795.03   894.11   984.59  1053.85  1114.52
                             1231.23  1239.12  1282.13  1373.91  1417.65
                             1433.76  1450.06  1454.11  1544.48  1570.07
                             1608.07  1619.07  1666.73  1750.90  1767.24
                             1803.21  1830.36  1846.52  1939.52  2018.76
                             2031.23  2050.22  2090.82  2134.28  2154.17
                             2165.17  4342.32  4359.66  4390.95  4425.05
                             4443.13  4458.32  4580.64  4602.38  5344.99
                             5457.19

 Zero-point correction=                           0.158825 (Hartree/Particle)
 Thermal correction to Energy=                    0.167111
 Thermal correction to Enthalpy=                  0.168055
 Thermal correction to Gibbs Free Energy=         0.126637
 Sum of electronic and zero-point Energies=           -422.979312
 Sum of electronic and thermal Energies=              -422.971026
 Sum of electronic and thermal Enthalpies=            -422.970082
 Sum of electronic and thermal Free Energies=         -423.011500

                     E (Thermal)             CV                S
                      KCal/Mol        Cal/Mol-Kelvin    Cal/Mol-Kelvin
 Total                  104.863             33.067             87.172
 Electronic               0.000              0.000              0.000
 Translational            0.889              2.981             40.409
 Rotational               0.889              2.981             28.387
 Vibrational            103.086             27.105             18.376
 Vibration     1          0.618              1.902              2.661
 Vibration     2          0.628              1.872              2.369
 Vibration     3          0.634              1.851              2.211
 Vibration     4          0.655              1.787              1.840
 Vibration     5          0.675              1.725              1.586
 Vibration     6          0.716              1.606              1.236
 Vibration     7          0.768              1.465              0.953
 Vibration     8          0.802              1.377              0.818
 Vibration     9          0.815              1.347              0.776
 Vibration    10          0.880              1.194              0.598
 Vibration    11          0.908              1.134              0.539

 Normal termination of Gaussian 09 at Mon Jan 27 23:03:42 2020.
