 Gaussian 09, Revision D.01,
 Gaussian 09:  ES64L-G09RevD.01 24-Apr-2013

 -----------------------------
 # b3lyp 6-31G(2df,p) opt Freq
 -----------------------------

 -----
 titel
 -----
 Symbolic Z-matrix:
 Charge =  0 Multiplicity = 1

 SCF Done:  E(RB3LYP) =  -423.160748651     A.U. after   14 cycles
 Optimization completed.
    -- Stationary point found.
 Normal termination of Gaussian 09 at Mon Jan 27 11:29:11 2020.

 ----------------------------------------------------------------------
 #N Geom=AllCheck Guess=TCheck SCRF=Check GenChk RB3LYP/6-31G(2df,p) Fr
 eq
 ----------------------------------------------------------------------

 Structure from the checkpoint file:  "/scratch/puck/g09_f14a6209-eab7-4926-b3bd-ef6846771927/Gau-61245.chk"
 -----
 titel
 -----
 Charge =  0 Multiplicity = 1

                         Standard orientation:
 ---------------------------------------------------------------------
 Center     Atomic      Atomic             Coordinates (Angstroms)
 Number     Number       Type             X           Y           Z
 ---------------------------------------------------------------------
      1          6           0        1.957185    0.933838    0.281929
      2          6           0        2.029851   -0.629244    0.292849
      3          6           0        0.567105   -0.621525   -0.133827
      4          8           0       -0.153257   -1.606061   -0.846155
      5          6           0       -0.633753   -1.215398    0.452327
      6          6           0       -1.887330   -0.362589    0.493997
      7          8           0       -1.797027    0.818730   -0.281128
      8          6           0       -0.636476    1.590016    0.001515
      9          6           0        0.607254    0.859237   -0.502916
     10          1           0        1.827601    1.349999    1.284708
     11          1           0        2.780028    1.454507   -0.209432
     12          1           0        2.675087   -1.018339   -0.500250
     13          1           0        2.288557   -1.123506    1.232324
     14          1           0       -0.553393   -1.986459    1.218958
     15          1           0       -2.747170   -0.916576    0.103528
     16          1           0       -2.091649   -0.116303    1.551628
     17          1           0       -0.788269    2.555894   -0.487923
     18          1           0       -0.554834    1.768321    1.087805
     19          1           0        0.743297    1.005107   -1.578334
 ---------------------------------------------------------------------

 SCF Done:  E(RB3LYP) =  -423.160748651     A.U. after    1 cycles

 The electronic state is 1-A.
 Alpha  occ. eigenvalues --  -19.14759 -19.14143 -10.23702 -10.23389 -10.23284
 Alpha  occ. eigenvalues --  -10.22938 -10.19267 -10.18972 -10.18736  -1.07371
 Alpha  occ. eigenvalues --   -1.03009  -0.84576  -0.74880  -0.70745  -0.64886
 Alpha  occ. eigenvalues --   -0.62832  -0.59278  -0.53465  -0.50558  -0.49106
 Alpha  occ. eigenvalues --   -0.48498  -0.46611  -0.44820  -0.41452  -0.39876
 Alpha  occ. eigenvalues --   -0.37852  -0.36986  -0.35992  -0.34934  -0.32822
 Alpha  occ. eigenvalues --   -0.30051  -0.28376  -0.25937  -0.25318
 Alpha virt. eigenvalues --    0.07253   0.09183   0.09643   0.11574   0.12166
 Alpha virt. eigenvalues --    0.12890   0.14673   0.15100   0.15858   0.17251
 Alpha virt. eigenvalues --    0.17916   0.18324   0.20036   0.20587   0.21749

 Mulliken charges:
               1
     1  C   -0.251602
     2  C   -0.336543
     3  C    0.474742
     4  O   -0.294812
     5  C   -0.088134
     6  C   -0.103564
     7  O   -0.243398
     8  C   -0.104667
     9  C   -0.078006
    10  H    0.105586
    11  H    0.109178
    12  H    0.119054
    13  H    0.106989
    14  H    0.094848
    15  H    0.122118
    16  H    0.088407
    17  H    0.110909
    18  H    0.080864
    19  H    0.088032
 Sum of Mulliken charges =   0.00000

 Dipole moment (field-independent basis, Debye):
    X=              1.2348    Y=              0.7827    Z=              1.9730  Tot=              2.4556
 Quadrupole moment (field-independent basis, Debye-Ang):
   XX=            -52.8901   YY=            -53.8827   ZZ=            -53.1290
   XY=              2.3173   XZ=             -2.6562   YZ=             -3.0512

  Exact polarizability:  84.194   3.598  75.059  -2.916  -3.009  64.840
 Approx polarizability: 111.893   5.828 106.963  -2.859  -1.331 105.201

                      1                      2                      3
                      A                      A                      A
 Frequencies --    111.8404               207.4857               268.2280
 Red. masses --      2.1736                 2.4317                 4.4169
 Frc consts  --      0.0160                 0.0617                 0.1872
 IR Inten    --      0.6534                 0.2332                 2.6412

                      4                      5                      6
                      A                      A                      A
 Frequencies --    320.5967               365.9568               412.2211
 Red. masses --      2.5647                 2.1843                 3.4876
 Frc consts  --      0.1553                 0.1724                 0.3492
 IR Inten    --      2.9911                 2.5807                 5.4020

                      7                      8                      9
                      A                      A                      A
 Frequencies --    451.7719               513.6173               570.8192
 Red. masses --      5.5056                 3.3616                 4.3103
 Frc consts  --      0.6620                 0.5225                 0.8275
 IR Inten    --      2.6841                 5.2168                 4.0221

                     10                     11                     12
                      A                      A                      A
 Frequencies --    706.1552               718.3574               812.2946
 Red. masses --      1.9155                 3.0470                 2.2598
 Frc consts  --      0.5628                 0.9264                 0.8785
 IR Inten    --      8.6065                12.7181                 7.6788

                     13                     14                     15
                      A                      A                      A
 Frequencies --    827.9694               854.9413               918.5810
 Red. masses --      2.3339                 2.4999                 2.1514
 Frc consts  --      0.9427                 1.0766                 1.0696
 IR Inten    --      7.7017                22.9682                13.2138

                     16                     17                     18
                      A                      A                      A
 Frequencies --    921.5721               935.6675               977.7075
 Red. masses --      2.9040                 1.7368                 2.3418
 Frc consts  --      1.4531                 0.8958                 1.3189
 IR Inten    --      1.7582                 8.3434                 3.8155

                     19                     20                     21
                      A                      A                      A
 Frequencies --    995.2080              1016.5023              1080.9268
 Red. masses --      2.3354                 2.0733                 2.6324
 Frc consts  --      1.3628                 1.2622                 1.8121
 IR Inten    --      5.8565                 4.8936                 3.4201

                     22                     23                     24
                      A                      A                      A
 Frequencies --   1094.2229              1120.8349              1133.9491
 Red. masses --      1.9989                 2.2897                 3.2991
 Frc consts  --      1.4101                 1.6948                 2.4994
 IR Inten    --     22.4461                 8.2213                40.9027

                     25                     26                     27
                      A                      A                      A
 Frequencies --   1159.7885              1167.6275              1212.0245
 Red. masses --      2.8560                 1.9237                 1.3816
 Frc consts  --      2.2635                 1.5452                 1.1958
 IR Inten    --     22.0349                15.1976                 0.8271

                     28                     29                     30
                      A                      A                      A
 Frequencies --   1234.5820              1260.8066              1266.4269
 Red. masses --      1.2187                 1.4481                 1.3923
 Frc consts  --      1.0944                 1.3563                 1.3156
 IR Inten    --      6.6037                 4.8983                 9.4821

                     31                     32                     33
                      A                      A                      A
 Frequencies --   1269.1824              1311.3345              1320.6725
 Red. masses --      1.3109                 1.3242                 1.2489
 Frc consts  --      1.2441                 1.3416                 1.2834
 IR Inten    --     11.3909                 2.7163                 1.5912

                     34                     35                     36
                      A                      A                      A
 Frequencies --   1356.6023              1378.3103              1412.7472
 Red. masses --      1.5169                 1.3157                 1.3994
 Frc consts  --      1.6448                 1.4726                 1.6456
 IR Inten    --      0.8834                 0.7353                10.8673

                     37                     38                     39
                      A                      A                      A
 Frequencies --   1475.3525              1479.1473              1483.9597
 Red. masses --      1.0928                 1.1218                 1.3336
 Frc consts  --      1.4014                 1.4460                 1.7302
 IR Inten    --      2.5735                 2.2648                 4.8178

                     40                     41                     42
                      A                      A                      A
 Frequencies --   1497.1305              1517.8144              2949.1689
 Red. masses --      1.1628                 2.4265                 1.0708
 Frc consts  --      1.5356                 3.2936                 5.4875
 IR Inten    --      2.2616                28.7401                35.8796

                     43                     44                     45
                      A                      A                      A
 Frequencies --   2956.3008              3058.6224              3065.9510
 Red. masses --      1.0705                 1.0585                 1.0670
 Frc consts  --      5.5125                 5.8346                 5.9094
 IR Inten    --     72.5110                27.1240                20.4185

                     46                     47                     48
                      A                      A                      A
 Frequencies --   3068.7777              3075.6815              3089.7382
 Red. masses --      1.0789                 1.0903                 1.0931
 Frc consts  --      5.9864                 6.0771                 6.1482
 IR Inten    --     24.0549                25.8649                39.3999

                     49                     50                     51
                      A                      A                      A
 Frequencies --   3108.8713              3110.8834              3129.3546
 Red. masses --      1.1056                 1.0894                 1.1062
 Frc consts  --      6.2960                 6.2114                 6.3827
 IR Inten    --      7.1036                32.0108                36.6663

 - Thermochemistry -
 -------------------
 Temperature   298.150 Kelvin.  Pressure   1.00000 Atm.
 Atom     1 has atomic number  6 and mass  12.00000

 Molecular mass:   126.06808 amu.
 Principal axes and moments of inertia in atomic units:
                           1         2         3
     Eigenvalues --   666.445771000.318901420.39124
           X            0.99948   0.03023  -0.01088
           Y           -0.03049   0.99922  -0.02522
           Z            0.01011   0.02554   0.99962
 This molecule is an asymmetric top.
 Rotational symmetry number  1.
 Warning -- assumption of classical behavior for rotation
           may cause significant error
 Rotational temperatures (Kelvin)      0.12996     0.08659     0.06098
 Rotational constants (GHZ):           2.70801     1.80417     1.27059
 Zero-point vibrational energy     423204.6 (Joules/Mol)
                                  101.14833 (Kcal/Mol)
 Warning -- explicit consideration of   9 degrees of freedom as
           vibrations may cause significant error
 Vibrational temperatures:    160.91   298.53   385.92   461.27   526.53
          (Kelvin)            593.09   650.00   738.98   821.28  1016.00
                             1033.55  1168.71  1191.26  1230.07  1321.63
                             1325.94  1346.22  1406.70  1431.88  1462.52
                             1555.21  1574.34  1612.63  1631.50  1668.67
                             1679.95  1743.83  1776.29  1814.02  1822.10
                             1826.07  1886.72  1900.15  1951.85  1983.08
                             2032.63  2122.70  2128.16  2135.08  2154.03
                             2183.79  4243.19  4253.45  4400.67  4411.21
                             4415.28  4425.21  4445.44  4472.97  4475.86
                             4502.44

 Zero-point correction=                           0.161190 (Hartree/Particle)
 Thermal correction to Energy=                    0.168396
 Thermal correction to Enthalpy=                  0.169340
 Thermal correction to Gibbs Free Energy=         0.129725
 Sum of electronic and zero-point Energies=           -422.999559
 Sum of electronic and thermal Energies=              -422.992353
 Sum of electronic and thermal Enthalpies=            -422.991409
 Sum of electronic and thermal Free Energies=         -423.031023

                     E (Thermal)             CV                S
                      KCal/Mol        Cal/Mol-Kelvin    Cal/Mol-Kelvin
 Total                  105.670             29.152             83.376
 Electronic               0.000              0.000              0.000
 Translational            0.889              2.981             40.409
 Rotational               0.889              2.981             28.339
 Vibrational            103.893             23.190             14.628
 Vibration     1          0.607              1.940              3.237
 Vibration     2          0.641              1.829              2.066
 Vibration     3          0.673              1.732              1.608
 Vibration     4          0.706              1.634              1.307
 Vibration     5          0.739              1.542              1.097
 Vibration     6          0.776              1.444              0.919
 Vibration     7          0.810              1.357              0.790
 Vibration     8          0.869              1.220              0.625
 Vibration     9          0.927              1.094              0.503

 Normal termination of Gaussian 09 at Mon Jan 27 13:46:28 2020.
