 Gaussian 09, Revision D.01,
 Gaussian 09:  ES64L-G09RevD.01 24-Apr-2013

 -----------------------------
 # b3lyp 6-31G(2df,p) opt Freq
 -----------------------------

 -----
 titel
 -----
 Symbolic Z-matrix:
 Charge =  0 Multiplicity = 1

 SCF Done:  E(RB3LYP) =  -423.129034532     A.U. after   14 cycles
 Optimization completed.
    -- Stationary point found.
 Normal termination of Gaussian 09 at Mon Jan 27 14:16:04 2020.

 ----------------------------------------------------------------------
 #N Geom=AllCheck Guess=TCheck SCRF=Check GenChk RB3LYP/6-31G(2df,p) Fr
 eq
 ----------------------------------------------------------------------

 Structure from the checkpoint file:  "/scratch/puck/g09_a7d177ac-e98b-49f3-a2ba-21a8ad0dbb03/Gau-78471.chk"
 -----
 titel
 -----
 Charge =  0 Multiplicity = 1

                         Standard orientation:
 ---------------------------------------------------------------------
 Center     Atomic      Atomic             Coordinates (Angstroms)
 Number     Number       Type             X           Y           Z
 ---------------------------------------------------------------------
      1          6           0       -2.401714    1.275504   -0.508764
      2          6           0       -1.751717   -0.017114    0.003071
      3          6           0       -2.051422   -1.197970   -0.939444
      4          8           0       -2.341604   -0.251297    1.287173
      5          6           0       -0.295339    0.154485    0.137369
      6          6           0        0.899680    0.255108    0.261230
      7          6           0        2.317754    0.405075    0.441634
      8          6           0        3.263557    0.275221   -0.685227
      9          8           0        3.139364   -0.764455    0.274740
     10          1           0       -2.190975    2.098311    0.177525
     11          1           0       -2.022181    1.533289   -1.500207
     12          1           0       -3.484793    1.134885   -0.564859
     13          1           0       -1.599196   -2.118498   -0.557869
     14          1           0       -3.133787   -1.339331   -1.005562
     15          1           0       -1.651580   -1.015243   -1.940858
     16          1           0       -1.872955   -0.988859    1.693136
     17          1           0        2.619018    1.032411    1.279906
     18          1           0        2.872594    0.050850   -1.675785
     19          1           0        4.196993    0.836343   -0.659930
 ---------------------------------------------------------------------

 SCF Done:  E(RB3LYP) =  -423.129034532     A.U. after    1 cycles

 The electronic state is 1-A.
 Alpha  occ. eigenvalues --  -19.16038 -19.13854 -10.26396 -10.26312 -10.24465
 Alpha  occ. eigenvalues --  -10.18436 -10.18187 -10.18157 -10.17916  -1.08036
 Alpha  occ. eigenvalues --   -1.02354  -0.80004  -0.75674  -0.69655  -0.68676
 Alpha  occ. eigenvalues --   -0.65410  -0.60407  -0.54347  -0.52541  -0.49708
 Alpha  occ. eigenvalues --   -0.46050  -0.44370  -0.41708  -0.40808  -0.39965
 Alpha  occ. eigenvalues --   -0.38938  -0.38261  -0.36496  -0.34559  -0.34205
 Alpha  occ. eigenvalues --   -0.28514  -0.28172  -0.26803  -0.25347
 Alpha virt. eigenvalues --    0.01719   0.03473   0.07728   0.10647   0.11786
 Alpha virt. eigenvalues --    0.13557   0.13799   0.14369   0.15145   0.15981
 Alpha virt. eigenvalues --    0.16836   0.17758   0.19344   0.19921   0.20766

 Mulliken charges:
               1
     1  C   -0.383955
     2  C    0.163612
     3  C   -0.399742
     4  O   -0.439613
     5  C    0.169356
     6  C   -0.003362
     7  C   -0.119387
     8  C   -0.159181
     9  O   -0.214991
    10  H    0.131970
    11  H    0.120852
    12  H    0.124083
    13  H    0.117951
    14  H    0.123627
    15  H    0.122979
    16  H    0.282399
    17  H    0.119070
    18  H    0.123880
    19  H    0.120453
 Sum of Mulliken charges =   0.00000

 Dipole moment (field-independent basis, Debye):
    X=              0.2477    Y=              0.7266    Z=             -1.2266  Tot=              1.4470
 Quadrupole moment (field-independent basis, Debye-Ang):
   XX=            -54.0039   YY=            -52.6779   ZZ=            -51.5018
   XY=              6.7503   XZ=              0.6513   YZ=             -0.9910

  Exact polarizability: 116.364   2.865  64.391  -1.099   0.320  67.533
 Approx polarizability: 161.870   1.466  93.544  -2.497  -1.623  99.435

                      1                      2                      3
                      A                      A                      A
 Frequencies --     11.6779                78.9551                85.5306
 Red. masses --      3.4956                 4.0827                 3.5705
 Frc consts  --      0.0003                 0.0150                 0.0154
 IR Inten    --      3.3813                 1.2968                 2.0314

                      4                      5                      6
                      A                      A                      A
 Frequencies --    189.8640               202.5289               215.5169
 Red. masses --      3.3046                 2.5825                 1.2046
 Frc consts  --      0.0702                 0.0624                 0.0330
 IR Inten    --      1.7729                 2.5430                 1.9038

                      7                      8                      9
                      A                      A                      A
 Frequencies --    266.5456               296.7239               325.0955
 Red. masses --      1.1312                 1.1644                 2.8312
 Frc consts  --      0.0474                 0.0604                 0.1763
 IR Inten    --      1.1514                95.6672                 6.5126

                     10                     11                     12
                      A                      A                      A
 Frequencies --    360.2189               391.4325               495.2677
 Red. masses --      2.8052                 3.3194                 4.4245
 Frc consts  --      0.2145                 0.2997                 0.6394
 IR Inten    --     10.3732                 4.0898                 5.5053

                     13                     14                     15
                      A                      A                      A
 Frequencies --    513.4983               564.5595               583.2477
 Red. masses --      4.2172                 4.9968                 6.3277
 Frc consts  --      0.6552                 0.9383                 1.2682
 IR Inten    --     17.2853                 4.4604                 9.0070

                     16                     17                     18
                      A                      A                      A
 Frequencies --    660.7526               815.1472               838.8676
 Red. masses --      3.2180                 3.7496                 4.3040
 Frc consts  --      0.8278                 1.4679                 1.7845
 IR Inten    --      0.8937                11.0056                24.1747

                     19                     20                     21
                      A                      A                      A
 Frequencies --    894.4639               930.4077               956.1199
 Red. masses --      2.6444                 1.5494                 2.6255
 Frc consts  --      1.2465                 0.7903                 1.4141
 IR Inten    --     16.1860                 0.1251                60.7452

                     22                     23                     24
                      A                      A                      A
 Frequencies --    982.6215              1017.1971              1075.9554
 Red. masses --      1.9589                 1.3075                 1.3211
 Frc consts  --      1.1144                 0.7971                 0.9011
 IR Inten    --     13.7198                 0.3391                 1.0078

                     25                     26                     27
                      A                      A                      A
 Frequencies --   1112.1590              1125.0014              1156.3044
 Red. masses --      1.7361                 1.9464                 1.3483
 Frc consts  --      1.2652                 1.4514                 1.0621
 IR Inten    --      9.7387                27.7897                 2.1346

                     28                     29                     30
                      A                      A                      A
 Frequencies --   1167.0531              1192.9228              1245.7119
 Red. masses --      1.3695                 2.5697                 2.9205
 Frc consts  --      1.0990                 2.1545                 2.6702
 IR Inten    --      1.0637                57.9686                63.7934

                     31                     32                     33
                      A                      A                      A
 Frequencies --   1285.2495              1365.5401              1391.4817
 Red. masses --      1.6761                 1.4930                 1.2916
 Frc consts  --      1.6312                 1.6403                 1.4734
 IR Inten    --      5.6699                80.5875                12.4495

                     34                     35                     36
                      A                      A                      A
 Frequencies --   1403.9696              1411.8782              1474.9830
 Red. masses --      1.9206                 1.2464                 1.0499
 Frc consts  --      2.2305                 1.4638                 1.3458
 IR Inten    --     61.2062                 4.7264                 1.3892

                     37                     38                     39
                      A                      A                      A
 Frequencies --   1478.8687              1492.6830              1503.3201
 Red. masses --      1.0485                 1.0664                 1.0583
 Frc consts  --      1.3511                 1.4000                 1.4091
 IR Inten    --      0.9010                 4.8331                 0.6145

                     40                     41                     42
                      A                      A                      A
 Frequencies --   1518.4270              2353.3686              3039.2191
 Red. masses --      1.2353                11.9208                 1.0337
 Frc consts  --      1.6781                38.8987                 5.6258
 IR Inten    --      1.6364                 1.9905                14.4137

                     43                     44                     45
                      A                      A                      A
 Frequencies --   3051.3514              3085.0551              3114.4757
 Red. masses --      1.0342                 1.0498                 1.1018
 Frc consts  --      5.6735                 5.8870                 6.2971
 IR Inten    --     13.1872                27.7496                21.5975

                     46                     47                     48
                      A                      A                      A
 Frequencies --   3115.2626              3123.3299              3130.3543
 Red. masses --      1.0868                 1.1031                 1.1020
 Frc consts  --      6.2140                 6.3404                 6.3623
 IR Inten    --     17.2563                 5.5403                32.0008

                     49                     50                     51
                      A                      A                      A
 Frequencies --   3139.2039              3178.5723              3806.9518
 Red. masses --      1.1030                 1.1200                 1.0662
 Frc consts  --      6.4041                 6.6669                 9.1041
 IR Inten    --     16.9521                23.7661                17.7092

 - Thermochemistry -
 -------------------
 Temperature   298.150 Kelvin.  Pressure   1.00000 Atm.
 Atom     1 has atomic number  6 and mass  12.00000

 Molecular mass:   126.06808 amu.
 Principal axes and moments of inertia in atomic units:
                           1         2         3
     Eigenvalues --   482.098572653.934372667.93692
           X            0.99993   0.00724   0.00964
           Y           -0.00937   0.96970   0.24411
           Z           -0.00758  -0.24418   0.96970
 This molecule is an asymmetric top.
 Rotational symmetry number  1.
 Warning -- assumption of classical behavior for rotation
           may cause significant error
 Rotational temperatures (Kelvin)      0.17966     0.03264     0.03246
 Rotational constants (GHZ):           3.74351     0.68002     0.67646
 Zero-point vibrational energy     408015.7 (Joules/Mol)
                                   97.51809 (Kcal/Mol)
 Warning -- explicit consideration of  15 degrees of freedom as
           vibrations may cause significant error
 Vibrational temperatures:     16.80   113.60   123.06   273.17   291.39
          (Kelvin)            310.08   383.50   426.92   467.74   518.27
                              563.18   712.58   738.81   812.27   839.16
                              950.67  1172.81  1206.94  1286.93  1338.65
                             1375.64  1413.77  1463.52  1548.06  1600.15
                             1618.62  1663.66  1679.13  1716.35  1792.30
                             1849.19  1964.71  2002.03  2020.00  2031.38
                             2122.17  2127.76  2147.64  2162.94  2184.68
                             3385.97  4372.75  4390.21  4438.70  4481.03
                             4482.16  4493.77  4503.88  4516.61  4573.25
                             5477.35

 Zero-point correction=                           0.155405 (Hartree/Particle)
 Thermal correction to Energy=                    0.165806
 Thermal correction to Enthalpy=                  0.166750
 Thermal correction to Gibbs Free Energy=         0.118145
 Sum of electronic and zero-point Energies=           -422.973630
 Sum of electronic and thermal Energies=              -422.963229
 Sum of electronic and thermal Enthalpies=            -422.962284
 Sum of electronic and thermal Free Energies=         -423.010889

                     E (Thermal)             CV                S
                      KCal/Mol        Cal/Mol-Kelvin    Cal/Mol-Kelvin
 Total                  104.045             37.045            102.298
 Electronic               0.000              0.000              0.000
 Translational            0.889              2.981             40.409
 Rotational               0.889              2.981             29.614
 Vibrational            102.267             31.083             32.276
 Vibration     1          0.593              1.987              7.703
 Vibration     2          0.600              1.963              3.917
 Vibration     3          0.601              1.959              3.760
 Vibration     4          0.633              1.854              2.229
 Vibration     5          0.639              1.836              2.110
 Vibration     6          0.645              1.817              1.996
 Vibration     7          0.672              1.734              1.619
 Vibration     8          0.690              1.680              1.435
 Vibration     9          0.709              1.625              1.284
 Vibration    10          0.735              1.554              1.121
 Vibration    11          0.759              1.488              0.995
 Vibration    12          0.851              1.261              0.670
 Vibration    13          0.869              1.220              0.625
 Vibration    14          0.920              1.108              0.515
 Vibration    15          0.940              1.068              0.479

 Optimization completed.
    -- Stationary point found.
 Normal termination of Gaussian 09 at Mon Jan 27 14:52:18 2020.
