 Gaussian 09, Revision D.01,
 Gaussian 09:  ES64L-G09RevD.01 24-Apr-2013

 -----------------------------
 # b3lyp 6-31G(2df,p) opt Freq
 -----------------------------

 -----
 titel
 -----
 Symbolic Z-matrix:
 Charge =  0 Multiplicity = 1

 SCF Done:  E(RB3LYP) =  -423.169016919     A.U. after   14 cycles
 Optimization completed.
    -- Stationary point found.
 Normal termination of Gaussian 09 at Mon Jan 27 23:06:55 2020.

 ----------------------------------------------------------------------
 #N Geom=AllCheck Guess=TCheck SCRF=Check GenChk RB3LYP/6-31G(2df,p) Fr
 eq
 ----------------------------------------------------------------------

 Structure from the checkpoint file:  "/scratch/puck/g09_ae082886-a944-4073-95e4-14e22d200f41/Gau-79623.chk"
 -----
 titel
 -----
 Charge =  0 Multiplicity = 1

                         Standard orientation:
 ---------------------------------------------------------------------
 Center     Atomic      Atomic             Coordinates (Angstroms)
 Number     Number       Type             X           Y           Z
 ---------------------------------------------------------------------
      1          6           0       -2.425659   -1.003449    0.218550
      2          6           0       -1.259999   -0.381060   -0.566568
      3          6           0       -1.270803    1.135261   -0.488541
      4          6           0       -0.226544    1.770797    0.044057
      5          6           0        0.912116    0.902720    0.519280
      6          8           0        0.363535   -0.242160    1.260262
      7          6           0        0.101366   -0.867072   -0.038658
      8          6           0        1.312249   -0.088360   -0.610146
      9          8           0        2.541568   -0.737409   -0.423079
     10          1           0       -2.454604   -2.089835    0.082589
     11          1           0       -2.311096   -0.790159    1.284885
     12          1           0       -3.386592   -0.596704   -0.112199
     13          1           0       -1.345474   -0.686945   -1.619952
     14          1           0       -2.151212    1.663055   -0.845076
     15          1           0       -0.163755    2.850933    0.120177
     16          1           0        1.699151    1.418478    1.073119
     17          1           0        0.182622   -1.958259    0.003526
     18          1           0        1.280893    0.268283   -1.640991
     19          1           0        2.552883   -1.055322    0.488607
 ---------------------------------------------------------------------

 SCF Done:  E(RB3LYP) =  -423.169016919     A.U. after    1 cycles

 The electronic state is 1-A.
 Alpha  occ. eigenvalues --  -19.14095 -19.13722 -10.23654 -10.23546 -10.23328
 Alpha  occ. eigenvalues --  -10.19792 -10.18841 -10.18474 -10.17653  -1.05530
 Alpha  occ. eigenvalues --   -1.01011  -0.81840  -0.76354  -0.71658  -0.67769
 Alpha  occ. eigenvalues --   -0.60172  -0.59924  -0.54539  -0.52055  -0.47610
 Alpha  occ. eigenvalues --   -0.44953  -0.44771  -0.43035  -0.41905  -0.40777
 Alpha  occ. eigenvalues --   -0.38431  -0.37721  -0.36008  -0.35335  -0.33295
 Alpha  occ. eigenvalues --   -0.30838  -0.27540  -0.25164  -0.23806
 Alpha virt. eigenvalues --   -0.00062   0.08411   0.09804   0.11487   0.12265
 Alpha virt. eigenvalues --    0.13074   0.14365   0.15634   0.15898   0.16758
 Alpha virt. eigenvalues --    0.17463   0.18322   0.18740   0.21072   0.21688

 Mulliken charges:
               1
     1  C   -0.400576
     2  C   -0.029754
     3  C   -0.082619
     4  C   -0.057822
     5  C   -0.023510
     6  O   -0.317613
     7  C    0.022253
     8  C    0.176486
     9  O   -0.456960
    10  H    0.111998
    11  H    0.138160
    12  H    0.112640
    13  H    0.084114
    14  H    0.095705
    15  H    0.096202
    16  H    0.078168
    17  H    0.073695
    18  H    0.091662
    19  H    0.287772
 Sum of Mulliken charges =   0.00000

 Dipole moment (field-independent basis, Debye):
    X=             -1.0526    Y=              0.4087    Z=             -0.5632  Tot=              1.2618
 Quadrupole moment (field-independent basis, Debye-Ang):
   XX=            -55.0094   YY=            -49.8397   ZZ=            -55.3763
   XY=              1.1680   XZ=              4.4687   YZ=             -0.2827

  Exact polarizability:  87.265   3.805  78.320   6.256   1.627  61.033
 Approx polarizability: 122.638   7.853 114.300  12.495   4.263 101.378

                      1                      2                      3
                      A                      A                      A
 Frequencies --    144.9455               182.5048               233.0689
 Red. masses --      3.2493                 3.3485                 1.1061
 Frc consts  --      0.0402                 0.0657                 0.0354
 IR Inten    --      0.1238                 4.1356                 1.9267

                      4                      5                      6
                      A                      A                      A
 Frequencies --    257.2981               331.0126               371.7598
 Red. masses --      3.1281                 3.5394                 2.6818
 Frc consts  --      0.1220                 0.2285                 0.2184
 IR Inten    --      3.8983                 2.7081                 2.8084

                      7                      8                      9
                      A                      A                      A
 Frequencies --    398.9188               467.4101               494.0414
 Red. masses --      3.4537                 1.1916                 5.3294
 Frc consts  --      0.3238                 0.1534                 0.7664
 IR Inten    --      4.3153                81.2274                 1.8352

                     10                     11                     12
                      A                      A                      A
 Frequencies --    542.3180               604.3788               734.6343
 Red. masses --      3.6449                 3.8176                 1.6683
 Frc consts  --      0.6316                 0.8216                 0.5305
 IR Inten    --      2.6017                 0.1514                22.7969

                     13                     14                     15
                      A                      A                      A
 Frequencies --    758.8347               846.6454               867.9542
 Red. masses --      2.9285                 2.8082                 2.5412
 Frc consts  --      0.9936                 1.1860                 1.1279
 IR Inten    --      0.1531                11.7239                19.5687

                     16                     17                     18
                      A                      A                      A
 Frequencies --    903.3982               929.2854               941.3147
 Red. masses --      4.0408                 3.5430                 2.4071
 Frc consts  --      1.9430                 1.8027                 1.2566
 IR Inten    --     40.1674                37.2254                11.0373

                     19                     20                     21
                      A                      A                      A
 Frequencies --    942.8119               977.9731               988.6781
 Red. masses --      2.5079                 1.2595                 2.3413
 Frc consts  --      1.3135                 0.7097                 1.3484
 IR Inten    --     15.4529                 0.3176                 5.9367

                     22                     23                     24
                      A                      A                      A
 Frequencies --   1011.7774              1063.4769              1083.5945
 Red. masses --      2.2358                 2.3807                 2.1883
 Frc consts  --      1.3485                 1.5864                 1.5139
 IR Inten    --     10.3934                18.6843                 1.9008

                     25                     26                     27
                      A                      A                      A
 Frequencies --   1118.4536              1126.6914              1158.1215
 Red. masses --      1.5254                 2.9663                 1.1371
 Frc consts  --      1.1243                 2.2186                 0.8985
 IR Inten    --     24.7308                75.5666                15.4883

                     28                     29                     30
                      A                      A                      A
 Frequencies --   1191.0603              1222.9626              1242.3649
 Red. masses --      1.4285                 1.4284                 1.4080
 Frc consts  --      1.1940                 1.2587                 1.2804
 IR Inten    --      4.6762                 1.7956                12.5717

                     31                     32                     33
                      A                      A                      A
 Frequencies --   1286.1433              1309.3873              1320.1545
 Red. masses --      1.4235                 1.5011                 1.3583
 Frc consts  --      1.3874                 1.5163                 1.3948
 IR Inten    --      3.7312                 0.9948                 6.2792

                     34                     35                     36
                      A                      A                      A
 Frequencies --   1343.2548              1357.7854              1388.5452
 Red. masses --      1.7546                 1.4587                 1.4869
 Frc consts  --      1.8653                 1.5845                 1.6890
 IR Inten    --      1.5696                 9.3753                 0.8814

                     37                     38                     39
                      A                      A                      A
 Frequencies --   1405.7511              1435.0219              1491.6724
 Red. masses --      1.2953                 1.3247                 1.0438
 Frc consts  --      1.5081                 1.6072                 1.3684
 IR Inten    --      8.5113                81.4585                 4.4692

                     40                     41                     42
                      A                      A                      A
 Frequencies --   1505.3229              1692.5139              2996.4857
 Red. masses --      1.0560                 6.5669                 1.0817
 Frc consts  --      1.4099                11.0835                 5.7222
 IR Inten    --      3.5596                 2.9452                22.1853

                     43                     44                     45
                      A                      A                      A
 Frequencies --   3033.7823              3060.4881              3096.6849
 Red. masses --      1.0353                 1.0876                 1.0883
 Frc consts  --      5.6143                 6.0022                 6.1489
 IR Inten    --     27.3035                46.9479                42.3132

                     46                     47                     48
                      A                      A                      A
 Frequencies --   3100.8476              3105.6724              3121.1469
 Red. masses --      1.1015                 1.0893                 1.1015
 Frc consts  --      6.2399                 6.1900                 6.3224
 IR Inten    --     26.7494                25.1467                16.7707

                     49                     50                     51
                      A                      A                      A
 Frequencies --   3161.0864              3192.0926              3779.5088
 Red. masses --      1.0860                 1.0990                 1.0650
 Frc consts  --      6.3936                 6.5977                 8.9633
 IR Inten    --     10.0354                21.3720                23.4231

 - Thermochemistry -
 -------------------
 Temperature   298.150 Kelvin.  Pressure   1.00000 Atm.
 Atom     1 has atomic number  6 and mass  12.00000

 Molecular mass:   126.06808 amu.
 Principal axes and moments of inertia in atomic units:
                           1         2         3
     Eigenvalues --   612.924631210.277261448.63773
           X            0.99940   0.03329   0.00921
           Y           -0.03323   0.99943  -0.00668
           Z           -0.00943   0.00637   0.99994
 This molecule is an asymmetric top.
 Rotational symmetry number  1.
 Warning -- assumption of classical behavior for rotation
           may cause significant error
 Rotational temperatures (Kelvin)      0.14131     0.07157     0.05979
 Rotational constants (GHZ):           2.94447     1.49118     1.24582
 Zero-point vibrational energy     420613.2 (Joules/Mol)
                                  100.52897 (Kcal/Mol)
 Warning -- explicit consideration of  11 degrees of freedom as
           vibrations may cause significant error
 Vibrational temperatures:    208.54   262.58   335.33   370.19   476.25
          (Kelvin)            534.88   573.95   672.50   710.81   780.27
                              869.57  1056.97  1091.79  1218.13  1248.79
                             1299.79  1337.03  1354.34  1356.49  1407.08
                             1422.49  1455.72  1530.10  1559.05  1609.20
                             1621.06  1666.28  1713.67  1759.57  1787.48
                             1850.47  1883.91  1899.41  1932.64  1953.55
                             1997.80  2022.56  2064.67  2146.18  2165.82
                             2435.15  4311.27  4364.93  4403.35  4455.43
                             4461.42  4468.36  4490.63  4548.09  4592.70
                             5437.86

 Zero-point correction=                           0.160203 (Hartree/Particle)
 Thermal correction to Energy=                    0.168002
 Thermal correction to Enthalpy=                  0.168946
 Thermal correction to Gibbs Free Energy=         0.128362
 Sum of electronic and zero-point Energies=           -423.008814
 Sum of electronic and thermal Energies=              -423.001015
 Sum of electronic and thermal Enthalpies=            -423.000071
 Sum of electronic and thermal Free Energies=         -423.040655

                     E (Thermal)             CV                S
                      KCal/Mol        Cal/Mol-Kelvin    Cal/Mol-Kelvin
 Total                  105.423             31.393             85.416
 Electronic               0.000              0.000              0.000
 Translational            0.889              2.981             40.409
 Rotational               0.889              2.981             28.465
 Vibrational            103.645             25.432             16.542
 Vibration     1          0.616              1.908              2.738
 Vibration     2          0.630              1.864              2.303
 Vibration     3          0.654              1.790              1.855
 Vibration     4          0.667              1.750              1.680
 Vibration     5          0.713              1.614              1.255
 Vibration     6          0.743              1.530              1.073
 Vibration     7          0.765              1.472              0.967
 Vibration     8          0.825              1.322              0.745
 Vibration     9          0.850              1.263              0.673
 Vibration    10          0.897              1.157              0.560
 Vibration    11          0.963              1.023              0.442

 Optimization completed.
    -- Stationary point found.
 Normal termination of Gaussian 09 at Mon Jan 27 23:52:08 2020.
