 Gaussian 09, Revision D.01,
 Gaussian 09:  ES64L-G09RevD.01 24-Apr-2013

 -----------------------------
 # b3lyp 6-31G(2df,p) opt Freq
 -----------------------------

 -----
 titel
 -----
 Symbolic Z-matrix:
 Charge =  0 Multiplicity = 1

 SCF Done:  E(RB3LYP) =  -423.198749922     A.U. after   14 cycles
 Optimization completed.
    -- Stationary point found.
 Normal termination of Gaussian 09 at Tue Jan 28 00:41:38 2020.

 ----------------------------------------------------------------------
 #N Geom=AllCheck Guess=TCheck SCRF=Check GenChk RB3LYP/6-31G(2df,p) Fr
 eq
 ----------------------------------------------------------------------

 Structure from the checkpoint file:  "/scratch/puck/g09_33eb028c-575e-4aac-be46-355b4826823b/Gau-36884.chk"
 -----
 titel
 -----
 Charge =  0 Multiplicity = 1

                         Standard orientation:
 ---------------------------------------------------------------------
 Center     Atomic      Atomic             Coordinates (Angstroms)
 Number     Number       Type             X           Y           Z
 ---------------------------------------------------------------------
      1          6           0        0.938847    2.021171    0.295520
      2          6           0        0.112391    0.920426   -0.387224
      3          6           0       -1.366823    1.210739   -0.294924
      4          6           0       -2.269395    0.288921    0.026686
      5          6           0       -1.887589   -1.145568    0.250431
      6          8           0       -0.568716   -1.431927   -0.175142
      7          6           0        0.384209   -0.469596    0.236587
      8          6           0        1.733396   -1.039590   -0.177789
      9          8           0        2.796999   -0.530455    0.063611
     10          1           0        0.762410    2.985813   -0.190954
     11          1           0        0.654517    2.120818    1.349056
     12          1           0        2.005696    1.794902    0.249916
     13          1           0        0.401615    0.882408   -1.448215
     14          1           0       -1.669885    2.239340   -0.477627
     15          1           0       -3.321228    0.539139    0.134218
     16          1           0       -2.015678   -1.414784    1.315109
     17          1           0       -2.540190   -1.813339   -0.324082
     18          1           0        0.380746   -0.363161    1.336006
     19          1           0        1.645511   -1.991099   -0.746903
 ---------------------------------------------------------------------

 SCF Done:  E(RB3LYP) =  -423.198749922     A.U. after    1 cycles

 The electronic state is 1-A.
 Alpha  occ. eigenvalues --  -19.15198 -19.14615 -10.27296 -10.24392 -10.24074
 Alpha  occ. eigenvalues --  -10.20306 -10.19005 -10.18903 -10.17709  -1.05725
 Alpha  occ. eigenvalues --   -1.04488  -0.81940  -0.78817  -0.71184  -0.66606
 Alpha  occ. eigenvalues --   -0.62277  -0.58309  -0.54026  -0.50407  -0.49934
 Alpha  occ. eigenvalues --   -0.45952  -0.45056  -0.44162  -0.42834  -0.40959
 Alpha  occ. eigenvalues --   -0.40061  -0.38409  -0.37536  -0.36216  -0.34722
 Alpha  occ. eigenvalues --   -0.32363  -0.26664  -0.25471  -0.25134
 Alpha virt. eigenvalues --   -0.02878   0.01339   0.09112   0.10914   0.12231
 Alpha virt. eigenvalues --    0.12750   0.13991   0.14917   0.15512   0.16272
 Alpha virt. eigenvalues --    0.17438   0.18264   0.19232   0.21467   0.23435

 Mulliken charges:
               1
     1  C   -0.410103
     2  C   -0.043082
     3  C   -0.055636
     4  C   -0.092499
     5  C   -0.123275
     6  O   -0.269647
     7  C    0.023946
     8  C    0.142904
     9  O   -0.249092
    10  H    0.113253
    11  H    0.116963
    12  H    0.150963
    13  H    0.092668
    14  H    0.092307
    15  H    0.096353
    16  H    0.101874
    17  H    0.121936
    18  H    0.093025
    19  H    0.097140
 Sum of Mulliken charges =   0.00000

 Dipole moment (field-independent basis, Debye):
    X=             -2.6054    Y=              0.4684    Z=              0.2094  Tot=              2.6554
 Quadrupole moment (field-independent basis, Debye-Ang):
   XX=            -58.1272   YY=            -52.2019   ZZ=            -52.8456
   XY=              0.7323   XZ=             -1.5139   YZ=             -1.1399

  Exact polarizability:  92.887   7.180  82.991  -2.393  -1.048  57.307
 Approx polarizability: 130.913  16.946 119.713  -4.006  -2.438  91.608

                      1                      2                      3
                      A                      A                      A
 Frequencies --     42.4951                95.3013               171.8394
 Red. masses --      3.2284                 2.6146                 2.9834
 Frc consts  --      0.0034                 0.0140                 0.0519
 IR Inten    --      8.2798                 2.2852                 3.4288

                      4                      5                      6
                      A                      A                      A
 Frequencies --    206.6012               242.0998               296.4887
 Red. masses --      4.6364                 1.0579                 2.2876
 Frc consts  --      0.1166                 0.0365                 0.1185
 IR Inten    --      3.2485                 0.4087                 1.5341

                      7                      8                      9
                      A                      A                      A
 Frequencies --    328.5118               391.2364               421.6864
 Red. masses --      2.6799                 4.7698                 3.9264
 Frc consts  --      0.1704                 0.4302                 0.4114
 IR Inten    --      1.2492                 0.6189                 1.8977

                     10                     11                     12
                      A                      A                      A
 Frequencies --    489.7611               540.8313               584.3316
 Red. masses --      3.4253                 3.8008                 3.9993
 Frc consts  --      0.4841                 0.6550                 0.8045
 IR Inten    --      3.8029                 3.1782                23.1460

                     13                     14                     15
                      A                      A                      A
 Frequencies --    700.6314               807.1248               816.9890
 Red. masses --      1.4706                 2.5132                 3.4357
 Frc consts  --      0.4253                 0.9646                 1.3511
 IR Inten    --     18.9733                 5.4498                25.6606

                     16                     17                     18
                      A                      A                      A
 Frequencies --    915.9407               930.5403               963.4149
 Red. masses --      2.8635                 2.0526                 1.4314
 Frc consts  --      1.4154                 1.0472                 0.7828
 IR Inten    --      1.9914                 0.7673                 3.9570

                     19                     20                     21
                      A                      A                      A
 Frequencies --    995.5834              1023.4545              1030.9853
 Red. masses --      1.2220                 2.4354                 2.1417
 Frc consts  --      0.7136                 1.5030                 1.3413
 IR Inten    --      1.5192                 2.7564                26.7683

                     22                     23                     24
                      A                      A                      A
 Frequencies --   1080.1863              1102.5991              1107.4581
 Red. masses --      2.4778                 2.7301                 2.0446
 Frc consts  --      1.7034                 1.9555                 1.4775
 IR Inten    --      5.5337                 6.3011                19.0857

                     25                     26                     27
                      A                      A                      A
 Frequencies --   1129.6093              1169.4660              1215.2484
 Red. masses --      2.3476                 2.5777                 1.2965
 Frc consts  --      1.7650                 2.0771                 1.1281
 IR Inten    --     50.4309                42.4840                14.7286

                     28                     29                     30
                      A                      A                      A
 Frequencies --   1260.8903              1273.2671              1311.8995
 Red. masses --      1.1238                 1.4550                 1.3421
 Frc consts  --      1.0527                 1.3898                 1.3610
 IR Inten    --     11.6449                 0.5193                 4.1864

                     31                     32                     33
                      A                      A                      A
 Frequencies --   1341.5735              1361.5076              1387.8863
 Red. masses --      1.2240                 1.4963                 1.2888
 Frc consts  --      1.2980                 1.6342                 1.4627
 IR Inten    --      4.4384                 9.4900                 1.3244

                     34                     35                     36
                      A                      A                      A
 Frequencies --   1404.4491              1409.0667              1419.9214
 Red. masses --      1.3501                 1.3737                 1.3663
 Frc consts  --      1.5690                 1.6069                 1.6230
 IR Inten    --      5.3401                 6.5124                 8.3060

                     37                     38                     39
                      A                      A                      A
 Frequencies --   1489.0571              1496.0925              1505.3609
 Red. masses --      1.0901                 1.0511                 1.0502
 Frc consts  --      1.4242                 1.3861                 1.4022
 IR Inten    --      1.8486                 4.8925                 4.5002

                     40                     41                     42
                      A                      A                      A
 Frequencies --   1727.5867              1836.1144              2899.6858
 Red. masses --      7.0842                10.7304                 1.0844
 Frc consts  --     12.4573                21.3139                 5.3720
 IR Inten    --      3.3523               135.8062                88.1120

                     43                     44                     45
                      A                      A                      A
 Frequencies --   2938.0476              2950.9960              2992.1002
 Red. masses --      1.0729                 1.0799                 1.0822
 Frc consts  --      5.4567                 5.5407                 5.7081
 IR Inten    --     60.4219                26.9361                24.9543

                     46                     47                     48
                      A                      A                      A
 Frequencies --   3035.6726              3053.5315              3099.5318
 Red. masses --      1.0374                 1.0871                 1.1012
 Frc consts  --      5.6328                 5.9720                 6.2330
 IR Inten    --     24.8502                28.9117                27.9095

                     49                     50                     51
                      A                      A                      A
 Frequencies --   3139.3335              3146.0779              3174.4166
 Red. masses --      1.0994                 1.0848                 1.0966
 Frc consts  --      6.3839                 6.3261                 6.5109
 IR Inten    --      5.2193                 9.1389                22.8105

 - Thermochemistry -
 -------------------
 Temperature   298.150 Kelvin.  Pressure   1.00000 Atm.
 Atom     1 has atomic number  6 and mass  12.00000

 Molecular mass:   126.06808 amu.
 Principal axes and moments of inertia in atomic units:
                           1         2         3
     Eigenvalues --   689.674081261.795721846.15711
           X            0.99930   0.03710  -0.00480
           Y           -0.03709   0.99931   0.00129
           Z            0.00484  -0.00111   0.99999
 This molecule is an asymmetric top.
 Rotational symmetry number  1.
 Warning -- assumption of classical behavior for rotation
           may cause significant error
 Rotational temperatures (Kelvin)      0.12559     0.06864     0.04692
 Rotational constants (GHZ):           2.61680     1.43030     0.97757
 Zero-point vibrational energy     415430.1 (Joules/Mol)
                                   99.29017 (Kcal/Mol)
 Warning -- explicit consideration of  12 degrees of freedom as
           vibrations may cause significant error
 Vibrational temperatures:     61.14   137.12   247.24   297.25   348.33
          (Kelvin)            426.58   472.65   562.90   606.71   704.66
                              778.13   840.72  1008.05  1161.27  1175.46
                             1317.83  1338.84  1386.14  1432.42  1472.52
                             1483.36  1554.15  1586.39  1593.38  1625.25
                             1682.60  1748.47  1814.14  1831.95  1887.53
                             1930.22  1958.90  1996.86  2020.69  2027.33
                             2042.95  2142.42  2152.54  2165.88  2485.61
                             2641.76  4172.00  4227.19  4245.82  4304.96
                             4367.65  4393.35  4459.53  4516.80  4526.50
                             4567.27

 Zero-point correction=                           0.158229 (Hartree/Particle)
 Thermal correction to Energy=                    0.167065
 Thermal correction to Enthalpy=                  0.168010
 Thermal correction to Gibbs Free Energy=         0.124083
 Sum of electronic and zero-point Energies=           -423.040521
 Sum of electronic and thermal Energies=              -423.031685
 Sum of electronic and thermal Enthalpies=            -423.030740
 Sum of electronic and thermal Free Energies=         -423.074667

                     E (Thermal)             CV                S
                      KCal/Mol        Cal/Mol-Kelvin    Cal/Mol-Kelvin
 Total                  104.835             32.560             92.451
 Electronic               0.000              0.000              0.000
 Translational            0.889              2.981             40.409
 Rotational               0.889              2.981             28.865
 Vibrational            103.058             26.599             23.178
 Vibration     1          0.595              1.980              5.139
 Vibration     2          0.603              1.953              3.548
 Vibration     3          0.626              1.877              2.415
 Vibration     4          0.641              1.830              2.074
 Vibration     5          0.658              1.776              1.787
 Vibration     6          0.690              1.680              1.437
 Vibration     7          0.712              1.619              1.267
 Vibration     8          0.759              1.489              0.995
 Vibration     9          0.784              1.423              0.886
 Vibration    10          0.846              1.273              0.684
 Vibration    11          0.896              1.160              0.564
 Vibration    12          0.941              1.065              0.477

 Optimization completed.
    -- Stationary point found.
 Normal termination of Gaussian 09 at Tue Jan 28 02:42:42 2020.
