 Gaussian 09, Revision D.01,
 Gaussian 09:  ES64L-G09RevD.01 24-Apr-2013

 -----------------------------
 # b3lyp 6-31G(2df,p) opt Freq
 -----------------------------

 -----
 titel
 -----
 Symbolic Z-matrix:
 Charge =  0 Multiplicity = 1

 SCF Done:  E(RB3LYP) =  -423.208094003     A.U. after   14 cycles
 SCF Done:  E(RB3LYP) =  -423.208093954     A.U. after    7 cycles
 SCF Done:  E(RB3LYP) =  -423.208093900     A.U. after    7 cycles
 Optimization completed.
    -- Stationary point found.
 Normal termination of Gaussian 09 at Mon Jan 27 19:15:39 2020.

 ----------------------------------------------------------------------
 #N Geom=AllCheck Guess=TCheck SCRF=Check GenChk RB3LYP/6-31G(2df,p) Fr
 eq
 ----------------------------------------------------------------------

 Structure from the checkpoint file:  "/scratch/puck/g09_3e5cc798-9685-4694-9096-28d30ae51231/Gau-20000.chk"
 -----
 titel
 -----
 Charge =  0 Multiplicity = 1

                         Standard orientation:
 ---------------------------------------------------------------------
 Center     Atomic      Atomic             Coordinates (Angstroms)
 Number     Number       Type             X           Y           Z
 ---------------------------------------------------------------------
      1          8           0       -2.003500   -0.613382   -1.027944
      2          6           0       -0.962398   -0.290186   -0.139243
      3          6           0       -1.448535    0.765788    0.885796
      4          6           0       -0.357091    1.758664    0.401095
      5          6           0        0.164007    0.696408   -0.625844
      6          6           0        1.482834    0.067254   -0.211952
      7          8           0        2.577781    0.365032   -0.617474
      8          6           0        1.178748   -1.042674    0.805489
      9          6           0       -0.234851   -1.522955    0.439064
     10          1           0       -1.660569   -1.220760   -1.693067
     11          1           0       -2.471097    1.084676    0.678039
     12          1           0       -1.382943    0.459876    1.933286
     13          1           0       -0.747959    2.656357   -0.079826
     14          1           0        0.373820    2.066519    1.152719
     15          1           0        0.162067    1.010829   -1.669791
     16          1           0        1.949607   -1.815014    0.784358
     17          1           0        1.195950   -0.594596    1.808221
     18          1           0       -0.166202   -2.284446   -0.349995
     19          1           0       -0.783200   -1.970434    1.272961
 ---------------------------------------------------------------------

 SCF Done:  E(RB3LYP) =  -423.208093900     A.U. after    1 cycles

 The electronic state is 1-A.
 Alpha  occ. eigenvalues --  -19.14637 -19.12757 -10.26467 -10.24440 -10.19543
 Alpha  occ. eigenvalues --  -10.19450 -10.19375 -10.18744 -10.18545  -1.03821
 Alpha  occ. eigenvalues --   -1.03105  -0.86083  -0.78180  -0.70235  -0.66745
 Alpha  occ. eigenvalues --   -0.62881  -0.56371  -0.52791  -0.51871  -0.48835
 Alpha  occ. eigenvalues --   -0.45681  -0.44143  -0.43545  -0.41183  -0.40470
 Alpha  occ. eigenvalues --   -0.39241  -0.37401  -0.35632  -0.34897  -0.33685
 Alpha  occ. eigenvalues --   -0.32681  -0.30919  -0.26805  -0.23229
 Alpha virt. eigenvalues --   -0.01822   0.06730   0.08393   0.08825   0.12383
 Alpha virt. eigenvalues --    0.12846   0.13393   0.14903   0.16930   0.16947
 Alpha virt. eigenvalues --    0.18053   0.19004   0.20490   0.21683   0.22673

 Mulliken charges:
               1
     1  O   -0.486011
     2  C    0.435228
     3  C   -0.259367
     4  C   -0.230285
     5  C   -0.192911
     6  C    0.398533
     7  O   -0.322328
     8  C   -0.330937
     9  C   -0.290904
    10  H    0.274601
    11  H    0.121119
    12  H    0.098847
    13  H    0.119352
    14  H    0.110895
    15  H    0.090349
    16  H    0.128256
    17  H    0.130327
    18  H    0.094536
    19  H    0.110699
 Sum of Mulliken charges =   0.00000

 Dipole moment (field-independent basis, Debye):
    X=             -1.5331    Y=             -1.0740    Z=              0.8077  Tot=              2.0386
 Quadrupole moment (field-independent basis, Debye-Ang):
   XX=            -66.0813   YY=            -49.7778   ZZ=            -49.8734
   XY=             -2.4064   XZ=              2.4414   YZ=              2.0821

  Exact polarizability:  80.572  -1.274  74.695  -1.777  -0.603  68.207
 Approx polarizability: 119.406   1.274 103.949  -5.209  -0.229 104.822

                      1                      2                      3
                      A                      A                      A
 Frequencies --     50.2870               128.8888               198.8941
 Red. masses --      2.8954                 2.5368                 2.4594
 Frc consts  --      0.0043                 0.0248                 0.0573
 IR Inten    --      3.3275                 2.4606                 1.6842

                      4                      5                      6
                      A                      A                      A
 Frequencies --    283.0379               322.8744               365.5892
 Red. masses --      1.7850                 1.5096                 3.1598
 Frc consts  --      0.0843                 0.0927                 0.2488
 IR Inten    --     19.0812                47.0464                30.7457

                      7                      8                      9
                      A                      A                      A
 Frequencies --    384.3868               471.2075               518.3650
 Red. masses --      3.9581                 3.4208                 2.8715
 Frc consts  --      0.3446                 0.4475                 0.4546
 IR Inten    --     14.1366                 2.1947                 1.8994

                     10                     11                     12
                      A                      A                      A
 Frequencies --    546.3987               622.4162               667.2075
 Red. masses --      2.9284                 3.4694                 4.0636
 Frc consts  --      0.5151                 0.7919                 1.0658
 IR Inten    --      4.6966                 1.3812                 2.7417

                     13                     14                     15
                      A                      A                      A
 Frequencies --    726.8113               766.9248               814.3432
 Red. masses --      1.6323                 1.7228                 1.8835
 Frc consts  --      0.5080                 0.5970                 0.7359
 IR Inten    --      4.3307                 2.5298                 2.5783

                     16                     17                     18
                      A                      A                      A
 Frequencies --    836.8325               918.8466               949.8532
 Red. masses --      2.8665                 1.7007                 1.8865
 Frc consts  --      1.1827                 0.8460                 1.0028
 IR Inten    --      7.4376                21.8446                 1.3303

                     19                     20                     21
                      A                      A                      A
 Frequencies --    954.7059               970.7721               988.7843
 Red. masses --      2.8196                 2.6205                 1.9839
 Frc consts  --      1.5142                 1.4550                 1.1428
 IR Inten    --      6.6180                 0.0445                 1.3299

                     22                     23                     24
                      A                      A                      A
 Frequencies --   1030.0502              1078.6975              1113.0850
 Red. masses --      1.6218                 2.5086                 2.5284
 Frc consts  --      1.0138                 1.7198                 1.8457
 IR Inten    --     20.0116                12.6881                41.1665

                     25                     26                     27
                      A                      A                      A
 Frequencies --   1138.4680              1153.7640              1171.4355
 Red. masses --      1.8590                 1.4297                 2.0692
 Frc consts  --      1.4196                 1.1213                 1.6730
 IR Inten    --     17.2026                 8.6220                34.5652

                     28                     29                     30
                      A                      A                      A
 Frequencies --   1215.8355              1231.1527              1246.3317
 Red. masses --      1.3983                 1.5357                 1.4705
 Frc consts  --      1.2179                 1.3715                 1.3458
 IR Inten    --     15.1277                 6.6547                 6.1710

                     31                     32                     33
                      A                      A                      A
 Frequencies --   1264.7764              1273.7242              1282.7013
 Red. masses --      1.4150                 1.6077                 1.4750
 Frc consts  --      1.3336                 1.5368                 1.4298
 IR Inten    --      1.7138                43.9884                 2.0555

                     34                     35                     36
                      A                      A                      A
 Frequencies --   1290.5868              1340.1754              1387.4436
 Red. masses --      1.6474                 1.8354                 1.6639
 Frc consts  --      1.6167                 1.9422                 1.8871
 IR Inten    --     36.2344                43.2774                27.8543

                     37                     38                     39
                      A                      A                      A
 Frequencies --   1461.6744              1470.0895              1487.3867
 Red. masses --      1.0863                 1.0852                 1.0947
 Frc consts  --      1.3675                 1.3818                 1.4269
 IR Inten    --     10.6260                 2.3288                 3.6671

                     40                     41                     42
                      A                      A                      A
 Frequencies --   1495.2406              1838.2026              3013.4573
 Red. masses --      1.1190                12.2827                 1.0688
 Frc consts  --      1.4741                24.4530                 5.7185
 IR Inten    --      2.9134               228.9313                29.0613

                     43                     44                     45
                      A                      A                      A
 Frequencies --   3030.4585              3063.8176              3071.4733
 Red. masses --      1.0675                 1.0609                 1.0615
 Frc consts  --      5.7761                 5.8674                 5.9002
 IR Inten    --     14.1611                24.5160                30.7619

                     46                     47                     48
                      A                      A                      A
 Frequencies --   3086.6687              3110.1720              3118.8839
 Red. masses --      1.0956                 1.0938                 1.0944
 Frc consts  --      6.1502                 6.2336                 6.2723
 IR Inten    --     24.8274                 3.7016                13.8572

                     49                     50                     51
                      A                      A                      A
 Frequencies --   3119.4684              3135.1308              3795.4444
 Red. masses --      1.1006                 1.1053                 1.0657
 Frc consts  --      6.3102                 6.4009                 9.0452
 IR Inten    --      3.5136                25.4033                11.9492

 - Thermochemistry -
 -------------------
 Temperature   298.150 Kelvin.  Pressure   1.00000 Atm.
 Atom     1 has atomic number  8 and mass  15.99491

 Molecular mass:   126.06808 amu.
 Principal axes and moments of inertia in atomic units:
                           1         2         3
     Eigenvalues --   695.812331202.262411421.40710
           X            0.99945  -0.03246   0.00654
           Y            0.03246   0.99947  -0.00130
           Z           -0.00649   0.00151   0.99998
 This molecule is an asymmetric top.
 Rotational symmetry number  1.
 Warning -- assumption of classical behavior for rotation
           may cause significant error
 Rotational temperatures (Kelvin)      0.12448     0.07204     0.06094
 Rotational constants (GHZ):           2.59372     1.50112     1.26969
 Zero-point vibrational energy     418712.3 (Joules/Mol)
                                  100.07463 (Kcal/Mol)
 Warning -- explicit consideration of  10 degrees of freedom as
           vibrations may cause significant error
 Vibrational temperatures:     72.35   185.44   286.16   407.23   464.54
          (Kelvin)            526.00   553.05   677.96   745.81   786.14
                              895.52   959.96  1045.72  1103.43  1171.66
                             1204.01  1322.01  1366.63  1373.61  1396.72
                             1422.64  1482.01  1552.00  1601.48  1638.00
                             1660.01  1685.43  1749.31  1771.35  1793.19
                             1819.73  1832.60  1845.52  1856.86  1928.21
                             1996.22  2103.02  2115.13  2140.02  2151.31
                             2644.76  4335.69  4360.15  4408.14  4419.16
                             4441.02  4474.84  4487.37  4488.21  4510.75
                             5460.79

 Zero-point correction=                           0.159479 (Hartree/Particle)
 Thermal correction to Energy=                    0.167646
 Thermal correction to Enthalpy=                  0.168590
 Thermal correction to Gibbs Free Energy=         0.126489
 Sum of electronic and zero-point Energies=           -423.048615
 Sum of electronic and thermal Energies=              -423.040448
 Sum of electronic and thermal Enthalpies=            -423.039504
 Sum of electronic and thermal Free Energies=         -423.081605

                     E (Thermal)             CV                S
                      KCal/Mol        Cal/Mol-Kelvin    Cal/Mol-Kelvin
 Total                  105.199             31.883             88.608
 Electronic               0.000              0.000              0.000
 Translational            0.889              2.981             40.409
 Rotational               0.889              2.981             28.566
 Vibrational            103.422             25.921             19.634
 Vibration     1          0.595              1.977              4.806
 Vibration     2          0.611              1.924              2.963
 Vibration     3          0.637              1.841              2.143
 Vibration     4          0.682              1.705              1.515
 Vibration     5          0.708              1.630              1.296
 Vibration     6          0.739              1.543              1.098
 Vibration     7          0.753              1.504              1.022
 Vibration     8          0.828              1.314              0.734
 Vibration     9          0.873              1.209              0.614
 Vibration    10          0.902              1.148              0.552

 Normal termination of Gaussian 09 at Mon Jan 27 20:46:56 2020.
