 Gaussian 09, Revision D.01,
 Gaussian 09:  ES64L-G09RevD.01 24-Apr-2013

 -----------------------------
 # b3lyp 6-31G(2df,p) opt Freq
 -----------------------------

 -----
 titel
 -----
 Symbolic Z-matrix:
 Charge =  0 Multiplicity = 1

 SCF Done:  E(RB3LYP) =  -423.134885760     A.U. after   13 cycles
 Optimization completed.
    -- Stationary point found.
 Normal termination of Gaussian 09 at Tue Jan 28 02:51:54 2020.

 ----------------------------------------------------------------------
 #N Geom=AllCheck Guess=TCheck SCRF=Check GenChk RB3LYP/6-31G(2df,p) Fr
 eq
 ----------------------------------------------------------------------

 Structure from the checkpoint file:  "/scratch/puck/g09_c3c55437-a1ac-4303-ad7a-525533d6fa6c/Gau-112816.chk"
 -----
 titel
 -----
 Charge =  0 Multiplicity = 1

                         Standard orientation:
 ---------------------------------------------------------------------
 Center     Atomic      Atomic             Coordinates (Angstroms)
 Number     Number       Type             X           Y           Z
 ---------------------------------------------------------------------
      1          8           0       -2.743080    0.077896   -0.497337
      2          6           0       -1.562152   -0.014366    0.277658
      3          6           0       -0.694560    1.258011    0.031798
      4          6           0        0.727972    0.790969    0.236300
      5          6           0        1.104224   -0.018866    1.467300
      6          6           0        0.734117   -0.720631    0.201400
      7          6           0       -0.648463   -1.233723   -0.092189
      8          8           0        1.843391   -0.795488   -0.708526
      9          6           0        1.843068    0.661554   -0.806099
     10          1           0       -3.351238   -0.609833   -0.209722
     11          1           0       -1.822999   -0.074477    1.345388
     12          1           0       -0.843859    1.563379   -1.010147
     13          1           0       -1.016609    2.088808    0.666779
     14          1           0        2.141934   -0.044536    1.784465
     15          1           0        0.381432   -0.027210    2.276438
     16          1           0       -0.738525   -1.417860   -1.167752
     17          1           0       -0.939755   -2.145859    0.439478
     18          1           0        2.824966    1.086859   -0.566525
     19          1           0        1.536928    0.983768   -1.808510
 ---------------------------------------------------------------------

 SCF Done:  E(RB3LYP) =  -423.134885760     A.U. after    1 cycles

 The electronic state is 1-A.
 Alpha  occ. eigenvalues --  -19.14175 -19.13402 -10.24078 -10.23480 -10.23199
 Alpha  occ. eigenvalues --  -10.19398 -10.18845 -10.18749 -10.18711  -1.04598
 Alpha  occ. eigenvalues --   -1.02397  -0.86163  -0.75854  -0.72643  -0.66956
 Alpha  occ. eigenvalues --   -0.62126  -0.57331  -0.53040  -0.50234  -0.49151
 Alpha  occ. eigenvalues --   -0.47001  -0.44646  -0.43637  -0.41893  -0.40155
 Alpha  occ. eigenvalues --   -0.39061  -0.37606  -0.36700  -0.34114  -0.31978
 Alpha  occ. eigenvalues --   -0.30758  -0.27387  -0.25391  -0.22359
 Alpha virt. eigenvalues --    0.06303   0.07104   0.08870   0.10465   0.12810
 Alpha virt. eigenvalues --    0.13316   0.14232   0.14913   0.15854   0.17085
 Alpha virt. eigenvalues --    0.17951   0.18364   0.19535   0.20882   0.24159

 Mulliken charges:
               1
     1  O   -0.427781
     2  C    0.117634
     3  C   -0.302773
     4  C    0.156340
     5  C   -0.378646
     6  C    0.398190
     7  C   -0.338500
     8  O   -0.329536
     9  C   -0.141946
    10  H    0.284999
    11  H    0.072237
    12  H    0.117031
    13  H    0.104637
    14  H    0.118939
    15  H    0.117586
    16  H    0.123129
    17  H    0.096577
    18  H    0.104513
    19  H    0.107371
 Sum of Mulliken charges =   0.00000

 Dipole moment (field-independent basis, Debye):
    X=             -1.3077    Y=              0.1443    Z=              1.3445  Tot=              1.8811
 Quadrupole moment (field-independent basis, Debye-Ang):
   XX=            -52.9057   YY=            -53.6779   ZZ=            -52.5365
   XY=              7.2510   XZ=             -1.6533   YZ=             -1.6787

  Exact polarizability:  82.954   4.201  68.306  -0.304  -2.613  70.339
 Approx polarizability: 110.370   2.929 108.525  -0.610  -3.026 107.912

                      1                      2                      3
                      A                      A                      A
 Frequencies --    111.7968               219.3562               269.8988
 Red. masses --      3.5386                 2.3677                 1.0871
 Frc consts  --      0.0261                 0.0671                 0.0467
 IR Inten    --      0.3409                 5.2190                97.1768

                      4                      5                      6
                      A                      A                      A
 Frequencies --    318.3399               323.8941               375.9366
 Red. masses --      2.2069                 3.8814                 2.7236
 Frc consts  --      0.1318                 0.2399                 0.2268
 IR Inten    --      6.4725                 9.1290                 0.4574

                      7                      8                      9
                      A                      A                      A
 Frequencies --    403.1951               465.0562               543.0943
 Red. masses --      3.4225                 2.2583                 3.4408
 Frc consts  --      0.3278                 0.2878                 0.5979
 IR Inten    --      0.3719                10.1830                16.8825

                     10                     11                     12
                      A                      A                      A
 Frequencies --    547.9316               646.1584               752.2753
 Red. masses --      3.1931                 3.4920                 3.4132
 Frc consts  --      0.5648                 0.8590                 1.1381
 IR Inten    --      4.9957                 0.8192                 3.3256

                     13                     14                     15
                      A                      A                      A
 Frequencies --    807.9931               836.8143               844.9714
 Red. masses --      3.0614                 4.0109                 3.8568
 Frc consts  --      1.1776                 1.6548                 1.6224
 IR Inten    --      0.9515                13.8058                 7.1703

                     16                     17                     18
                      A                      A                      A
 Frequencies --    891.1322               921.7063               950.0230
 Red. masses --      1.4534                 1.9657                 1.8598
 Frc consts  --      0.6800                 0.9839                 0.9890
 IR Inten    --      1.5715                18.0274                11.3862

                     19                     20                     21
                      A                      A                      A
 Frequencies --    975.4491               994.6471              1004.8510
 Red. masses --      2.8928                 2.2619                 1.9171
 Frc consts  --      1.6217                 1.3184                 1.1405
 IR Inten    --     45.4318                16.6974                 2.2335

                     22                     23                     24
                      A                      A                      A
 Frequencies --   1037.7370              1051.9822              1073.7325
 Red. masses --      2.2686                 1.4436                 1.7678
 Frc consts  --      1.4394                 0.9413                 1.2008
 IR Inten    --      1.6959                 6.9696                17.9214

                     25                     26                     27
                      A                      A                      A
 Frequencies --   1081.3567              1150.7777              1187.3907
 Red. masses --      3.0146                 1.1782                 1.6003
 Frc consts  --      2.0769                 0.9193                 1.3293
 IR Inten    --     83.0183                 0.8283                 2.4372

                     28                     29                     30
                      A                      A                      A
 Frequencies --   1206.6260              1235.5146              1265.9664
 Red. masses --      1.4786                 1.8587                 1.5856
 Frc consts  --      1.2683                 1.6717                 1.4972
 IR Inten    --     16.2091                 4.8056                16.0368

                     31                     32                     33
                      A                      A                      A
 Frequencies --   1278.2795              1279.5992              1324.1127
 Red. masses --      1.3060                 1.5067                 1.9210
 Frc consts  --      1.2573                 1.4535                 1.9844
 IR Inten    --     47.2595                10.9985                19.4147

                     34                     35                     36
                      A                      A                      A
 Frequencies --   1340.2225              1365.5106              1384.6215
 Red. masses --      1.6733                 1.7811                 2.3144
 Frc consts  --      1.7708                 1.9568                 2.6143
 IR Inten    --     21.0576                 4.8546                 1.8515

                     37                     38                     39
                      A                      A                      A
 Frequencies --   1433.7566              1472.7506              1483.9039
 Red. masses --      1.3878                 1.4105                 1.0944
 Frc consts  --      1.6809                 1.8025                 1.4199
 IR Inten    --      4.6003                11.1221                 2.1245

                     40                     41                     42
                      A                      A                      A
 Frequencies --   1494.9325              1514.0471              2975.4009
 Red. masses --      1.1131                 1.1201                 1.0843
 Frc consts  --      1.4656                 1.5128                 5.6556
 IR Inten    --      0.5527                 0.3910                41.9821

                     43                     44                     45
                      A                      A                      A
 Frequencies --   3016.8217              3041.2601              3045.1979
 Red. masses --      1.0544                 1.0588                 1.0601
 Frc consts  --      5.6540                 5.7697                 5.7918
 IR Inten    --     79.5087                50.1444                15.1029

                     46                     47                     48
                      A                      A                      A
 Frequencies --   3067.1045              3087.9707              3094.3337
 Red. masses --      1.1118                 1.1046                 1.1041
 Frc consts  --      6.1620                 6.2058                 6.2286
 IR Inten    --     39.7855                21.9655                24.3533

                     49                     50                     51
                      A                      A                      A
 Frequencies --   3125.2730              3216.1603              3823.7734
 Red. masses --      1.0549                 1.1172                 1.0663
 Frc consts  --      6.0706                 6.8086                 9.1859
 IR Inten    --     11.4748                 6.9287                25.9374

 - Thermochemistry -
 -------------------
 Temperature   298.150 Kelvin.  Pressure   1.00000 Atm.
 Atom     1 has atomic number  8 and mass  15.99491

 Molecular mass:   126.06808 amu.
 Principal axes and moments of inertia in atomic units:
                           1         2         3
     Eigenvalues --   525.388411359.807101424.25907
           X            0.99964   0.02599  -0.00599
           Y           -0.02649   0.99363  -0.10950
           Z            0.00311   0.10962   0.99397
 This molecule is an asymmetric top.
 Rotational symmetry number  1.
 Warning -- assumption of classical behavior for rotation
           may cause significant error
 Rotational temperatures (Kelvin)      0.16486     0.06370     0.06081
 Rotational constants (GHZ):           3.43506     1.32720     1.26714
 Zero-point vibrational energy     420850.1 (Joules/Mol)
                                  100.58558 (Kcal/Mol)
 Warning -- explicit consideration of  10 degrees of freedom as
           vibrations may cause significant error
 Vibrational temperatures:    160.85   315.60   388.32   458.02   466.01
          (Kelvin)            540.89   580.11   669.11   781.39   788.35
                              929.68  1082.36  1162.52  1203.99  1215.72
                             1282.14  1326.13  1366.87  1403.45  1431.07
                             1445.75  1493.07  1513.57  1544.86  1555.83
                             1655.71  1708.39  1736.06  1777.63  1821.44
                             1839.16  1841.06  1905.10  1928.28  1964.66
                             1992.16  2062.85  2118.96  2135.00  2150.87
                             2178.37  4280.93  4340.53  4375.69  4381.36
                             4412.87  4442.90  4452.05  4496.57  4627.33
                             5501.55

 Zero-point correction=                           0.160293 (Hartree/Particle)
 Thermal correction to Energy=                    0.167884
 Thermal correction to Enthalpy=                  0.168828
 Thermal correction to Gibbs Free Energy=         0.128605
 Sum of electronic and zero-point Energies=           -422.974592
 Sum of electronic and thermal Energies=              -422.967002
 Sum of electronic and thermal Enthalpies=            -422.966058
 Sum of electronic and thermal Free Energies=         -423.006281

                     E (Thermal)             CV                S
                      KCal/Mol        Cal/Mol-Kelvin    Cal/Mol-Kelvin
 Total                  105.349             30.856             84.657
 Electronic               0.000              0.000              0.000
 Translational            0.889              2.981             40.409
 Rotational               0.889              2.981             28.411
 Vibrational            103.571             24.894             15.837
 Vibration     1          0.607              1.940              3.237
 Vibration     2          0.647              1.812              1.964
 Vibration     3          0.674              1.729              1.597
 Vibration     4          0.705              1.639              1.319
 Vibration     5          0.708              1.628              1.290
 Vibration     6          0.747              1.521              1.055
 Vibration     7          0.769              1.463              0.951
 Vibration     8          0.823              1.328              0.752
 Vibration     9          0.898              1.155              0.559
 Vibration    10          0.903              1.144              0.548

 Normal termination of Gaussian 09 at Tue Jan 28 03:41:11 2020.
