 Gaussian 09, Revision D.01,
 Gaussian 09:  ES64L-G09RevD.01 24-Apr-2013

 -----------------------------
 # b3lyp 6-31G(2df,p) opt Freq
 -----------------------------

 -----
 titel
 -----
 Symbolic Z-matrix:
 Charge =  0 Multiplicity = 1

 SCF Done:  E(RB3LYP) =  -423.194988266     A.U. after   14 cycles
 Optimization completed.
    -- Stationary point found.
 Normal termination of Gaussian 09 at Tue Jan 28 03:17:07 2020.

 ----------------------------------------------------------------------
 #N Geom=AllCheck Guess=TCheck SCRF=Check GenChk RB3LYP/6-31G(2df,p) Fr
 eq
 ----------------------------------------------------------------------

 Structure from the checkpoint file:  "/scratch/puck/g09_c18a9b4d-acd5-4331-a659-daf480885aef/Gau-1276.chk"
 -----
 titel
 -----
 Charge =  0 Multiplicity = 1

                         Standard orientation:
 ---------------------------------------------------------------------
 Center     Atomic      Atomic             Coordinates (Angstroms)
 Number     Number       Type             X           Y           Z
 ---------------------------------------------------------------------
      1          6           0        2.674372   -1.000508   -0.172672
      2          6           0        1.553910   -0.104715    0.325156
      3          6           0        0.219689   -0.822416    0.642232
      4          6           0       -0.847506    0.171870    0.227676
      5          6           0       -0.678260    1.617647    0.706162
      6          6           0       -0.089281    1.221745   -0.602396
      7          8           0        1.248519    0.861480   -0.699473
      8          6           0       -2.171066   -0.300273   -0.209487
      9          8           0       -2.503863   -1.460478   -0.271773
     10          1           0        2.951866   -1.723756    0.600295
     11          1           0        2.358474   -1.547179   -1.065995
     12          1           0        3.558696   -0.407982   -0.422501
     13          1           0        1.897173    0.437746    1.218214
     14          1           0        0.099690   -1.729840    0.042553
     15          1           0        0.161319   -1.109281    1.695892
     16          1           0       -1.567878    2.239646    0.675400
     17          1           0       -0.034815    1.793056    1.560968
     18          1           0       -0.480234    1.624091   -1.529991
     19          1           0       -2.872691    0.515379   -0.504884
 ---------------------------------------------------------------------

 SCF Done:  E(RB3LYP) =  -423.194988266     A.U. after    1 cycles

 The electronic state is 1-A.
 Alpha  occ. eigenvalues --  -19.15474 -19.13116 -10.26741 -10.25613 -10.24391
 Alpha  occ. eigenvalues --  -10.20962 -10.20629 -10.19308 -10.18234  -1.05864
 Alpha  occ. eigenvalues --   -1.03834  -0.87010  -0.78991  -0.71078  -0.66225
 Alpha  occ. eigenvalues --   -0.63519  -0.57408  -0.56127  -0.51290  -0.50141
 Alpha  occ. eigenvalues --   -0.46728  -0.44178  -0.42881  -0.41714  -0.41353
 Alpha  occ. eigenvalues --   -0.40074  -0.38816  -0.38238  -0.36580  -0.33732
 Alpha  occ. eigenvalues --   -0.33223  -0.29487  -0.25790  -0.23984
 Alpha virt. eigenvalues --   -0.01767   0.08390   0.09336   0.09852   0.11613
 Alpha virt. eigenvalues --    0.12406   0.14329   0.14852   0.15875   0.16314
 Alpha virt. eigenvalues --    0.17755   0.18187   0.19304   0.20047   0.22016

 Mulliken charges:
               1
     1  C   -0.404739
     2  C    0.130131
     3  C   -0.325326
     4  C    0.211477
     5  C   -0.379999
     6  C    0.091136
     7  O   -0.262508
     8  C    0.077486
     9  O   -0.270893
    10  H    0.121085
    11  H    0.128352
    12  H    0.128855
    13  H    0.078677
    14  H    0.128416
    15  H    0.113277
    16  H    0.125409
    17  H    0.130321
    18  H    0.115988
    19  H    0.062855
 Sum of Mulliken charges =   0.00000

 Dipole moment (field-independent basis, Debye):
    X=              1.2494    Y=              1.7998    Z=              1.1133  Tot=              2.4576
 Quadrupole moment (field-independent basis, Debye-Ang):
   XX=            -57.1647   YY=            -55.7681   ZZ=            -51.9341
   XY=             -8.9976   XZ=              1.7026   YZ=             -0.2033

  Exact polarizability:  89.270  -1.384  79.490   2.877   0.445  62.554
 Approx polarizability: 118.169   9.168 126.665   1.736  -0.446  98.309

                      1                      2                      3
                      A                      A                      A
 Frequencies --     92.2238               123.4516               196.7174
 Red. masses --      3.6371                 4.2426                 2.6189
 Frc consts  --      0.0182                 0.0381                 0.0597
 IR Inten    --      1.5069                 6.7105                 5.7808

                      4                      5                      6
                      A                      A                      A
 Frequencies --    231.2856               253.2241               306.4177
 Red. masses --      1.2897                 2.1820                 2.7030
 Frc consts  --      0.0406                 0.0824                 0.1495
 IR Inten    --      1.5958                 1.9243                 3.0613

                      7                      8                      9
                      A                      A                      A
 Frequencies --    356.2070               413.3838               482.3243
 Red. masses --      2.2865                 2.5945                 3.5496
 Frc consts  --      0.1709                 0.2612                 0.4865
 IR Inten    --      3.3521                 0.3703                 1.1087

                     10                     11                     12
                      A                      A                      A
 Frequencies --    489.9203               614.3300               672.5305
 Red. masses --      2.3314                 3.5272                 5.5097
 Frc consts  --      0.3297                 0.7843                 1.4683
 IR Inten    --      8.1027                17.9595                17.2137

                     13                     14                     15
                      A                      A                      A
 Frequencies --    770.2986               793.1011               831.3594
 Red. masses --      2.9602                 4.1478                 3.3372
 Frc consts  --      1.0349                 1.5372                 1.3590
 IR Inten    --      6.1515                31.4945                28.2034

                     16                     17                     18
                      A                      A                      A
 Frequencies --    874.6838               917.6022               925.1358
 Red. masses --      2.1617                 1.4852                 1.7748
 Frc consts  --      0.9744                 0.7368                 0.8950
 IR Inten    --     38.6703                15.5862                 3.9674

                     19                     20                     21
                      A                      A                      A
 Frequencies --    953.9692              1012.3799              1043.0798
 Red. masses --      1.3382                 1.8000                 1.2936
 Frc consts  --      0.7175                 1.0870                 0.8293
 IR Inten    --     16.4064                10.9463                 9.4341

                     22                     23                     24
                      A                      A                      A
 Frequencies --   1047.5817              1079.2938              1089.2451
 Red. masses --      1.8546                 2.0039                 2.0326
 Frc consts  --      1.1992                 1.3754                 1.4208
 IR Inten    --     15.4782                14.2128                15.0791

                     25                     26                     27
                      A                      A                      A
 Frequencies --   1125.0360              1152.6884              1184.9626
 Red. masses --      1.9439                 2.0433                 2.9941
 Frc consts  --      1.4496                 1.5996                 2.4770
 IR Inten    --      5.3357                16.9914                97.8435

                     28                     29                     30
                      A                      A                      A
 Frequencies --   1212.7032              1250.3338              1277.7490
 Red. masses --      1.4925                 1.9538                 1.6300
 Frc consts  --      1.2932                 1.7996                 1.5680
 IR Inten    --      1.9637                22.9358                 6.3710

                     31                     32                     33
                      A                      A                      A
 Frequencies --   1343.4526              1355.9745              1390.0265
 Red. masses --      2.1254                 1.4204                 1.3908
 Frc consts  --      2.2601                 1.5387                 1.5832
 IR Inten    --      5.6084                 3.1955                32.0404

                     34                     35                     36
                      A                      A                      A
 Frequencies --   1406.6261              1413.3272              1436.5023
 Red. masses --      1.3977                 1.4748                 1.3179
 Frc consts  --      1.6293                 1.7357                 1.6023
 IR Inten    --     12.8020                 8.4091                14.9668

                     37                     38                     39
                      A                      A                      A
 Frequencies --   1473.3231              1483.9286              1495.6298
 Red. masses --      1.2515                 1.0579                 1.0940
 Frc consts  --      1.6006                 1.3725                 1.4419
 IR Inten    --     21.9140                 3.6516                 8.8351

                     40                     41                     42
                      A                      A                      A
 Frequencies --   1499.4415              1802.5210              2849.4920
 Red. masses --      1.0626                10.5375                 1.0817
 Frc consts  --      1.4076                20.1719                 5.1746
 IR Inten    --      4.1404               249.8053               119.6865

                     43                     44                     45
                      A                      A                      A
 Frequencies --   2988.6160              3042.9646              3058.7180
 Red. masses --      1.0834                 1.0348                 1.0589
 Frc consts  --      5.7012                 5.6453                 5.8367
 IR Inten    --     39.1548                13.8153                15.8467

                     46                     47                     48
                      A                      A                      A
 Frequencies --   3102.9972              3118.0243              3122.9421
 Red. masses --      1.1055                 1.1014                 1.1024
 Frc consts  --      6.2716                 6.3092                 6.3346
 IR Inten    --     10.5870                19.2319                21.2721

                     49                     50                     51
                      A                      A                      A
 Frequencies --   3128.6905              3182.3773              3219.5865
 Red. masses --      1.0551                 1.0920                 1.1156
 Frc consts  --      6.0849                 6.5160                 6.8135
 IR Inten    --      9.0782                11.0921                 4.9024

 - Thermochemistry -
 -------------------
 Temperature   298.150 Kelvin.  Pressure   1.00000 Atm.
 Atom     1 has atomic number  6 and mass  12.00000

 Molecular mass:   126.06808 amu.
 Principal axes and moments of inertia in atomic units:
                           1         2         3
     Eigenvalues --   627.732581402.296571754.11735
           X            0.99745  -0.07121   0.00438
           Y            0.07117   0.99743   0.00861
           Z           -0.00499  -0.00828   0.99995
 This molecule is an asymmetric top.
 Rotational symmetry number  1.
 Warning -- assumption of classical behavior for rotation
           may cause significant error
 Rotational temperatures (Kelvin)      0.13798     0.06177     0.04938
 Rotational constants (GHZ):           2.87502     1.28699     1.02886
 Zero-point vibrational energy     416829.1 (Joules/Mol)
                                   99.62454 (Kcal/Mol)
 Warning -- explicit consideration of  11 degrees of freedom as
           vibrations may cause significant error
 Vibrational temperatures:    132.69   177.62   283.03   332.77   364.33
          (Kelvin)            440.87   512.50   594.77   693.96   704.89
                              883.88   967.62  1108.29  1141.09  1196.14
                             1258.47  1320.22  1331.06  1372.55  1456.59
                             1500.76  1507.23  1552.86  1567.18  1618.67
                             1658.46  1704.89  1744.81  1798.95  1838.39
                             1932.93  1950.94  1999.94  2023.82  2033.46
                             2066.80  2119.78  2135.04  2151.88  2157.36
                             2593.42  4099.78  4299.95  4378.14  4400.81
                             4464.52  4486.14  4493.21  4501.48  4578.73
                             4632.26

 Zero-point correction=                           0.158762 (Hartree/Particle)
 Thermal correction to Energy=                    0.167167
 Thermal correction to Enthalpy=                  0.168111
 Thermal correction to Gibbs Free Energy=         0.125743
 Sum of electronic and zero-point Energies=           -423.036226
 Sum of electronic and thermal Energies=              -423.027822
 Sum of electronic and thermal Enthalpies=            -423.026877
 Sum of electronic and thermal Free Energies=         -423.069245

                     E (Thermal)             CV                S
                      KCal/Mol        Cal/Mol-Kelvin    Cal/Mol-Kelvin
 Total                  104.899             32.076             89.170
 Electronic               0.000              0.000              0.000
 Translational            0.889              2.981             40.409
 Rotational               0.889              2.981             28.825
 Vibrational            103.121             26.114             19.937
 Vibration     1          0.602              1.955              3.612
 Vibration     2          0.610              1.929              3.046
 Vibration     3          0.636              1.844              2.164
 Vibration     4          0.653              1.793              1.869
 Vibration     5          0.664              1.757              1.708
 Vibration     6          0.697              1.662              1.382
 Vibration     7          0.732              1.563              1.139
 Vibration     8          0.777              1.441              0.915
 Vibration     9          0.839              1.289              0.704
 Vibration    10          0.846              1.272              0.684
 Vibration    11          0.974              1.002              0.426

 Optimization completed.
    -- Stationary point found.
 Normal termination of Gaussian 09 at Tue Jan 28 03:59:50 2020.
