 Gaussian 09, Revision D.01,
 Gaussian 09:  ES64L-G09RevD.01 24-Apr-2013

 -----------------------------
 # b3lyp 6-31G(2df,p) opt Freq
 -----------------------------

 -----
 titel
 -----
 Symbolic Z-matrix:
 Charge =  0 Multiplicity = 1

 SCF Done:  E(RB3LYP) =  -423.143093203     A.U. after   14 cycles
 Optimization completed.
    -- Stationary point found.
 Normal termination of Gaussian 09 at Mon Jan 27 18:10:35 2020.

 ----------------------------------------------------------------------
 #N Geom=AllCheck Guess=TCheck SCRF=Check GenChk RB3LYP/6-31G(2df,p) Fr
 eq
 ----------------------------------------------------------------------

 Structure from the checkpoint file:  "/scratch/puck/g09_24696be0-2e21-407d-8b32-802a9f1e57f5/Gau-62913.chk"
 -----
 titel
 -----
 Charge =  0 Multiplicity = 1

                         Standard orientation:
 ---------------------------------------------------------------------
 Center     Atomic      Atomic             Coordinates (Angstroms)
 Number     Number       Type             X           Y           Z
 ---------------------------------------------------------------------
      1          6           0        2.370314   -0.136229   -0.068337
      2          6           0        0.881259   -0.323286    0.014224
      3          6           0        0.219913   -0.989835    1.249931
      4          6           0       -1.052745   -0.122527    1.041169
      5          6           0       -1.908486   -0.609021   -0.159988
      6          6           0       -0.858842   -0.029053   -1.135702
      7          8           0        0.317111   -0.862867   -1.211688
      8          6           0       -0.236507    0.784343    0.051654
      9          8           0       -0.108596    2.143000    0.223415
     10          1           0        2.640800    0.479318   -0.932536
     11          1           0        2.753238    0.342332    0.838139
     12          1           0        2.869979   -1.105283   -0.179996
     13          1           0        0.110923   -2.077069    1.214778
     14          1           0        0.741541   -0.704184    2.169258
     15          1           0       -1.565959    0.258829    1.922560
     16          1           0       -2.120818   -1.677932   -0.244735
     17          1           0       -2.843343   -0.042653   -0.225248
     18          1           0       -1.168090    0.341199   -2.115873
     19          1           0        0.424172    2.498026   -0.497871
 ---------------------------------------------------------------------

 SCF Done:  E(RB3LYP) =  -423.143093203     A.U. after    1 cycles

 The electronic state is 1-A.
 Alpha  occ. eigenvalues --  -19.15818 -19.12811 -10.23464 -10.22937 -10.22455
 Alpha  occ. eigenvalues --  -10.18652 -10.17948 -10.17844 -10.17825  -1.05210
 Alpha  occ. eigenvalues --   -1.02754  -0.83942  -0.77059  -0.70151  -0.65752
 Alpha  occ. eigenvalues --   -0.60664  -0.58136  -0.55196  -0.49460  -0.48316
 Alpha  occ. eigenvalues --   -0.46626  -0.42976  -0.41298  -0.40572  -0.39874
 Alpha  occ. eigenvalues --   -0.39219  -0.37149  -0.36839  -0.35093  -0.32304
 Alpha  occ. eigenvalues --   -0.31270  -0.26435  -0.23979  -0.23888
 Alpha virt. eigenvalues --    0.06198   0.08074   0.10929   0.11346   0.12638
 Alpha virt. eigenvalues --    0.13481   0.14251   0.15773   0.16519   0.17634
 Alpha virt. eigenvalues --    0.17799   0.18080   0.20655   0.21634   0.22896

 Mulliken charges:
               1
     1  C   -0.489293
     2  C    0.358999
     3  C   -0.267406
     4  C   -0.092978
     5  C   -0.237266
     6  C    0.020076
     7  O   -0.339652
     8  C    0.307341
     9  O   -0.470858
    10  H    0.114350
    11  H    0.122270
    12  H    0.132184
    13  H    0.099260
    14  H    0.100698
    15  H    0.075285
    16  H    0.101099
    17  H    0.103436
    18  H    0.073536
    19  H    0.288919
 Sum of Mulliken charges =   0.00000

 Dipole moment (field-independent basis, Debye):
    X=              0.3353    Y=              0.7930    Z=              0.0961  Tot=              0.8663
 Quadrupole moment (field-independent basis, Debye-Ang):
   XX=            -50.5644   YY=            -54.0340   ZZ=            -53.5638
   XY=              2.2418   XZ=              1.0846   YZ=             -5.1450

  Exact polarizability:  82.718   1.057  69.682   1.552  -3.250  71.307
 Approx polarizability: 110.187  -0.349 105.968   0.906  -0.824 108.181

                      1                      2                      3
                      A                      A                      A
 Frequencies --    168.6173               178.6911               215.7352
 Red. masses --      1.6624                 1.4273                 2.5978
 Frc consts  --      0.0278                 0.0269                 0.0712
 IR Inten    --      1.1903                 0.9093                 5.5214

                      4                      5                      6
                      A                      A                      A
 Frequencies --    249.5363               313.4919               339.2829
 Red. masses --      2.1555                 1.4471                 2.3832
 Frc consts  --      0.0791                 0.0838                 0.1616
 IR Inten    --     11.6236                66.9600                24.6124

                      7                      8                      9
                      A                      A                      A
 Frequencies --    392.8665               438.9407               459.6816
 Red. masses --      2.2288                 3.1481                 2.8597
 Frc consts  --      0.2027                 0.3574                 0.3560
 IR Inten    --      2.7795                 3.0595                10.1129

                     10                     11                     12
                      A                      A                      A
 Frequencies --    558.6226               627.5714               689.0478
 Red. masses --      3.4696                 3.5432                 3.5407
 Frc consts  --      0.6379                 0.8222                 0.9905
 IR Inten    --      2.9169                 3.7914                 2.1285

                     13                     14                     15
                      A                      A                      A
 Frequencies --    754.8024               827.6434               842.9813
 Red. masses --      3.0952                 3.1690                 2.5551
 Frc consts  --      1.0390                 1.2790                 1.0698
 IR Inten    --      0.8981                 4.7526                 8.6242

                     16                     17                     18
                      A                      A                      A
 Frequencies --    879.9101               907.0140               927.1370
 Red. masses --      2.2898                 2.2003                 1.8898
 Frc consts  --      1.0445                 1.0665                 0.9571
 IR Inten    --      4.2171                20.9660                14.4019

                     19                     20                     21
                      A                      A                      A
 Frequencies --    954.1719               972.0816              1007.0626
 Red. masses --      2.2895                 1.8567                 2.5221
 Frc consts  --      1.2281                 1.0337                 1.5071
 IR Inten    --     17.1112                15.2968                20.8966

                     22                     23                     24
                      A                      A                      A
 Frequencies --   1022.2230              1040.5562              1102.2585
 Red. masses --      2.2678                 1.9883                 1.4375
 Frc consts  --      1.3962                 1.2684                 1.0290
 IR Inten    --     37.9362                 9.3207                 1.6639

                     25                     26                     27
                      A                      A                      A
 Frequencies --   1114.0643              1149.9420              1168.7912
 Red. masses --      1.6816                 2.0559                 2.0381
 Frc consts  --      1.2297                 1.6018                 1.6404
 IR Inten    --     12.6675                 1.3115                19.2257

                     28                     29                     30
                      A                      A                      A
 Frequencies --   1183.4227              1209.1430              1225.3121
 Red. masses --      2.6231                 1.4190                 1.8445
 Frc consts  --      2.1644                 1.2224                 1.6316
 IR Inten    --     30.2894                 3.3020                 2.3145

                     31                     32                     33
                      A                      A                      A
 Frequencies --   1261.5716              1287.5403              1303.3955
 Red. masses --      1.6531                 1.9066                 1.6120
 Frc consts  --      1.5501                 1.8622                 1.6135
 IR Inten    --     27.9136                47.7089                27.0892

                     34                     35                     36
                      A                      A                      A
 Frequencies --   1322.6859              1349.2342              1389.9835
 Red. masses --      1.4701                 2.3382                 2.5407
 Frc consts  --      1.5153                 2.5079                 2.8922
 IR Inten    --     13.0289                66.8610                31.1200

                     37                     38                     39
                      A                      A                      A
 Frequencies --   1409.7976              1460.9111              1475.1538
 Red. masses --      1.5130                 1.1118                 1.1219
 Frc consts  --      1.7717                 1.3981                 1.4385
 IR Inten    --      6.4299                 1.0644                 1.4638

                     40                     41                     42
                      A                      A                      A
 Frequencies --   1479.8621              1490.5240              3030.0466
 Red. masses --      1.0847                 1.0520                 1.0356
 Frc consts  --      1.3996                 1.3770                 5.6018
 IR Inten    --     11.0829                 4.5061                18.4074

                     43                     44                     45
                      A                      A                      A
 Frequencies --   3045.8726              3047.0703              3082.4881
 Red. masses --      1.0576                 1.0591                 1.0900
 Frc consts  --      5.7808                 5.7936                 6.1022
 IR Inten    --     40.6523                20.9231                59.8056

                     46                     47                     48
                      A                      A                      A
 Frequencies --   3095.9512              3104.6729              3108.0707
 Red. masses --      1.1006                 1.1068                 1.1066
 Frc consts  --      6.2154                 6.2858                 6.2982
 IR Inten    --     16.0774                 7.7440                27.7295

                     49                     50                     51
                      A                      A                      A
 Frequencies --   3112.0520              3122.4447              3788.8472
 Red. masses --      1.1018                 1.0908                 1.0656
 Frc consts  --      6.2868                 6.2659                 9.0131
 IR Inten    --     19.9491                37.6567                22.0763

 - Thermochemistry -
 -------------------
 Temperature   298.150 Kelvin.  Pressure   1.00000 Atm.
 Atom     1 has atomic number  6 and mass  12.00000

 Molecular mass:   126.06808 amu.
 Principal axes and moments of inertia in atomic units:
                           1         2         3
     Eigenvalues --   766.21861 977.157301117.30845
           X            0.99913   0.03980   0.01225
           Y           -0.03790   0.99099  -0.12845
           Z           -0.01726   0.12788   0.99164
 This molecule is an asymmetric top.
 Rotational symmetry number  1.
 Warning -- assumption of classical behavior for rotation
           may cause significant error
 Rotational temperatures (Kelvin)      0.11304     0.08864     0.07752
 Rotational constants (GHZ):           2.35539     1.84693     1.61526
 Zero-point vibrational energy     416831.5 (Joules/Mol)
                                   99.62511 (Kcal/Mol)
 Warning -- explicit consideration of  10 degrees of freedom as
           vibrations may cause significant error
 Vibrational temperatures:    242.60   257.10   310.39   359.03   451.04
          (Kelvin)            488.15   565.25   631.54   661.38   803.73
                              902.93   991.38  1085.99  1190.79  1212.86
                             1265.99  1304.99  1333.94  1372.84  1398.61
                             1448.94  1470.75  1497.13  1585.90  1602.89
                             1654.51  1681.63  1702.68  1739.68  1762.95
                             1815.12  1852.48  1875.29  1903.05  1941.24
                             1999.87  2028.38  2101.92  2122.41  2129.19
                             2144.53  4359.56  4382.33  4384.05  4435.01
                             4454.38  4466.93  4471.81  4477.54  4492.50
                             5451.30

 Zero-point correction=                           0.158763 (Hartree/Particle)
 Thermal correction to Energy=                    0.166699
 Thermal correction to Enthalpy=                  0.167643
 Thermal correction to Gibbs Free Energy=         0.126972
 Sum of electronic and zero-point Energies=           -422.984330
 Sum of electronic and thermal Energies=              -422.976394
 Sum of electronic and thermal Enthalpies=            -422.975450
 Sum of electronic and thermal Free Energies=         -423.016121

                     E (Thermal)             CV                S
                      KCal/Mol        Cal/Mol-Kelvin    Cal/Mol-Kelvin
 Total                  104.605             31.875             85.599
 Electronic               0.000              0.000              0.000
 Translational            0.889              2.981             40.409
 Rotational               0.889              2.981             28.216
 Vibrational            102.828             25.913             16.974
 Vibration     1          0.625              1.881              2.451
 Vibration     2          0.629              1.869              2.342
 Vibration     3          0.645              1.817              1.995
 Vibration     4          0.662              1.764              1.734
 Vibration     5          0.701              1.648              1.344
 Vibration     6          0.719              1.597              1.216
 Vibration     7          0.760              1.485              0.989
 Vibration     8          0.799              1.385              0.830
 Vibration     9          0.818              1.339              0.767
 Vibration    10          0.914              1.121              0.527

 Normal termination of Gaussian 09 at Mon Jan 27 18:56:42 2020.
