 Gaussian 09, Revision D.01,
 Gaussian 09:  ES64L-G09RevD.01 24-Apr-2013

 -----------------------------
 # b3lyp 6-31G(2df,p) opt Freq
 -----------------------------

 -----
 titel
 -----
 Symbolic Z-matrix:
 Charge =  0 Multiplicity = 1

 SCF Done:  E(RB3LYP) =  -423.217783614     A.U. after   14 cycles
 Optimization completed.
    -- Stationary point found.
 Normal termination of Gaussian 09 at Mon Jan 27 16:19:57 2020.

 ----------------------------------------------------------------------
 #N Geom=AllCheck Guess=TCheck SCRF=Check GenChk RB3LYP/6-31G(2df,p) Fr
 eq
 ----------------------------------------------------------------------

 Structure from the checkpoint file:  "/scratch/puck/g09_ed152ead-be70-4a6e-b6be-69e544cb5057/Gau-11960.chk"
 -----
 titel
 -----
 Charge =  0 Multiplicity = 1

                         Standard orientation:
 ---------------------------------------------------------------------
 Center     Atomic      Atomic             Coordinates (Angstroms)
 Number     Number       Type             X           Y           Z
 ---------------------------------------------------------------------
      1          6           0        2.094931   -0.347117   -0.761063
      2          6           0        0.822167   -0.336738    0.075404
      3          8           0        1.233740   -0.479115    1.454900
      4          6           0       -0.120178   -1.456457   -0.299238
      5          6           0       -1.442193   -1.315340   -0.414003
      6          6           0       -2.175516   -0.017523   -0.207683
      7          6           0       -1.314028    1.023651    0.535828
      8          6           0        0.095052    1.024769   -0.028620
      9          8           0        0.610360    2.001192   -0.516700
     10          1           0        1.866438   -0.201191   -1.819679
     11          1           0        2.754279    0.461017   -0.439780
     12          1           0        2.610075   -1.302852   -0.632533
     13          1           0        0.534214   -0.949042    1.920229
     14          1           0        0.344343   -2.426536   -0.464023
     15          1           0       -2.046765   -2.177951   -0.685536
     16          1           0       -2.478863    0.385231   -1.184389
     17          1           0       -3.109228   -0.196551    0.338212
     18          1           0       -1.732271    2.029165    0.461846
     19          1           0       -1.256428    0.750624    1.596314
 ---------------------------------------------------------------------

 SCF Done:  E(RB3LYP) =  -423.217783614     A.U. after    1 cycles

 The electronic state is 1-A.
 Alpha  occ. eigenvalues --  -19.14469 -19.12971 -10.26268 -10.24524 -10.20699
 Alpha  occ. eigenvalues --  -10.20390 -10.19537 -10.19450 -10.17044  -1.04329
 Alpha  occ. eigenvalues --   -1.01997  -0.83711  -0.77001  -0.73840  -0.68177
 Alpha  occ. eigenvalues --   -0.61487  -0.57860  -0.53637  -0.49236  -0.47972
 Alpha  occ. eigenvalues --   -0.46679  -0.44670  -0.42775  -0.41428  -0.39790
 Alpha  occ. eigenvalues --   -0.38775  -0.37948  -0.37749  -0.35358  -0.35076
 Alpha  occ. eigenvalues --   -0.32454  -0.30234  -0.26706  -0.23086
 Alpha virt. eigenvalues --   -0.01821   0.00186   0.07065   0.10216   0.11962
 Alpha virt. eigenvalues --    0.13603   0.13809   0.15482   0.16284   0.17381
 Alpha virt. eigenvalues --    0.18264   0.18740   0.20293   0.20648   0.23157

 Mulliken charges:
               1
     1  C   -0.415147
     2  C    0.247012
     3  O   -0.467271
     4  C   -0.123969
     5  C   -0.071258
     6  C   -0.262574
     7  C   -0.317140
     8  C    0.384673
     9  O   -0.317112
    10  H    0.123810
    11  H    0.141304
    12  H    0.112333
    13  H    0.280091
    14  H    0.098840
    15  H    0.100494
    16  H    0.132040
    17  H    0.115180
    18  H    0.120810
    19  H    0.117885
 Sum of Mulliken charges =   0.00000

 Dipole moment (field-independent basis, Debye):
    X=             -2.7712    Y=             -2.5645    Z=              0.3894  Tot=              3.7957
 Quadrupole moment (field-independent basis, Debye-Ang):
   XX=            -51.9075   YY=            -56.3768   ZZ=            -52.7551
   XY=             -1.9549   XZ=             -1.9108   YZ=              1.2863

  Exact polarizability:  92.915  -0.339  76.836  -0.863  -0.077  62.090
 Approx polarizability: 135.250   2.568 113.725   2.036  -5.820  98.679

                      1                      2                      3
                      A                      A                      A
 Frequencies --     58.9110               133.1316               205.9468
 Red. masses --      3.6943                 3.3477                 1.6619
 Frc consts  --      0.0076                 0.0350                 0.0415
 IR Inten    --      1.7176                 3.0842                34.0282

                      4                      5                      6
                      A                      A                      A
 Frequencies --    216.1323               243.4524               264.6793
 Red. masses --      1.1295                 1.7507                 2.3222
 Frc consts  --      0.0311                 0.0611                 0.0958
 IR Inten    --     34.2299                 1.4540                 2.0648

                      7                      8                      9
                      A                      A                      A
 Frequencies --    319.1062               345.1965               434.7777
 Red. masses --      3.2862                 3.1159                 2.6244
 Frc consts  --      0.1972                 0.2188                 0.2923
 IR Inten    --      6.1047                 3.3800                 0.2741

                     10                     11                     12
                      A                      A                      A
 Frequencies --    480.7915               490.3429               540.1494
 Red. masses --      3.9329                 3.0514                 3.2367
 Frc consts  --      0.5356                 0.4323                 0.5564
 IR Inten    --      3.8496                 6.0226                 4.8310

                     13                     14                     15
                      A                      A                      A
 Frequencies --    642.2196               669.7083               741.5243
 Red. masses --      3.8642                 3.4950                 1.6070
 Frc consts  --      0.9390                 0.9236                 0.5206
 IR Inten    --      0.6687                 7.0041                21.2990

                     16                     17                     18
                      A                      A                      A
 Frequencies --    807.5528               841.8617               881.8420
 Red. masses --      2.3988                 2.0701                 2.7948
 Frc consts  --      0.9217                 0.8644                 1.2805
 IR Inten    --      1.8110                 8.5297                 4.8520

                     19                     20                     21
                      A                      A                      A
 Frequencies --    930.4970               950.9128              1005.2707
 Red. masses --      2.3023                 2.2294                 1.2917
 Frc consts  --      1.1745                 1.1877                 0.7691
 IR Inten    --     27.6550                10.9060                 2.2763

                     22                     23                     24
                      A                      A                      A
 Frequencies --   1026.3531              1030.1168              1088.5464
 Red. masses --      1.9057                 1.8509                 2.3966
 Frc consts  --      1.1828                 1.1572                 1.6732
 IR Inten    --      8.9456                 4.4248                39.1363

                     25                     26                     27
                      A                      A                      A
 Frequencies --   1128.1280              1142.0743              1151.5230
 Red. masses --      2.3682                 1.6202                 1.4419
 Frc consts  --      1.7757                 1.2451                 1.1265
 IR Inten    --     65.3708                 1.4906                 3.1783

                     28                     29                     30
                      A                      A                      A
 Frequencies --   1187.1020              1253.2104              1291.5157
 Red. masses --      1.4557                 1.2284                 2.0162
 Frc consts  --      1.2087                 1.1367                 1.9815
 IR Inten    --     21.6518                 0.3068                 1.9910

                     31                     32                     33
                      A                      A                      A
 Frequencies --   1314.2795              1341.3801              1374.3386
 Red. masses --      1.5639                 1.4826                 1.6283
 Frc consts  --      1.5916                 1.5717                 1.8120
 IR Inten    --      9.4299                61.1627                 8.0203

                     34                     35                     36
                      A                      A                      A
 Frequencies --   1409.3589              1418.3627              1470.2518
 Red. masses --      1.3398                 1.5553                 1.0875
 Frc consts  --      1.5680                 1.8435                 1.3851
 IR Inten    --     11.9647                 6.5145                 8.6427

                     37                     38                     39
                      A                      A                      A
 Frequencies --   1480.7102              1482.5676              1484.8252
 Red. masses --      1.0641                 1.0868                 1.0613
 Frc consts  --      1.3745                 1.4074                 1.3786
 IR Inten    --      2.8078                 2.2753                 5.5972

                     40                     41                     42
                      A                      A                      A
 Frequencies --   1710.2845              1824.8878              3014.1690
 Red. masses --      7.0079                11.8883                 1.0664
 Frc consts  --     12.0774                23.3260                 5.7083
 IR Inten    --      3.0814               154.1035                20.5940

                     43                     44                     45
                      A                      A                      A
 Frequencies --   3039.6180              3054.0328              3056.1060
 Red. masses --      1.0688                 1.0353                 1.0889
 Frc consts  --      5.8179                 5.6896                 5.9920
 IR Inten    --      9.0350                14.7207                23.1198

                     46                     47                     48
                      A                      A                      A
 Frequencies --   3119.2293              3129.1590              3139.9851
 Red. masses --      1.0988                 1.1023                 1.0838
 Frc consts  --      6.2991                 6.3590                 6.2959
 IR Inten    --     14.7605                15.9457                 6.4447

                     49                     50                     51
                      A                      A                      A
 Frequencies --   3144.4468              3162.8108              3817.4222
 Red. masses --      1.1011                 1.0965                 1.0666
 Frc consts  --      6.4146                 6.4628                 9.1577
 IR Inten    --      8.1019                26.6321                19.6286

 - Thermochemistry -
 -------------------
 Temperature   298.150 Kelvin.  Pressure   1.00000 Atm.
 Atom     1 has atomic number  6 and mass  12.00000

 Molecular mass:   126.06808 amu.
 Principal axes and moments of inertia in atomic units:
                           1         2         3
     Eigenvalues --   803.051751078.341411419.77271
           X            0.99829  -0.05073  -0.02896
           Y            0.05178   0.99799   0.03659
           Z            0.02704  -0.03803   0.99891
 This molecule is an asymmetric top.
 Rotational symmetry number  1.
 Warning -- assumption of classical behavior for rotation
           may cause significant error
 Rotational temperatures (Kelvin)      0.10786     0.08032     0.06101
 Rotational constants (GHZ):           2.24735     1.67363     1.27115
 Zero-point vibrational energy     415647.3 (Joules/Mol)
                                   99.34209 (Kcal/Mol)
 Warning -- explicit consideration of  12 degrees of freedom as
           vibrations may cause significant error
 Vibrational temperatures:     84.76   191.55   296.31   310.97   350.27
          (Kelvin)            380.81   459.12   496.66   625.55   691.75
                              705.49   777.15   924.01   963.56  1066.89
                             1161.89  1211.25  1268.77  1338.78  1368.15
                             1446.36  1476.69  1482.11  1566.17  1623.12
                             1643.19  1656.78  1707.97  1803.09  1858.20
                             1890.95  1929.94  1977.36  2027.75  2040.71
                             2115.36  2130.41  2133.08  2136.33  2460.71
                             2625.60  4336.71  4373.33  4394.07  4397.05
                             4487.87  4502.16  4517.73  4524.15  4550.57
                             5492.41

 Zero-point correction=                           0.158312 (Hartree/Particle)
 Thermal correction to Energy=                    0.167346
 Thermal correction to Enthalpy=                  0.168290
 Thermal correction to Gibbs Free Energy=         0.124729
 Sum of electronic and zero-point Energies=           -423.059472
 Sum of electronic and thermal Energies=              -423.050438
 Sum of electronic and thermal Enthalpies=            -423.049494
 Sum of electronic and thermal Free Energies=         -423.093055

                     E (Thermal)             CV                S
                      KCal/Mol        Cal/Mol-Kelvin    Cal/Mol-Kelvin
 Total                  105.011             34.187             91.682
 Electronic               0.000              0.000              0.000
 Translational            0.889              2.981             40.409
 Rotational               0.889              2.981             28.599
 Vibrational            103.234             28.226             22.675
 Vibration     1          0.596              1.974              4.493
 Vibration     2          0.613              1.920              2.900
 Vibration     3          0.640              1.831              2.079
 Vibration     4          0.645              1.816              1.991
 Vibration     5          0.659              1.774              1.778
 Vibration     6          0.671              1.738              1.631
 Vibration     7          0.705              1.637              1.315
 Vibration     8          0.724              1.585              1.188
 Vibration     9          0.795              1.394              0.843
 Vibration    10          0.837              1.293              0.708
 Vibration    11          0.846              1.271              0.683
 Vibration    12          0.895              1.161              0.565

 Optimization completed.
    -- Stationary point found.
 Normal termination of Gaussian 09 at Mon Jan 27 18:14:38 2020.
