 Gaussian 09, Revision D.01,
 Gaussian 09:  ES64L-G09RevD.01 24-Apr-2013

 -----------------------------
 # b3lyp 6-31G(2df,p) opt Freq
 -----------------------------

 -----
 titel
 -----
 Symbolic Z-matrix:
 Charge =  0 Multiplicity = 1

 SCF Done:  E(RB3LYP) =  -423.195943304     A.U. after   14 cycles
 Optimization completed.
    -- Stationary point found.
 Normal termination of Gaussian 09 at Mon Jan 27 13:06:26 2020.

 ----------------------------------------------------------------------
 #N Geom=AllCheck Guess=TCheck SCRF=Check GenChk RB3LYP/6-31G(2df,p) Fr
 eq
 ----------------------------------------------------------------------

 Structure from the checkpoint file:  "/scratch/puck/g09_a9d206b5-9e5e-4387-a6ab-3f6f3a1ea1a9/Gau-157824.chk"
 -----
 titel
 -----
 Charge =  0 Multiplicity = 1

                         Standard orientation:
 ---------------------------------------------------------------------
 Center     Atomic      Atomic             Coordinates (Angstroms)
 Number     Number       Type             X           Y           Z
 ---------------------------------------------------------------------
      1          8           0       -0.709232    2.102162   -0.004032
      2          6           0       -0.811174    0.902563   -0.006036
      3          6           0       -2.104598    0.091883    0.112049
      4          8           0       -1.703432   -1.261910    0.197885
      5          6           0       -0.448611   -1.380762   -0.478641
      6          6           0        0.320485   -0.107551   -0.132115
      7          6           0        1.563324    0.279734   -0.971498
      8          6           0        2.483339   -0.199562    0.182760
      9          6           0        1.253537   -0.195905    1.128526
     10          1           0       -2.682783    0.363235    1.000072
     11          1           0       -2.727870    0.286252   -0.777420
     12          1           0        0.024277   -2.302939   -0.132007
     13          1           0       -0.601320   -1.454632   -1.568951
     14          1           0        1.667894   -0.214834   -1.941036
     15          1           0        1.598659    1.363015   -1.116715
     16          1           0        2.871571   -1.207299    0.012666
     17          1           0        3.317424    0.449851    0.455923
     18          1           0        1.099496   -1.061934    1.776524
     19          1           0        1.196153    0.714864    1.729861
 ---------------------------------------------------------------------

 SCF Done:  E(RB3LYP) =  -423.195943304     A.U. after    1 cycles

 The electronic state is 1-A.
 Alpha  occ. eigenvalues --  -19.15018 -19.13890 -10.27020 -10.23739 -10.23705
 Alpha  occ. eigenvalues --  -10.20166 -10.19466 -10.19033 -10.18983  -1.05677
 Alpha  occ. eigenvalues --   -1.03947  -0.85659  -0.73687  -0.73309  -0.67065
 Alpha  occ. eigenvalues --   -0.62573  -0.58049  -0.52800  -0.49967  -0.49231
 Alpha  occ. eigenvalues --   -0.47610  -0.46117  -0.44299  -0.41566  -0.39847
 Alpha  occ. eigenvalues --   -0.39687  -0.38834  -0.36398  -0.34432  -0.33656
 Alpha  occ. eigenvalues --   -0.31400  -0.31120  -0.26995  -0.23939
 Alpha virt. eigenvalues --   -0.02667   0.08148   0.08915   0.09689   0.12004
 Alpha virt. eigenvalues --    0.13492   0.13999   0.14783   0.15823   0.16929
 Alpha virt. eigenvalues --    0.17864   0.18653   0.19813   0.20375   0.21732

 Mulliken charges:
               1
     1  O   -0.317811
     2  C    0.302386
     3  C   -0.183109
     4  O   -0.252001
     5  C   -0.170053
     6  C    0.239322
     7  C   -0.284783
     8  C   -0.207878
     9  C   -0.265187
    10  H    0.139553
    11  H    0.119512
    12  H    0.116207
    13  H    0.092977
    14  H    0.101023
    15  H    0.126130
    16  H    0.105521
    17  H    0.106709
    18  H    0.110783
    19  H    0.120699
 Sum of Mulliken charges =   0.00000

 Dipole moment (field-independent basis, Debye):
    X=              1.0128    Y=             -1.5065    Z=             -0.3905  Tot=              1.8569
 Quadrupole moment (field-independent basis, Debye-Ang):
   XX=            -51.8524   YY=            -60.2840   ZZ=            -51.4670
   XY=             -1.7729   XZ=              0.6335   YZ=              1.1468

  Exact polarizability:  86.324  -2.741  73.592  -0.059   0.734  65.981
 Approx polarizability: 111.044  -3.089 117.284  -0.824  -0.367  98.920

                      1                      2                      3
                      A                      A                      A
 Frequencies --     78.3450               101.1012               189.3319
 Red. masses --      3.0610                 2.2602                 3.9340
 Frc consts  --      0.0111                 0.0136                 0.0831
 IR Inten    --      1.9382                 0.1286                 7.9120

                      4                      5                      6
                      A                      A                      A
 Frequencies --    191.3175               263.9636               352.7758
 Red. masses --      2.4759                 2.8182                 1.9599
 Frc consts  --      0.0534                 0.1157                 0.1437
 IR Inten    --      3.5032                 2.9327                 2.6704

                      7                      8                      9
                      A                      A                      A
 Frequencies --    393.5543               553.1842               568.3245
 Red. masses --      3.9715                 3.9712                 2.7704
 Frc consts  --      0.3624                 0.7160                 0.5272
 IR Inten    --      3.8494                 7.9117                 1.6400

                     10                     11                     12
                      A                      A                      A
 Frequencies --    636.0221               667.5055               727.4569
 Red. masses --      5.3307                 2.5205                 1.9678
 Frc consts  --      1.2705                 0.6617                 0.6136
 IR Inten    --      0.2022                11.4660                11.1668

                     13                     14                     15
                      A                      A                      A
 Frequencies --    785.7553               857.8290               874.7654
 Red. masses --      1.2786                 2.4965                 2.2848
 Frc consts  --      0.4651                 1.0824                 1.0301
 IR Inten    --      1.0627                 0.8963                 5.2606

                     16                     17                     18
                      A                      A                      A
 Frequencies --    927.5318               946.1821               951.3212
 Red. masses --      2.1676                 2.7323                 3.2559
 Frc consts  --      1.0987                 1.4412                 1.7361
 IR Inten    --      8.8544                 8.7829                 9.8678

                     19                     20                     21
                      A                      A                      A
 Frequencies --    960.7091               992.9990              1052.7560
 Red. masses --      2.6920                 1.7685                 4.0521
 Frc consts  --      1.4639                 1.0274                 2.6460
 IR Inten    --      0.6278                10.0292                30.5103

                     22                     23                     24
                      A                      A                      A
 Frequencies --   1065.7864              1095.8314              1127.8235
 Red. masses --      1.4423                 5.1333                 2.1574
 Frc consts  --      0.9653                 3.6319                 1.6168
 IR Inten    --      6.6102                44.5458                 0.4828

                     25                     26                     27
                      A                      A                      A
 Frequencies --   1196.3355              1199.6603              1215.8473
 Red. masses --      2.0933                 1.3475                 1.3370
 Frc consts  --      1.7652                 1.1426                 1.1645
 IR Inten    --      7.1080                25.0084                 7.6288

                     28                     29                     30
                      A                      A                      A
 Frequencies --   1229.9578              1259.6009              1261.1312
 Red. masses --      2.2924                 1.2294                 1.2733
 Frc consts  --      2.0432                 1.1493                 1.1932
 IR Inten    --     50.8533                 1.1285                 0.1228

                     31                     32                     33
                      A                      A                      A
 Frequencies --   1275.8599              1282.0647              1294.9542
 Red. masses --      1.4047                 1.7673                 1.4838
 Frc consts  --      1.3472                 1.7115                 1.4660
 IR Inten    --      1.2401                 3.6342                 3.8367

                     34                     35                     36
                      A                      A                      A
 Frequencies --   1324.0384              1387.3397              1470.7682
 Red. masses --      1.4173                 1.4253                 1.0837
 Frc consts  --      1.4639                 1.6163                 1.3812
 IR Inten    --      7.9302                15.7301                 2.8837

                     37                     38                     39
                      A                      A                      A
 Frequencies --   1474.8226              1481.0455              1501.1290
 Red. masses --      1.0819                 1.0868                 1.1188
 Frc consts  --      1.3865                 1.4045                 1.4854
 IR Inten    --      4.4253                 4.1231                 0.5984

                     40                     41                     42
                      A                      A                      A
 Frequencies --   1514.7176              1848.8069              2959.9053
 Red. masses --      1.0997                12.6269                 1.0707
 Frc consts  --      1.4865                25.4291                 5.5269
 IR Inten    --      0.7339               156.6595                49.9411

                     43                     44                     45
                      A                      A                      A
 Frequencies --   2969.8005              3053.8503              3060.7852
 Red. masses --      1.0708                 1.0571                 1.0566
 Frc consts  --      5.5644                 5.8083                 5.8319
 IR Inten    --     47.0352                38.8257                22.6220

                     46                     47                     48
                      A                      A                      A
 Frequencies --   3065.8221              3087.9125              3095.2374
 Red. masses --      1.0619                 1.0903                 1.0930
 Frc consts  --      5.8809                 6.1250                 6.1695
 IR Inten    --     33.0615                14.0531                19.9877

                     49                     50                     51
                      A                      A                      A
 Frequencies --   3103.1255              3114.5313              3127.3012
 Red. masses --      1.1072                 1.1084                 1.1080
 Frc consts  --      6.2819                 6.3349                 6.3847
 IR Inten    --      5.1705                 7.6397                43.7497

 - Thermochemistry -
 -------------------
 Temperature   298.150 Kelvin.  Pressure   1.00000 Atm.
 Atom     1 has atomic number  8 and mass  15.99491

 Molecular mass:   126.06808 amu.
 Principal axes and moments of inertia in atomic units:
                           1         2         3
     Eigenvalues --   678.811391178.323711526.44214
           X            0.99993  -0.01099   0.00368
           Y            0.01094   0.99987   0.01189
           Z           -0.00381  -0.01185   0.99992
 This molecule is an asymmetric top.
 Rotational symmetry number  1.
 Warning -- assumption of classical behavior for rotation
           may cause significant error
 Rotational temperatures (Kelvin)      0.12760     0.07351     0.05674
 Rotational constants (GHZ):           2.65868     1.53162     1.18232
 Zero-point vibrational energy     420000.0 (Joules/Mol)
                                  100.38242 (Kcal/Mol)
 Warning -- explicit consideration of   9 degrees of freedom as
           vibrations may cause significant error
 Vibrational temperatures:    112.72   145.46   272.41   275.26   379.78
          (Kelvin)            507.57   566.24   795.91   817.69   915.09
                              960.39  1046.65  1130.53  1234.22  1258.59
                             1334.51  1361.34  1368.74  1382.24  1428.70
                             1514.68  1533.43  1576.65  1622.68  1721.26
                             1726.04  1749.33  1769.63  1812.28  1814.48
                             1835.68  1844.60  1863.15  1904.99  1996.07
                             2116.10  2121.94  2130.89  2159.79  2179.34
                             2660.02  4258.64  4272.88  4393.80  4403.78
                             4411.03  4442.81  4453.35  4464.70  4481.11
                             4499.48

 Zero-point correction=                           0.159970 (Hartree/Particle)
 Thermal correction to Energy=                    0.168042
 Thermal correction to Enthalpy=                  0.168987
 Thermal correction to Gibbs Free Energy=         0.126969
 Sum of electronic and zero-point Energies=           -423.035974
 Sum of electronic and thermal Energies=              -423.027901
 Sum of electronic and thermal Enthalpies=            -423.026957
 Sum of electronic and thermal Free Energies=         -423.068975

                     E (Thermal)             CV                S
                      KCal/Mol        Cal/Mol-Kelvin    Cal/Mol-Kelvin
 Total                  105.448             30.579             88.434
 Electronic               0.000              0.000              0.000
 Translational            0.889              2.981             40.409
 Rotational               0.889              2.981             28.592
 Vibrational            103.671             24.617             19.434
 Vibration     1          0.600              1.964              3.932
 Vibration     2          0.604              1.948              3.433
 Vibration     3          0.633              1.855              2.234
 Vibration     4          0.634              1.852              2.215
 Vibration     5          0.671              1.739              1.635
 Vibration     6          0.729              1.570              1.154
 Vibration     7          0.761              1.484              0.987
 Vibration     8          0.909              1.133              0.538
 Vibration     9          0.924              1.100              0.507

 Normal termination of Gaussian 09 at Mon Jan 27 13:54:33 2020.
