 Gaussian 09, Revision D.01,
 Gaussian 09:  ES64L-G09RevD.01 24-Apr-2013

 -----------------------------
 # b3lyp 6-31G(2df,p) opt Freq
 -----------------------------

 -----
 titel
 -----
 Symbolic Z-matrix:
 Charge =  0 Multiplicity = 1

 SCF Done:  E(RB3LYP) =  -423.209743147     A.U. after   14 cycles
 Optimization completed.
    -- Stationary point found.
 Normal termination of Gaussian 09 at Tue Jan 28 02:24:04 2020.

 ----------------------------------------------------------------------
 #N Geom=AllCheck Guess=TCheck SCRF=Check GenChk RB3LYP/6-31G(2df,p) Fr
 eq
 ----------------------------------------------------------------------

 Structure from the checkpoint file:  "/scratch/puck/g09_4ad36f2a-6d90-4da9-94eb-92a6d4a745f2/Gau-105613.chk"
 -----
 titel
 -----
 Charge =  0 Multiplicity = 1

                         Standard orientation:
 ---------------------------------------------------------------------
 Center     Atomic      Atomic             Coordinates (Angstroms)
 Number     Number       Type             X           Y           Z
 ---------------------------------------------------------------------
      1          6           0        2.400230   -1.106438   -0.055165
      2          6           0        1.089304   -0.516275    0.457456
      3          6           0       -0.191476   -1.308231    0.109424
      4          6           0       -1.306300   -0.273772   -0.018402
      5          8           0       -2.463725   -0.623731   -0.699610
      6          6           0       -1.463043    0.703226    1.079249
      7          6           0       -0.653561    1.111355   -0.161575
      8          6           0        0.816640    0.898176   -0.102022
      9          8           0        1.669280    1.656437   -0.499695
     10          1           0        2.360689   -1.264163   -1.138040
     11          1           0        3.226064   -0.420107    0.146657
     12          1           0        2.615684   -2.067227    0.421767
     13          1           0        1.157241   -0.410041    1.549747
     14          1           0       -0.059927   -1.801287   -0.863755
     15          1           0       -0.434730   -2.088907    0.837400
     16          1           0       -2.218507   -0.892773   -1.592446
     17          1           0       -2.434304    1.179615    1.146885
     18          1           0       -0.955780    0.561502    2.027633
     19          1           0       -1.051621    1.893493   -0.795197
 ---------------------------------------------------------------------

 SCF Done:  E(RB3LYP) =  -423.209743147     A.U. after    1 cycles

 The electronic state is 1-A.
 Alpha  occ. eigenvalues --  -19.15922 -19.12194 -10.26123 -10.25752 -10.20342
 Alpha  occ. eigenvalues --  -10.19861 -10.19747 -10.19720 -10.17844  -1.04761
 Alpha  occ. eigenvalues --   -1.03212  -0.88476  -0.79321  -0.70569  -0.67528
 Alpha  occ. eigenvalues --   -0.61600  -0.58329  -0.53429  -0.52594  -0.49061
 Alpha  occ. eigenvalues --   -0.45473  -0.44803  -0.42356  -0.41216  -0.40504
 Alpha  occ. eigenvalues --   -0.38779  -0.38144  -0.37248  -0.36266  -0.33864
 Alpha  occ. eigenvalues --   -0.32775  -0.30279  -0.26562  -0.23307
 Alpha virt. eigenvalues --   -0.00916   0.06792   0.08686   0.09719   0.11443
 Alpha virt. eigenvalues --    0.12936   0.14021   0.16138   0.16727   0.17052
 Alpha virt. eigenvalues --    0.18708   0.19257   0.20046   0.21740   0.22783

 Mulliken charges:
               1
     1  C   -0.401689
     2  C   -0.114336
     3  C   -0.297167
     4  C    0.417930
     5  O   -0.462152
     6  C   -0.324558
     7  C   -0.228768
     8  C    0.420655
     9  O   -0.342055
    10  H    0.118185
    11  H    0.139052
    12  H    0.111544
    13  H    0.104378
    14  H    0.095853
    15  H    0.111386
    16  H    0.284733
    17  H    0.135688
    18  H    0.122602
    19  H    0.108719
 Sum of Mulliken charges =   0.00000

 Dipole moment (field-independent basis, Debye):
    X=             -1.1592    Y=             -2.0574    Z=              0.2445  Tot=              2.3741
 Quadrupole moment (field-independent basis, Debye-Ang):
   XX=            -59.9740   YY=            -56.0838   ZZ=            -48.5013
   XY=             -5.9687   XZ=              3.1791   YZ=              2.6849

  Exact polarizability:  87.104   0.015  74.365  -2.363  -0.511  66.120
 Approx polarizability: 122.382  11.018 111.637  -6.218  -3.485 104.962

                      1                      2                      3
                      A                      A                      A
 Frequencies --     96.6984               149.9190               191.5337
 Red. masses --      3.4654                 4.0990                 1.0449
 Frc consts  --      0.0191                 0.0543                 0.0226
 IR Inten    --      1.4817                 3.4191                 0.3766

                      4                      5                      6
                      A                      A                      A
 Frequencies --    253.3657               293.2853               354.5879
 Red. masses --      3.1021                 1.9794                 1.6275
 Frc consts  --      0.1173                 0.1003                 0.1206
 IR Inten    --      2.2294                10.6399                41.3752

                      7                      8                      9
                      A                      A                      A
 Frequencies --    364.3327               399.0327               423.1830
 Red. masses --      2.2329                 2.8165                 3.2168
 Frc consts  --      0.1746                 0.2642                 0.3394
 IR Inten    --     53.0630                11.2213                 5.2194

                     10                     11                     12
                      A                      A                      A
 Frequencies --    491.9433               530.6905               584.9256
 Red. masses --      3.7416                 3.5567                 4.1822
 Frc consts  --      0.5335                 0.5902                 0.8431
 IR Inten    --      3.9837                 8.3057                 3.9397

                     13                     14                     15
                      A                      A                      A
 Frequencies --    688.1847               690.6584               778.5477
 Red. masses --      4.5650                 2.8512                 3.2030
 Frc consts  --      1.2738                 0.8013                 1.1439
 IR Inten    --      1.8312                 0.5501                 2.0268

                     16                     17                     18
                      A                      A                      A
 Frequencies --    850.1093               900.7518               926.1065
 Red. masses --      3.0230                 1.7062                 1.5450
 Frc consts  --      1.2872                 0.8156                 0.7807
 IR Inten    --     35.7806                 4.5305                19.5939

                     19                     20                     21
                      A                      A                      A
 Frequencies --    934.5031               948.8666               976.1854
 Red. masses --      1.6211                 1.6608                 1.6750
 Frc consts  --      0.8341                 0.8810                 0.9405
 IR Inten    --      6.4783                 9.9076                14.5968

                     22                     23                     24
                      A                      A                      A
 Frequencies --   1046.0322              1062.9461              1074.7297
 Red. masses --      1.4709                 2.1774                 1.3809
 Frc consts  --      0.9482                 1.4495                 0.9398
 IR Inten    --      1.2172                 3.2387                 7.1980

                     25                     26                     27
                      A                      A                      A
 Frequencies --   1109.4978              1136.2409              1180.3338
 Red. masses --      1.7129                 2.0069                 2.0319
 Frc consts  --      1.2423                 1.5266                 1.6679
 IR Inten    --      6.1908                 5.3602                50.8580

                     28                     29                     30
                      A                      A                      A
 Frequencies --   1194.3831              1232.4203              1255.7113
 Red. masses --      1.4817                 2.0234                 1.8790
 Frc consts  --      1.2453                 1.8107                 1.7457
 IR Inten    --      1.8343                41.3931                29.2831

                     31                     32                     33
                      A                      A                      A
 Frequencies --   1281.8035              1295.6739              1337.4218
 Red. masses --      1.4496                 1.5402                 2.2156
 Frc consts  --      1.4033                 1.5234                 2.3349
 IR Inten    --     19.7862                32.2461               131.8232

                     34                     35                     36
                      A                      A                      A
 Frequencies --   1357.2598              1410.7140              1427.0244
 Red. masses --      1.9311                 1.2321                 1.5530
 Frc consts  --      2.0960                 1.4447                 1.8633
 IR Inten    --     11.0810                 2.0045                 2.7361

                     37                     38                     39
                      A                      A                      A
 Frequencies --   1481.7185              1493.1865              1496.8630
 Red. masses --      1.2106                 1.0611                 1.0496
 Frc consts  --      1.5659                 1.3939                 1.3856
 IR Inten    --      9.4381                10.7439                 4.0859

                     40                     41                     42
                      A                      A                      A
 Frequencies --   1507.1269              1821.0901              3004.4671
 Red. masses --      1.3538                12.2579                 1.0804
 Frc consts  --      1.8117                23.9514                 5.7459
 IR Inten    --      5.6463               247.9001                 2.6890

                     43                     44                     45
                      A                      A                      A
 Frequencies --   3016.7575              3040.8441              3074.9739
 Red. masses --      1.0655                 1.0362                 1.0979
 Frc consts  --      5.7134                 5.6452                 6.1165
 IR Inten    --     37.7268                27.8803                22.7430

                     46                     47                     48
                      A                      A                      A
 Frequencies --   3106.8740              3127.4498              3135.2929
 Red. masses --      1.1016                 1.1007                 1.0550
 Frc consts  --      6.2651                 6.3429                 6.1102
 IR Inten    --     27.1560                11.3383                 9.3158

                     49                     50                     51
                      A                      A                      A
 Frequencies --   3204.1954              3227.9303              3790.9583
 Red. masses --      1.0930                 1.1153                 1.0658
 Frc consts  --      6.6114                 6.8471                 9.0243
 IR Inten    --      1.8135                 3.6498                19.0091

 - Thermochemistry -
 -------------------
 Temperature   298.150 Kelvin.  Pressure   1.00000 Atm.
 Atom     1 has atomic number  6 and mass  12.00000

 Molecular mass:   126.06808 amu.
 Principal axes and moments of inertia in atomic units:
                           1         2         3
     Eigenvalues --   649.267911307.072351649.82590
           X            0.99765  -0.06852  -0.00077
           Y            0.06853   0.99743   0.02069
           Z           -0.00065  -0.02069   0.99979
 This molecule is an asymmetric top.
 Rotational symmetry number  1.
 Warning -- assumption of classical behavior for rotation
           may cause significant error
 Rotational temperatures (Kelvin)      0.13340     0.06627     0.05250
 Rotational constants (GHZ):           2.77966     1.38075     1.09390
 Zero-point vibrational energy     417253.5 (Joules/Mol)
                                   99.72597 (Kcal/Mol)
 Warning -- explicit consideration of  12 degrees of freedom as
           vibrations may cause significant error
 Vibrational temperatures:    139.13   215.70   275.57   364.54   421.97
          (Kelvin)            510.17   524.19   574.12   608.87   707.80
                              763.54   841.58   990.14   993.70  1120.16
                             1223.12  1295.98  1332.46  1344.54  1365.21
                             1404.51  1505.01  1529.34  1546.29  1596.32
                             1634.80  1698.23  1718.45  1773.18  1806.69
                             1844.23  1864.18  1924.25  1952.79  2029.70
                             2053.17  2131.86  2148.36  2153.65  2168.42
                             2620.14  4322.75  4340.44  4375.09  4424.20
                             4470.09  4499.70  4510.98  4610.12  4644.27
                             5454.34

 Zero-point correction=                           0.158923 (Hartree/Particle)
 Thermal correction to Energy=                    0.167418
 Thermal correction to Enthalpy=                  0.168362
 Thermal correction to Gibbs Free Energy=         0.126144
 Sum of electronic and zero-point Energies=           -423.050820
 Sum of electronic and thermal Energies=              -423.042325
 Sum of electronic and thermal Enthalpies=            -423.041381
 Sum of electronic and thermal Free Energies=         -423.083599

                     E (Thermal)             CV                S
                      KCal/Mol        Cal/Mol-Kelvin    Cal/Mol-Kelvin
 Total                  105.056             33.184             88.856
 Electronic               0.000              0.000              0.000
 Translational            0.889              2.981             40.409
 Rotational               0.889              2.981             28.728
 Vibrational            103.279             27.223             19.719
 Vibration     1          0.603              1.952              3.520
 Vibration     2          0.618              1.903              2.673
 Vibration     3          0.634              1.852              2.213
 Vibration     4          0.665              1.757              1.707
 Vibration     5          0.688              1.686              1.455
 Vibration     6          0.730              1.566              1.146
 Vibration     7          0.738              1.546              1.104
 Vibration     8          0.765              1.472              0.966
 Vibration     9          0.785              1.420              0.881
 Vibration    10          0.848              1.268              0.679
 Vibration    11          0.886              1.182              0.586
 Vibration    12          0.942              1.064              0.476

 Optimization completed.
    -- Stationary point found.
 Normal termination of Gaussian 09 at Tue Jan 28 03:07:07 2020.
