 Gaussian 09, Revision D.01,
 Gaussian 09:  ES64L-G09RevD.01 24-Apr-2013

 -----------------------------
 # b3lyp 6-31G(2df,p) opt Freq
 -----------------------------

 -----
 titel
 -----
 Symbolic Z-matrix:
 Charge =  0 Multiplicity = 1

 SCF Done:  E(RB3LYP) =  -423.207207926     A.U. after   14 cycles
 Optimization completed.
    -- Stationary point found.
 Normal termination of Gaussian 09 at Mon Jan 27 23:07:20 2020.

 ----------------------------------------------------------------------
 #N Geom=AllCheck Guess=TCheck SCRF=Check GenChk RB3LYP/6-31G(2df,p) Fr
 eq
 ----------------------------------------------------------------------

 Structure from the checkpoint file:  "/scratch/puck/g09_6e92b335-40c6-4dbf-875f-67ae4b93812a/Gau-67591.chk"
 -----
 titel
 -----
 Charge =  0 Multiplicity = 1

                         Standard orientation:
 ---------------------------------------------------------------------
 Center     Atomic      Atomic             Coordinates (Angstroms)
 Number     Number       Type             X           Y           Z
 ---------------------------------------------------------------------
      1          8           0       -0.964388    1.828427   -0.096995
      2          6           0       -1.425619    0.500802   -0.007630
      3          6           0       -0.837066   -0.462016   -1.064980
      4          6           0       -0.971548   -1.580291    0.009098
      5          6           0       -0.836250   -0.455381    1.074891
      6          6           0        0.638550   -0.122134    1.309234
      7          6           0        1.431178    0.011274    0.001788
      8          8           0        2.620267    0.218131    0.003529
      9          6           0        0.639955   -0.134044   -1.302867
     10          1           0       -1.381059    2.350380    0.595746
     11          1           0       -2.522879    0.454519   -0.008938
     12          1           0       -1.380123   -0.575967   -2.005859
     13          1           0       -1.962992   -2.039118    0.010856
     14          1           0       -0.212454   -2.367713    0.011396
     15          1           0       -1.381829   -0.566752    2.015737
     16          1           0        0.754490    0.823017    1.851438
     17          1           0        1.127138   -0.891728    1.918047
     18          1           0        0.753038    0.804815   -1.855076
     19          1           0        1.124437   -0.913175   -1.902829
 ---------------------------------------------------------------------

 SCF Done:  E(RB3LYP) =  -423.207207926     A.U. after    1 cycles

 The electronic state is 1-A.
 Alpha  occ. eigenvalues --  -19.14909 -19.11681 -10.26142 -10.23723 -10.19446
 Alpha  occ. eigenvalues --  -10.19401 -10.18911 -10.18678 -10.18438  -1.03288
 Alpha  occ. eigenvalues --   -1.02834  -0.87055  -0.74538  -0.73611  -0.65754
 Alpha  occ. eigenvalues --   -0.61131  -0.56421  -0.53151  -0.52360  -0.46852
 Alpha  occ. eigenvalues --   -0.46213  -0.44338  -0.42394  -0.42214  -0.40474
 Alpha  occ. eigenvalues --   -0.38673  -0.37853  -0.35439  -0.34168  -0.32221
 Alpha  occ. eigenvalues --   -0.31742  -0.30351  -0.26965  -0.22965
 Alpha virt. eigenvalues --   -0.00834   0.06145   0.09367   0.11460   0.12697
 Alpha virt. eigenvalues --    0.14074   0.14495   0.16105   0.16331   0.16702
 Alpha virt. eigenvalues --    0.17907   0.18921   0.19818   0.21894   0.22960

 Mulliken charges:
               1
     1  O   -0.431991
     2  C    0.144397
     3  C   -0.061277
     4  C   -0.240448
     5  C   -0.089903
     6  C   -0.304273
     7  C    0.408468
     8  O   -0.322780
     9  C   -0.309281
    10  H    0.287921
    11  H    0.070436
    12  H    0.068548
    13  H    0.103075
    14  H    0.101422
    15  H    0.061536
    16  H    0.124833
    17  H    0.124130
    18  H    0.142877
    19  H    0.122309
 Sum of Mulliken charges =   0.00000

 Dipole moment (field-independent basis, Debye):
    X=             -3.6875    Y=             -0.5320    Z=              0.9523  Tot=              3.8454
 Quadrupole moment (field-independent basis, Debye-Ang):
   XX=            -60.2499   YY=            -50.9587   ZZ=            -50.3968
   XY=             -3.0105   XZ=             -1.5961   YZ=              2.9164

  Exact polarizability:  79.518   1.653  69.650  -0.625   1.250  73.114
 Approx polarizability: 116.396   2.758 104.209  -1.173   1.175 105.626

                      1                      2                      3
                      A                      A                      A
 Frequencies --     35.2215               211.6537               235.6588
 Red. masses --      4.4245                 3.6798                 2.3941
 Frc consts  --      0.0032                 0.0971                 0.0783
 IR Inten    --      4.0025                 4.9410                 1.7982

                      4                      5                      6
                      A                      A                      A
 Frequencies --    272.1318               361.8667               364.8451
 Red. masses --      1.1010                 2.0410                 2.7689
 Frc consts  --      0.0480                 0.1575                 0.2172
 IR Inten    --    108.6592                 1.0871                 5.1331

                      7                      8                      9
                      A                      A                      A
 Frequencies --    451.4122               484.6979               528.8213
 Red. masses --      5.2430                 2.2144                 4.5649
 Frc consts  --      0.6295                 0.3065                 0.7521
 IR Inten    --      9.7940                 3.9368                 2.4352

                     10                     11                     12
                      A                      A                      A
 Frequencies --    551.9329               599.2602               722.4891
 Red. masses --      4.3680                 5.0854                 4.0546
 Frc consts  --      0.7840                 1.0760                 1.2470
 IR Inten    --      2.1265                 3.2402                 1.7558

                     13                     14                     15
                      A                      A                      A
 Frequencies --    771.9816               794.4160               857.3357
 Red. masses --      1.7710                 2.0328                 2.2645
 Frc consts  --      0.6218                 0.7558                 0.9807
 IR Inten    --      0.6898                 0.4190                 7.5463

                     16                     17                     18
                      A                      A                      A
 Frequencies --    876.9318               892.7561               901.5732
 Red. masses --      2.6156                 2.3988                 2.2244
 Frc consts  --      1.1851                 1.1265                 1.0653
 IR Inten    --      0.3963                 3.2165                 4.0567

                     19                     20                     21
                      A                      A                      A
 Frequencies --    994.3608              1025.4185              1065.5339
 Red. masses --      3.0125                 1.6265                 1.2505
 Frc consts  --      1.7550                 1.0077                 0.8365
 IR Inten    --     33.7347                 0.1608                 9.8726

                     22                     23                     24
                      A                      A                      A
 Frequencies --   1073.0376              1077.8860              1084.1265
 Red. masses --      2.2685                 1.4148                 1.4788
 Frc consts  --      1.5389                 0.9685                 1.0241
 IR Inten    --      4.0229                 7.2944                 9.6524

                     25                     26                     27
                      A                      A                      A
 Frequencies --   1156.8534              1175.6767              1197.5109
 Red. masses --      4.3826                 1.2431                 1.9831
 Frc consts  --      3.4557                 1.0124                 1.6755
 IR Inten    --     76.1215                20.5627                48.2991

                     28                     29                     30
                      A                      A                      A
 Frequencies --   1215.4327              1219.4840              1260.6313
 Red. masses --      1.4031                 1.2545                 1.4081
 Frc consts  --      1.2212                 1.0992                 1.3184
 IR Inten    --      1.5894                 0.5798                 0.3593

                     31                     32                     33
                      A                      A                      A
 Frequencies --   1272.7196              1299.5993              1320.3629
 Red. masses --      1.6040                 1.5609                 1.8505
 Frc consts  --      1.5308                 1.5533                 1.9008
 IR Inten    --     19.3558                12.6818                 4.0914

                     34                     35                     36
                      A                      A                      A
 Frequencies --   1338.2207              1357.8226              1373.7857
 Red. masses --      1.6264                 1.5407                 1.4709
 Frc consts  --      1.7161                 1.6736                 1.6356
 IR Inten    --     11.7585                14.5976                 1.0561

                     37                     38                     39
                      A                      A                      A
 Frequencies --   1422.0133              1441.2024              1446.5054
 Red. masses --      1.3378                 1.0873                 1.1253
 Frc consts  --      1.5938                 1.3306                 1.3873
 IR Inten    --      2.8288                10.7055                 3.0425

                     40                     41                     42
                      A                      A                      A
 Frequencies --   1499.6220              1820.7305              3010.5525
 Red. masses --      1.1290                12.6447                 1.0850
 Frc consts  --      1.4959                24.6973                 5.7937
 IR Inten    --      4.8613               187.1800                47.7913

                     43                     44                     45
                      A                      A                      A
 Frequencies --   3040.8833              3044.5436              3055.7685
 Red. masses --      1.0610                 1.0619                 1.0607
 Frc consts  --      5.7803                 5.7995                 5.8355
 IR Inten    --     10.9001                17.1481                24.2231

                     46                     47                     48
                      A                      A                      A
 Frequencies --   3069.0534              3080.2895              3080.9596
 Red. masses --      1.0853                 1.0938                 1.0954
 Frc consts  --      6.0232                 6.1146                 6.1264
 IR Inten    --     67.1321                19.9351                26.9304

                     49                     50                     51
                      A                      A                      A
 Frequencies --   3088.3901              3113.2830              3822.0814
 Red. masses --      1.0998                 1.1072                 1.0663
 Frc consts  --      6.1805                 6.3226                 9.1772
 IR Inten    --      7.2676                31.0413                29.7431

 - Thermochemistry -
 -------------------
 Temperature   298.150 Kelvin.  Pressure   1.00000 Atm.
 Atom     1 has atomic number  8 and mass  15.99491

 Molecular mass:   126.06808 amu.
 Principal axes and moments of inertia in atomic units:
                           1         2         3
     Eigenvalues --   725.570491151.562571225.39807
           X            0.99995   0.00874  -0.00549
           Y           -0.00835   0.99771   0.06717
           Z            0.00607  -0.06712   0.99773
 This molecule is an asymmetric top.
 Rotational symmetry number  1.
 Warning -- assumption of classical behavior for rotation
           may cause significant error
 Rotational temperatures (Kelvin)      0.11937     0.07521     0.07068
 Rotational constants (GHZ):           2.48734     1.56721     1.47278
 Zero-point vibrational energy     421440.4 (Joules/Mol)
                                  100.72666 (Kcal/Mol)
 Warning -- explicit consideration of  11 degrees of freedom as
           vibrations may cause significant error
 Vibrational temperatures:     50.68   304.52   339.06   391.54   520.64
          (Kelvin)            524.93   649.48   697.37   760.85   794.11
                              862.20  1039.50  1110.71  1142.99  1233.51
                             1261.71  1284.48  1297.16  1430.66  1475.35
                             1533.06  1543.86  1550.84  1559.81  1664.45
                             1691.53  1722.95  1748.73  1754.56  1813.76
                             1831.16  1869.83  1899.71  1925.40  1953.60
                             1976.57  2045.96  2073.57  2081.20  2157.62
                             2619.62  4331.51  4375.15  4380.41  4396.56
                             4415.68  4431.84  4432.81  4443.50  4479.31
                             5499.12

 Zero-point correction=                           0.160518 (Hartree/Particle)
 Thermal correction to Energy=                    0.168336
 Thermal correction to Enthalpy=                  0.169280
 Thermal correction to Gibbs Free Energy=         0.127799
 Sum of electronic and zero-point Energies=           -423.046690
 Sum of electronic and thermal Energies=              -423.038872
 Sum of electronic and thermal Enthalpies=            -423.037928
 Sum of electronic and thermal Free Energies=         -423.079409

                     E (Thermal)             CV                S
                      KCal/Mol        Cal/Mol-Kelvin    Cal/Mol-Kelvin
 Total                  105.633             30.973             87.305
 Electronic               0.000              0.000              0.000
 Translational            0.889              2.981             40.409
 Rotational               0.889              2.981             28.417
 Vibrational            103.855             25.012             18.480
 Vibration     1          0.594              1.982              5.511
 Vibration     2          0.643              1.823              2.029
 Vibration     3          0.655              1.786              1.835
 Vibration     4          0.675              1.725              1.583
 Vibration     5          0.736              1.551              1.114
 Vibration     6          0.738              1.545              1.101
 Vibration     7          0.810              1.358              0.792
 Vibration     8          0.841              1.284              0.698
 Vibration     9          0.884              1.186              0.590
 Vibration    10          0.907              1.135              0.540
 Vibration    11          0.957              1.033              0.451

 Optimization completed.
    -- Stationary point found.
 Normal termination of Gaussian 09 at Mon Jan 27 23:52:15 2020.
