 Gaussian 09, Revision D.01,
 Gaussian 09:  ES64L-G09RevD.01 24-Apr-2013

 -----------------------------
 # b3lyp 6-31G(2df,p) opt Freq
 -----------------------------

 -----
 titel
 -----
 Symbolic Z-matrix:
 Charge =  0 Multiplicity = 1

 SCF Done:  E(RB3LYP) =  -423.084665112     A.U. after   14 cycles
 Optimization completed.
    -- Stationary point found.
 Normal termination of Gaussian 09 at Tue Jan 28 12:48:33 2020.

 ----------------------------------------------------------------------
 #N Geom=AllCheck Guess=TCheck SCRF=Check GenChk RB3LYP/6-31G(2df,p) Fr
 eq
 ----------------------------------------------------------------------

 Structure from the checkpoint file:  "/scratch/puck/g09_78b13cd3-97ae-4ec9-a133-5e3cd116db6c/Gau-10932.chk"
 -----
 titel
 -----
 Charge =  0 Multiplicity = 1

                         Standard orientation:
 ---------------------------------------------------------------------
 Center     Atomic      Atomic             Coordinates (Angstroms)
 Number     Number       Type             X           Y           Z
 ---------------------------------------------------------------------
      1          6           0        1.226591    2.012164   -0.004368
      2          6           0        0.675103    0.620210   -0.117615
      3          6           0       -0.733898    0.121890   -0.539479
      4          6           0       -1.928869    0.478678    0.329602
      5          8           0       -3.097531   -0.248979   -0.021719
      6          6           0        0.029071   -1.195751   -0.250265
      7          6           0        1.363266   -0.611836   -0.798368
      8          8           0        2.153618   -0.971441    0.373051
      9          6           0        0.860174   -0.558210    0.906195
     10          1           0        2.275513    1.970860    0.307236
     11          1           0        1.174009    2.539355   -0.963011
     12          1           0        0.674869    2.604604    0.733332
     13          1           0       -0.979788    0.280520   -1.596247
     14          1           0       -1.679684    0.342579    1.395320
     15          1           0       -2.191824    1.533764    0.194407
     16          1           0       -2.902558   -1.185290    0.087669
     17          1           0       -0.295464   -2.234465   -0.321736
     18          1           0        1.812258   -0.703325   -1.787553
     19          1           0        0.715341   -0.588102    1.985721
 ---------------------------------------------------------------------

 SCF Done:  E(RB3LYP) =  -423.084665112     A.U. after    1 cycles

 The electronic state is 1-A.
 Alpha  occ. eigenvalues --  -19.13577 -19.13097 -10.24883 -10.24852 -10.22836
 Alpha  occ. eigenvalues --  -10.21036 -10.20487 -10.19535 -10.18434  -1.06317
 Alpha  occ. eigenvalues --   -1.01627  -0.87278  -0.73835  -0.71638  -0.65845
 Alpha  occ. eigenvalues --   -0.61552  -0.60822  -0.52814  -0.50964  -0.48199
 Alpha  occ. eigenvalues --   -0.46569  -0.45460  -0.44386  -0.41856  -0.40863
 Alpha  occ. eigenvalues --   -0.38524  -0.38349  -0.34754  -0.31911  -0.31217
 Alpha  occ. eigenvalues --   -0.30138  -0.29988  -0.26514  -0.23450
 Alpha virt. eigenvalues --    0.06397   0.08086   0.09859   0.10738   0.12061
 Alpha virt. eigenvalues --    0.12359   0.13485   0.14035   0.14872   0.15868
 Alpha virt. eigenvalues --    0.16254   0.17755   0.18838   0.19389   0.21417

 Mulliken charges:
               1
     1  C   -0.531354
     2  C    0.295075
     3  C   -0.107101
     4  C   -0.085440
     5  O   -0.418098
     6  C   -0.116366
     7  C    0.045822
     8  O   -0.332249
     9  C    0.040771
    10  H    0.138434
    11  H    0.123953
    12  H    0.124283
    13  H    0.074813
    14  H    0.082603
    15  H    0.111447
    16  H    0.282768
    17  H    0.080067
    18  H    0.094604
    19  H    0.095967
 Sum of Mulliken charges =   0.00000

 Dipole moment (field-independent basis, Debye):
    X=             -0.1789    Y=              0.2663    Z=             -0.1681  Tot=              0.3622
 Quadrupole moment (field-independent basis, Debye-Ang):
   XX=            -65.7668   YY=            -50.5967   ZZ=            -50.5807
   XY=              5.1604   XZ=             -3.1332   YZ=              0.4674

  Exact polarizability:  80.222   1.258  76.406  -0.463   0.492  68.149
 Approx polarizability: 113.513  -0.866 110.522   1.431  -0.426 108.454

                      1                      2                      3
                      A                      A                      A
 Frequencies --     86.0542               144.1856               198.1533
 Red. masses --      3.6753                 3.4783                 1.9239
 Frc consts  --      0.0160                 0.0426                 0.0445
 IR Inten    --      3.6053                 0.5610                 8.7502

                      4                      5                      6
                      A                      A                      A
 Frequencies --    226.5320               231.4099               293.9811
 Red. masses --      1.6384                 1.6187                 1.5012
 Frc consts  --      0.0495                 0.0511                 0.0764
 IR Inten    --      5.0625                 1.6516                45.2255

                      7                      8                      9
                      A                      A                      A
 Frequencies --    326.8953               392.4579               509.4157
 Red. masses --      1.7853                 5.6420                 3.4055
 Frc consts  --      0.1124                 0.5120                 0.5207
 IR Inten    --     49.1480                 6.7687                 0.7896

                     10                     11                     12
                      A                      A                      A
 Frequencies --    580.1162               674.2202               738.6793
 Red. masses --      2.9634                 3.4930                 3.5031
 Frc consts  --      0.5876                 0.9355                 1.1262
 IR Inten    --      0.7324                 3.5112                 1.0500

                     13                     14                     15
                      A                      A                      A
 Frequencies --    775.4729               811.7509               822.9351
 Red. masses --      2.9857                 3.0774                 1.9845
 Frc consts  --      1.0579                 1.1947                 0.7918
 IR Inten    --      1.3173                 9.3225                 0.1071

                     16                     17                     18
                      A                      A                      A
 Frequencies --    863.2087               884.3194               904.5707
 Red. masses --      2.3478                 2.9944                 2.6072
 Frc consts  --      1.0307                 1.3797                 1.2569
 IR Inten    --      8.9924                11.0296                53.7538

                     19                     20                     21
                      A                      A                      A
 Frequencies --    933.5943               991.3430              1021.3715
 Red. masses --      2.3065                 1.3196                 1.6791
 Frc consts  --      1.1845                 0.7641                 1.0320
 IR Inten    --      3.1159                 5.1295                24.5093

                     22                     23                     24
                      A                      A                      A
 Frequencies --   1063.4572              1077.8354              1099.4266
 Red. masses --      3.7591                 2.3501                 1.8018
 Frc consts  --      2.5048                 1.6086                 1.2832
 IR Inten    --     57.0618                28.5752                11.2947

                     25                     26                     27
                      A                      A                      A
 Frequencies --   1116.3210              1142.5419              1156.1732
 Red. masses --      2.1722                 1.9238                 1.7632
 Frc consts  --      1.5949                 1.4797                 1.3886
 IR Inten    --      5.0229                 2.8075                 1.5772

                     28                     29                     30
                      A                      A                      A
 Frequencies --   1158.5450              1174.3936              1195.3995
 Red. masses --      1.6405                 1.4564                 1.5649
 Frc consts  --      1.2974                 1.1835                 1.3175
 IR Inten    --      2.9939                 6.0276                 8.9219

                     31                     32                     33
                      A                      A                      A
 Frequencies --   1229.6463              1259.1053              1303.4270
 Red. masses --      1.5674                 1.8615                 2.1223
 Frc consts  --      1.3964                 1.7388                 2.1243
 IR Inten    --      6.3155                17.8269                 6.1789

                     34                     35                     36
                      A                      A                      A
 Frequencies --   1344.7791              1364.8461              1404.6789
 Red. masses --      1.6794                 1.6318                 1.2352
 Frc consts  --      1.7894                 1.7909                 1.4360
 IR Inten    --      1.6888                 8.0489                13.2750

                     37                     38                     39
                      A                      A                      A
 Frequencies --   1409.0627              1433.9403              1489.7387
 Red. masses --      1.4583                 1.5823                 1.0498
 Frc consts  --      1.7059                 1.9169                 1.3726
 IR Inten    --     10.6319                43.5464                 4.8837

                     40                     41                     42
                      A                      A                      A
 Frequencies --   1490.5746              1504.0319              2965.4898
 Red. masses --      1.0489                 1.0856                 1.0707
 Frc consts  --      1.3731                 1.4469                 5.5475
 IR Inten    --      5.2117                 0.5599                40.7943

                     43                     44                     45
                      A                      A                      A
 Frequencies --   3029.9528              3040.5563              3065.6953
 Red. masses --      1.0350                 1.0828                 1.0922
 Frc consts  --      5.5983                 5.8981                 6.0480
 IR Inten    --     23.8119                31.2152                40.2289

                     46                     47                     48
                      A                      A                      A
 Frequencies --   3095.5003              3104.2048              3107.7777
 Red. masses --      1.1009                 1.1009                 1.0878
 Frc consts  --      6.2152                 6.2504                 6.1902
 IR Inten    --     17.8995                12.9760                32.6109

                     49                     50                     51
                      A                      A                      A
 Frequencies --   3117.6715              3128.6055              3814.7600
 Red. masses --      1.0900                 1.0990                 1.0661
 Frc consts  --      6.2423                 6.3382                 9.1409
 IR Inten    --     73.4997                11.5645                12.0785

 - Thermochemistry -
 -------------------
 Temperature   298.150 Kelvin.  Pressure   1.00000 Atm.
 Atom     1 has atomic number  6 and mass  12.00000

 Molecular mass:   126.06808 amu.
 Principal axes and moments of inertia in atomic units:
                           1         2         3
     Eigenvalues --   582.791111430.904561736.18961
           X            0.99948   0.03092  -0.00931
           Y           -0.03080   0.99945   0.01197
           Z            0.00967  -0.01168   0.99989
 This molecule is an asymmetric top.
 Rotational symmetry number  1.
 Warning -- assumption of classical behavior for rotation
           may cause significant error
 Rotational temperatures (Kelvin)      0.14862     0.06053     0.04989
 Rotational constants (GHZ):           3.09672     1.26126     1.03948
 Zero-point vibrational energy     414498.9 (Joules/Mol)
                                   99.06762 (Kcal/Mol)
 Warning -- explicit consideration of  10 degrees of freedom as
           vibrations may cause significant error
 Vibrational temperatures:    123.81   207.45   285.10   325.93   332.95
          (Kelvin)            422.97   470.33   564.66   732.93   834.66
                              970.05  1062.79  1115.73  1167.93  1184.02
                             1241.96  1272.34  1301.47  1343.23  1426.32
                             1469.52  1530.08  1550.76  1581.83  1606.13
                             1643.86  1663.47  1666.89  1689.69  1719.91
                             1769.18  1811.57  1875.34  1934.83  1963.71
                             2021.02  2027.32  2063.12  2143.40  2144.60
                             2163.96  4266.67  4359.42  4374.68  4410.85
                             4453.73  4466.25  4471.39  4485.63  4501.36
                             5488.58

 Zero-point correction=                           0.157874 (Hartree/Particle)
 Thermal correction to Energy=                    0.166280
 Thermal correction to Enthalpy=                  0.167224
 Thermal correction to Gibbs Free Energy=         0.124879
 Sum of electronic and zero-point Energies=           -422.926791
 Sum of electronic and thermal Energies=              -422.918385
 Sum of electronic and thermal Enthalpies=            -422.917441
 Sum of electronic and thermal Free Energies=         -422.959786

                     E (Thermal)             CV                S
                      KCal/Mol        Cal/Mol-Kelvin    Cal/Mol-Kelvin
 Total                  104.342             32.284             89.123
 Electronic               0.000              0.000              0.000
 Translational            0.889              2.981             40.409
 Rotational               0.889              2.981             28.761
 Vibrational            102.565             26.322             19.953
 Vibration     1          0.601              1.959              3.748
 Vibration     2          0.616              1.909              2.748
 Vibration     3          0.637              1.842              2.150
 Vibration     4          0.650              1.801              1.906
 Vibration     5          0.653              1.793              1.868
 Vibration     6          0.689              1.685              1.451
 Vibration     7          0.711              1.622              1.275
 Vibration     8          0.760              1.486              0.991
 Vibration     9          0.865              1.229              0.635
 Vibration    10          0.937              1.074              0.485

 Optimization completed.
    -- Stationary point found.
 Normal termination of Gaussian 09 at Tue Jan 28 14:52:31 2020.
