 Gaussian 09, Revision D.01,
 Gaussian 09:  ES64L-G09RevD.01 24-Apr-2013

 -----------------------------
 # b3lyp 6-31G(2df,p) opt Freq
 -----------------------------

 -----
 titel
 -----
 Symbolic Z-matrix:
 Charge =  0 Multiplicity = 1

 SCF Done:  E(RB3LYP) =  -423.187606898     A.U. after   14 cycles
 Optimization completed.
    -- Stationary point found.
 Normal termination of Gaussian 09 at Tue Jan 28 08:12:50 2020.

 ----------------------------------------------------------------------
 #N Geom=AllCheck Guess=TCheck SCRF=Check GenChk RB3LYP/6-31G(2df,p) Fr
 eq
 ----------------------------------------------------------------------

 Structure from the checkpoint file:  "/scratch/puck/g09_f04f0842-b658-4203-a292-dd0e9f709af1/Gau-91807.chk"
 -----
 titel
 -----
 Charge =  0 Multiplicity = 1

                         Standard orientation:
 ---------------------------------------------------------------------
 Center     Atomic      Atomic             Coordinates (Angstroms)
 Number     Number       Type             X           Y           Z
 ---------------------------------------------------------------------
      1          6           0       -2.692234   -1.143041   -0.188333
      2          8           0       -1.583420   -0.394841   -0.705276
      3          6           0       -0.721798    0.068459    0.219632
      4          8           0       -0.848308   -0.114651    1.404940
      5          6           0        0.390365    0.888827   -0.417262
      6          6           0        0.051721    2.382583   -0.264820
      7          6           0        1.739337    0.553623    0.257576
      8          6           0        2.192080   -0.804960   -0.014799
      9          6           0        2.545876   -1.926984   -0.260521
     10          1           0       -3.291703   -0.527496    0.487186
     11          1           0       -3.279359   -1.441722   -1.056724
     12          1           0       -2.339897   -2.021511    0.357603
     13          1           0        0.439592    0.633993   -1.478751
     14          1           0       -0.896820    2.621132   -0.754222
     15          1           0       -0.030870    2.652330    0.792459
     16          1           0        0.832752    2.998983   -0.719752
     17          1           0        2.494232    1.270333   -0.087544
     18          1           0        1.627535    0.697173    1.338370
     19          1           0        2.866285   -2.918320   -0.464785
 ---------------------------------------------------------------------

 SCF Done:  E(RB3LYP) =  -423.187606898     A.U. after    1 cycles

 The electronic state is 1-A.
 Alpha  occ. eigenvalues --  -19.18414 -19.12421 -10.30173 -10.23689 -10.20983
 Alpha  occ. eigenvalues --  -10.20814 -10.18919 -10.17957 -10.16896  -1.10136
 Alpha  occ. eigenvalues --   -1.01263  -0.82518  -0.75585  -0.72482  -0.69226
 Alpha  occ. eigenvalues --   -0.63098  -0.55650  -0.52563  -0.51243  -0.48233
 Alpha  occ. eigenvalues --   -0.47771  -0.46162  -0.44056  -0.42912  -0.41239
 Alpha  occ. eigenvalues --   -0.39063  -0.38065  -0.36300  -0.35488  -0.34935
 Alpha  occ. eigenvalues --   -0.30111  -0.26994  -0.26352  -0.26201
 Alpha virt. eigenvalues --    0.01346   0.05249   0.06196   0.09469   0.11500
 Alpha virt. eigenvalues --    0.12337   0.13153   0.13602   0.15050   0.15663
 Alpha virt. eigenvalues --    0.16509   0.17214   0.17672   0.19487   0.22501

 Mulliken charges:
               1
     1  C   -0.241603
     2  O   -0.232352
     3  C    0.460872
     4  O   -0.372900
     5  C   -0.095310
     6  C   -0.409270
     7  C   -0.346891
     8  C    0.293176
     9  C   -0.439262
    10  H    0.139620
    11  H    0.133015
    12  H    0.144813
    13  H    0.107371
    14  H    0.127714
    15  H    0.137608
    16  H    0.121355
    17  H    0.125294
    18  H    0.151585
    19  H    0.195165
 Sum of Mulliken charges =   0.00000

 Dipole moment (field-independent basis, Debye):
    X=             -0.7134    Y=              0.5542    Z=             -1.4940  Tot=              1.7458
 Quadrupole moment (field-independent basis, Debye-Ang):
   XX=            -48.8421   YY=            -46.8401   ZZ=            -57.6497
   XY=              2.1740   XZ=              0.9554   YZ=              0.9737

  Exact polarizability:  80.789  -3.257  89.261   0.333   3.085  62.534
 Approx polarizability: 100.583  -7.628 130.483  -0.232   7.573 105.279

                      1                      2                      3
                      A                      A                      A
 Frequencies --     18.8737                65.8536               118.2298
 Red. masses --      5.1038                 4.0784                 1.1272
 Frc consts  --      0.0011                 0.0104                 0.0093
 IR Inten    --      1.9464                 0.2275                 0.2853

                      4                      5                      6
                      A                      A                      A
 Frequencies --    130.2908               153.2672               204.7468
 Red. masses --      2.8950                 3.2241                 1.9962
 Frc consts  --      0.0290                 0.0446                 0.0493
 IR Inten    --      0.1349                 0.9198                 2.0994

                      7                      8                      9
                      A                      A                      A
 Frequencies --    238.7864               272.1611               296.1124
 Red. masses --      1.3452                 2.8082                 4.5851
 Frc consts  --      0.0452                 0.1226                 0.2369
 IR Inten    --      1.5670                 2.5598                 1.9842

                     10                     11                     12
                      A                      A                      A
 Frequencies --    338.8992               348.0631               454.2257
 Red. masses --      4.3700                 2.7202                 3.8598
 Frc consts  --      0.2957                 0.1942                 0.4692
 IR Inten    --     14.5961                 8.2639                 0.6764

                     13                     14                     15
                      A                      A                      A
 Frequencies --    533.3116               617.5933               643.2641
 Red. masses --      5.0137                 1.2269                 1.2890
 Frc consts  --      0.8402                 0.2757                 0.3143
 IR Inten    --      7.1486                39.5478                35.8102

                     16                     17                     18
                      A                      A                      A
 Frequencies --    648.6243               772.0102               843.0206
 Red. masses --      2.7232                 5.3977                 3.3848
 Frc consts  --      0.6750                 1.8954                 1.4173
 IR Inten    --     13.7014                 4.9360                 9.6633

                     19                     20                     21
                      A                      A                      A
 Frequencies --    889.2363               930.9883               975.0988
 Red. masses --      1.8510                 1.9608                 3.5845
 Frc consts  --      0.8624                 1.0013                 2.0081
 IR Inten    --      3.4066                 1.2662                 3.6506

                     22                     23                     24
                      A                      A                      A
 Frequencies --   1019.0801              1061.9300              1096.0994
 Red. masses --      4.0490                 2.4384                 2.0775
 Frc consts  --      2.4775                 1.6201                 1.4706
 IR Inten    --     10.0252                 1.4856                 2.9616

                     25                     26                     27
                      A                      A                      A
 Frequencies --   1138.2131              1179.1288              1192.8894
 Red. masses --      1.8462                 1.2869                 2.0594
 Frc consts  --      1.4092                 1.0542                 1.7266
 IR Inten    --      9.9786                 1.3864               168.8874

                     28                     29                     30
                      A                      A                      A
 Frequencies --   1214.3864              1250.3997              1305.2099
 Red. masses --      1.5723                 1.5446                 1.2765
 Frc consts  --      1.3661                 1.4229                 1.2812
 IR Inten    --     54.9722               127.8718                 5.8479

                     31                     32                     33
                      A                      A                      A
 Frequencies --   1358.1502              1384.5591              1407.0826
 Red. masses --      1.4143                 1.5901                 1.2485
 Frc consts  --      1.5370                 1.7959                 1.4564
 IR Inten    --      9.4685                41.8386                16.0937

                     34                     35                     36
                      A                      A                      A
 Frequencies --   1463.2115              1473.2760              1481.6578
 Red. masses --      1.0961                 1.2095                 1.0469
 Frc consts  --      1.3826                 1.5468                 1.3540
 IR Inten    --      6.0090                14.7857                 6.5316

                     37                     38                     39
                      A                      A                      A
 Frequencies --   1494.0023              1496.7223              1503.5762
 Red. masses --      1.0453                 1.0554                 1.0714
 Frc consts  --      1.3747                 1.3930                 1.4271
 IR Inten    --      8.4544                 6.3770                11.3590

                     40                     41                     42
                      A                      A                      A
 Frequencies --   1816.9347              2239.9578              3032.1336
 Red. masses --     10.9088                 5.9298                 1.0584
 Frc consts  --     21.2181                17.5295                 5.7334
 IR Inten    --    167.7724                 1.7943                11.1476

                     43                     44                     45
                      A                      A                      A
 Frequencies --   3040.2871              3052.8756              3070.0113
 Red. masses --      1.0349                 1.0297                 1.0966
 Frc consts  --      5.6363                 5.6542                 6.0897
 IR Inten    --     24.9194                27.7885                 1.8646

                     46                     47                     48
                      A                      A                      A
 Frequencies --   3086.9391              3114.5793              3119.5505
 Red. masses --      1.0894                 1.1021                 1.1014
 Frc consts  --      6.1163                 6.2992                 6.3152
 IR Inten    --      5.1149                20.7298                20.6355

                     49                     50                     51
                      A                      A                      A
 Frequencies --   3128.3502              3159.7828              3507.5968
 Red. masses --      1.1055                 1.1062                 1.1622
 Frc consts  --      6.3745                 6.5071                 8.4248
 IR Inten    --     17.3060                15.2114                63.6643

 - Thermochemistry -
 -------------------
 Temperature   298.150 Kelvin.  Pressure   1.00000 Atm.
 Atom     1 has atomic number  6 and mass  12.00000

 Molecular mass:   126.06808 amu.
 Principal axes and moments of inertia in atomic units:
                           1         2         3
     Eigenvalues --   874.196151490.763851989.93469
           X            0.99908   0.04275   0.00337
           Y           -0.04274   0.99908  -0.00193
           Z           -0.00345   0.00179   0.99999
 This molecule is an asymmetric top.
 Rotational symmetry number  1.
 Warning -- assumption of classical behavior for rotation
           may cause significant error
 Rotational temperatures (Kelvin)      0.09908     0.05810     0.04353
 Rotational constants (GHZ):           2.06446     1.21062     0.90693
 Zero-point vibrational energy     409010.6 (Joules/Mol)
                                   97.75588 (Kcal/Mol)
 Warning -- explicit consideration of  14 degrees of freedom as
           vibrations may cause significant error
 Vibrational temperatures:     27.16    94.75   170.11   187.46   220.52
          (Kelvin)            294.58   343.56   391.58   426.04   487.60
                              500.78   653.53   767.32   888.58   925.51
                              933.22  1110.75  1212.92  1279.41  1339.48
                             1402.95  1466.23  1527.88  1577.04  1637.63
                             1696.50  1716.30  1747.23  1799.04  1877.90
                             1954.07  1992.07  2024.48  2105.23  2119.71
                             2131.77  2149.53  2153.45  2163.31  2614.16
                             3222.80  4362.56  4374.29  4392.40  4417.06
                             4441.41  4481.18  4488.33  4500.99  4546.22
                             5046.64

 Zero-point correction=                           0.155784 (Hartree/Particle)
 Thermal correction to Energy=                    0.166436
 Thermal correction to Enthalpy=                  0.167380
 Thermal correction to Gibbs Free Energy=         0.118582
 Sum of electronic and zero-point Energies=           -423.031823
 Sum of electronic and thermal Energies=              -423.021171
 Sum of electronic and thermal Enthalpies=            -423.020227
 Sum of electronic and thermal Free Energies=         -423.069025

                     E (Thermal)             CV                S
                      KCal/Mol        Cal/Mol-Kelvin    Cal/Mol-Kelvin
 Total                  104.440             36.913            102.706
 Electronic               0.000              0.000              0.000
 Translational            0.889              2.981             40.409
 Rotational               0.889              2.981             29.340
 Vibrational            102.663             30.951             32.957
 Vibration     1          0.593              1.986              6.749
 Vibration     2          0.597              1.971              4.274
 Vibration     3          0.608              1.934              3.129
 Vibration     4          0.612              1.923              2.942
 Vibration     5          0.619              1.899              2.631
 Vibration     6          0.640              1.833              2.090
 Vibration     7          0.657              1.781              1.812
 Vibration     8          0.675              1.725              1.582
 Vibration     9          0.690              1.681              1.439
 Vibration    10          0.719              1.598              1.217
 Vibration    11          0.726              1.579              1.175
 Vibration    12          0.813              1.352              0.783
 Vibration    13          0.888              1.176              0.580
 Vibration    14          0.977              0.995              0.420

 Optimization completed.
    -- Stationary point found.
 Normal termination of Gaussian 09 at Tue Jan 28 08:50:18 2020.
