 Gaussian 09, Revision D.01,
 Gaussian 09:  ES64L-G09RevD.01 24-Apr-2013

 -----------------------------
 # b3lyp 6-31G(2df,p) opt Freq
 -----------------------------

 -----
 titel
 -----
 Symbolic Z-matrix:
 Charge =  0 Multiplicity = 1

 SCF Done:  E(RB3LYP) =  -423.145040879     A.U. after   14 cycles
 Optimization completed.
    -- Stationary point found.
 Normal termination of Gaussian 09 at Tue Jan 28 14:14:49 2020.

 ----------------------------------------------------------------------
 #N Geom=AllCheck Guess=TCheck SCRF=Check GenChk RB3LYP/6-31G(2df,p) Fr
 eq
 ----------------------------------------------------------------------

 Structure from the checkpoint file:  "/scratch/puck/g09_4c75ec4c-a936-4d73-9eb2-3b8ad9b26830/Gau-98502.chk"
 -----
 titel
 -----
 Charge =  0 Multiplicity = 1

                         Standard orientation:
 ---------------------------------------------------------------------
 Center     Atomic      Atomic             Coordinates (Angstroms)
 Number     Number       Type             X           Y           Z
 ---------------------------------------------------------------------
      1          8           0        3.507895    0.290208   -0.015250
      2          6           0        2.289517   -0.338508   -0.373340
      3          6           0        1.147560   -0.014849    0.595739
      4          6           0       -0.131026   -0.773003    0.271505
      5          6           0       -1.494605   -0.359554    0.936549
      6          6           0       -2.181647   -1.140148   -0.234735
      7          6           0       -1.030792   -0.360018   -0.956292
      8          6           0       -1.468457    0.811936   -0.061002
      9          8           0       -1.674707    1.984279   -0.113020
     10          1           0        3.378142    1.242004   -0.078129
     11          1           0        1.992644   -0.082236   -1.403038
     12          1           0        2.497973   -1.414423   -0.359608
     13          1           0        1.475785   -0.265120    1.611875
     14          1           0        0.960179    1.067462    0.583081
     15          1           0        0.022927   -1.857122    0.307938
     16          1           0       -1.751714   -0.372494    1.993654
     17          1           0       -2.039666   -2.222691   -0.199270
     18          1           0       -3.208646   -0.871653   -0.486955
     19          1           0       -0.776431   -0.374761   -2.013936
 ---------------------------------------------------------------------

 SCF Done:  E(RB3LYP) =  -423.145040879     A.U. after    1 cycles

 The electronic state is 1-A.
 Alpha  occ. eigenvalues --  -19.13835 -19.13677 -10.27682 -10.23173 -10.21916
 Alpha  occ. eigenvalues --  -10.21431 -10.21399 -10.21360 -10.18917  -1.05157
 Alpha  occ. eigenvalues --   -1.01823  -0.92782  -0.77423  -0.67279  -0.65318
 Alpha  occ. eigenvalues --   -0.64024  -0.60655  -0.51978  -0.50727  -0.49222
 Alpha  occ. eigenvalues --   -0.47344  -0.45558  -0.42945  -0.42487  -0.40899
 Alpha  occ. eigenvalues --   -0.38935  -0.36671  -0.34977  -0.34427  -0.34005
 Alpha  occ. eigenvalues --   -0.32636  -0.32058  -0.26855  -0.24527
 Alpha virt. eigenvalues --    0.00925   0.07381   0.09296   0.10778   0.11864
 Alpha virt. eigenvalues --    0.12149   0.12732   0.13462   0.14742   0.15341
 Alpha virt. eigenvalues --    0.15426   0.17938   0.18801   0.19218   0.21116

 Mulliken charges:
               1
     1  O   -0.415902
     2  C   -0.053853
     3  C   -0.267030
     4  C    0.028114
     5  C   -0.187600
     6  C   -0.243781
     7  C   -0.177753
     8  C    0.448867
     9  O   -0.331819
    10  H    0.283803
    11  H    0.091580
    12  H    0.110915
    13  H    0.112305
    14  H    0.107191
    15  H    0.081078
    16  H    0.093648
    17  H    0.110229
    18  H    0.116248
    19  H    0.093761
 Sum of Mulliken charges =   0.00000

 Dipole moment (field-independent basis, Debye):
    X=             -0.5588    Y=             -2.0633    Z=             -0.1214  Tot=              2.1411
 Quadrupole moment (field-independent basis, Debye-Ang):
   XX=            -60.9945   YY=            -55.8366   ZZ=            -51.9222
   XY=              8.0722   XZ=             -0.9968   YZ=              0.0877

  Exact polarizability:  84.187   1.257  76.705   0.662   0.249  67.114
 Approx polarizability: 108.810  -2.338 125.457   1.329  -0.793 104.422

                      1                      2                      3
                      A                      A                      A
 Frequencies --     66.4549                92.2464               123.6314
 Red. masses --      4.2688                 2.0633                 4.4422
 Frc consts  --      0.0111                 0.0103                 0.0400
 IR Inten    --      3.5350                 5.6209                 1.1188

                      4                      5                      6
                      A                      A                      A
 Frequencies --    168.1990               307.3186               322.5546
 Red. masses --      4.1786                 1.1531                 2.9614
 Frc consts  --      0.0697                 0.0642                 0.1815
 IR Inten    --      1.2815                81.8087                14.0153

                      7                      8                      9
                      A                      A                      A
 Frequencies --    360.5874               369.9221               449.3029
 Red. masses --      3.6627                 3.2905                 3.7987
 Frc consts  --      0.2806                 0.2653                 0.4518
 IR Inten    --      0.5910                19.8182                 0.6808

                     10                     11                     12
                      A                      A                      A
 Frequencies --    583.1837               689.8813               739.9737
 Red. masses --      2.9858                 3.7075                 2.1720
 Frc consts  --      0.5983                 1.0396                 0.7007
 IR Inten    --      1.4278                 1.9805                 4.3995

                     13                     14                     15
                      A                      A                      A
 Frequencies --    768.0839               798.8389               817.3588
 Red. masses --      4.0182                 1.6740                 3.5420
 Frc consts  --      1.3967                 0.6294                 1.3942
 IR Inten    --      4.4318                 4.0113                 4.7980

                     16                     17                     18
                      A                      A                      A
 Frequencies --    877.1382               886.9054               945.6341
 Red. masses --      2.5401                 2.3723                 1.5492
 Frc consts  --      1.1514                 1.0995                 0.8162
 IR Inten    --      1.4261                 0.5497                18.1449

                     19                     20                     21
                      A                      A                      A
 Frequencies --   1023.4227              1026.2793              1028.1739
 Red. masses --      1.4904                 1.4794                 1.8902
 Frc consts  --      0.9197                 0.9180                 1.1773
 IR Inten    --     10.4469                 5.4293                12.2878

                     22                     23                     24
                      A                      A                      A
 Frequencies --   1041.3900              1064.9431              1079.7676
 Red. masses --      1.3226                 1.5988                 3.6555
 Frc consts  --      0.8451                 1.0683                 2.5111
 IR Inten    --      2.9655                17.6367               102.0144

                     25                     26                     27
                      A                      A                      A
 Frequencies --   1105.3043              1115.6527              1135.6562
 Red. masses --      3.8363                 1.8028                 1.7496
 Frc consts  --      2.7614                 1.3221                 1.3295
 IR Inten    --      0.2834                 2.5021                 4.7243

                     28                     29                     30
                      A                      A                      A
 Frequencies --   1185.5530              1189.9077              1213.7038
 Red. masses --      1.4195                 1.5882                 1.6961
 Frc consts  --      1.1755                 1.3249                 1.4721
 IR Inten    --      1.0476                 3.3904                 3.8113

                     31                     32                     33
                      A                      A                      A
 Frequencies --   1230.2059              1243.2166              1301.3865
 Red. masses --      1.7100                 1.6670                 1.3619
 Frc consts  --      1.5247                 1.5180                 1.3589
 IR Inten    --      5.9630                 1.9151                 0.7600

                     34                     35                     36
                      A                      A                      A
 Frequencies --   1320.2952              1387.5881              1419.5233
 Red. masses --      1.1787                 1.2406                 1.4122
 Frc consts  --      1.2106                 1.4073                 1.6766
 IR Inten    --      7.8948                19.2378                 4.5171

                     37                     38                     39
                      A                      A                      A
 Frequencies --   1424.1228              1487.0635              1512.9304
 Red. masses --      1.2494                 1.0859                 1.0913
 Frc consts  --      1.4929                 1.4149                 1.4717
 IR Inten    --     41.9311                 3.2853                 0.4502

                     40                     41                     42
                      A                      A                      A
 Frequencies --   1515.0536              1915.6332              2976.6694
 Red. masses --      1.1105                12.0074                 1.0696
 Frc consts  --      1.5018                25.9611                 5.5837
 IR Inten    --      0.1870               348.9223                45.2857

                     43                     44                     45
                      A                      A                      A
 Frequencies --   3018.1783              3048.0709              3055.3015
 Red. masses --      1.0622                 1.0846                 1.0907
 Frc consts  --      5.7008                 5.9368                 5.9988
 IR Inten    --     14.0313                19.6951                 4.5134

                     46                     47                     48
                      A                      A                      A
 Frequencies --   3066.8139              3076.1015              3139.3138
 Red. masses --      1.0540                 1.1009                 1.1120
 Frc consts  --      5.8408                 6.1374                 6.4568
 IR Inten    --     30.8273                56.6498                22.7349

                     49                     50                     51
                      A                      A                      A
 Frequencies --   3143.6937              3147.0785              3814.5561
 Red. masses --      1.0914                 1.0955                 1.0662
 Frc consts  --      6.3547                 6.3928                 9.1403
 IR Inten    --     46.2952                 0.6607                17.6264

 - Thermochemistry -
 -------------------
 Temperature   298.150 Kelvin.  Pressure   1.00000 Atm.
 Atom     1 has atomic number  8 and mass  15.99491

 Molecular mass:   126.06808 amu.
 Principal axes and moments of inertia in atomic units:
                           1         2         3
     Eigenvalues --   557.562671890.044452142.19147
           X            0.99969   0.02463  -0.00188
           Y           -0.02460   0.99960   0.01419
           Z            0.00223  -0.01414   0.99990
 This molecule is an asymmetric top.
 Rotational symmetry number  1.
 Warning -- assumption of classical behavior for rotation
           may cause significant error
 Rotational temperatures (Kelvin)      0.15534     0.04583     0.04043
 Rotational constants (GHZ):           3.23684     0.95487     0.84247
 Zero-point vibrational energy     417614.9 (Joules/Mol)
                                   99.81237 (Kcal/Mol)
 Warning -- explicit consideration of  10 degrees of freedom as
           vibrations may cause significant error
 Vibrational temperatures:     95.61   132.72   177.88   242.00   442.16
          (Kelvin)            464.08   518.80   532.23   646.45   839.07
                              992.58  1064.66  1105.10  1149.35  1176.00
                             1262.00  1276.06  1360.55  1472.48  1476.59
                             1479.31  1498.33  1532.21  1553.54  1590.28
                             1605.17  1633.95  1705.74  1712.01  1746.25
                             1769.99  1788.71  1872.40  1899.61  1996.43
                             2042.37  2048.99  2139.55  2176.77  2179.82
                             2756.17  4282.76  4342.48  4385.49  4395.89
                             4412.46  4425.82  4516.77  4523.07  4527.94
                             5488.29

 Zero-point correction=                           0.159061 (Hartree/Particle)
 Thermal correction to Energy=                    0.167684
 Thermal correction to Enthalpy=                  0.168629
 Thermal correction to Gibbs Free Energy=         0.125038
 Sum of electronic and zero-point Energies=           -422.985980
 Sum of electronic and thermal Energies=              -422.977357
 Sum of electronic and thermal Enthalpies=            -422.976412
 Sum of electronic and thermal Free Energies=         -423.020003

                     E (Thermal)             CV                S
                      KCal/Mol        Cal/Mol-Kelvin    Cal/Mol-Kelvin
 Total                  105.224             32.183             91.744
 Electronic               0.000              0.000              0.000
 Translational            0.889              2.981             40.409
 Rotational               0.889              2.981             29.203
 Vibrational            103.446             26.221             22.133
 Vibration     1          0.598              1.970              4.256
 Vibration     2          0.602              1.955              3.612
 Vibration     3          0.610              1.929              3.043
 Vibration     4          0.625              1.882              2.456
 Vibration     5          0.697              1.660              1.377
 Vibration     6          0.708              1.630              1.297
 Vibration     7          0.735              1.553              1.120
 Vibration     8          0.742              1.534              1.080
 Vibration     9          0.808              1.362              0.798
 Vibration    10          0.940              1.068              0.480

 Optimization completed.
    -- Stationary point found.
 Normal termination of Gaussian 09 at Tue Jan 28 14:59:47 2020.
