 Gaussian 09, Revision D.01,
 Gaussian 09:  ES64L-G09RevD.01 24-Apr-2013

 -----------------------------
 # b3lyp 6-31G(2df,p) opt Freq
 -----------------------------

 -----
 titel
 -----
 Symbolic Z-matrix:
 Charge =  0 Multiplicity = 1

 SCF Done:  E(RB3LYP) =  -423.151601862     A.U. after   14 cycles
 Optimization completed.
    -- Stationary point found.
 Normal termination of Gaussian 09 at Mon Jan 27 12:08:26 2020.

 ----------------------------------------------------------------------
 #N Geom=AllCheck Guess=TCheck SCRF=Check GenChk RB3LYP/6-31G(2df,p) Fr
 eq
 ----------------------------------------------------------------------

 Structure from the checkpoint file:  "/scratch/puck/g09_c4c1b18e-a6b5-4fec-854d-0c4fe6a06074/Gau-71566.chk"
 -----
 titel
 -----
 Charge =  0 Multiplicity = 1

                         Standard orientation:
 ---------------------------------------------------------------------
 Center     Atomic      Atomic             Coordinates (Angstroms)
 Number     Number       Type             X           Y           Z
 ---------------------------------------------------------------------
      1          6           0        2.686724    0.625102   -0.135017
      2          6           0        2.589776   -0.851240    0.150348
      3          6           0        1.412855    0.054841    0.428094
      4          6           0        0.181738   -0.037874   -0.444745
      5          8           0       -0.530552    1.205161   -0.527120
      6          6           0       -1.656399    1.200126    0.344613
      7          6           0       -1.968842   -0.255728    0.602159
      8          8           0       -2.070844   -1.020101   -0.603081
      9          6           0       -0.828102   -1.028162    0.105571
     10          1           0        3.303785    1.236523    0.513377
     11          1           0        2.677510    0.945434   -1.171499
     12          1           0        2.520345   -1.527667   -0.695736
     13          1           0        3.137350   -1.254832    0.994453
     14          1           0        1.205931    0.271159    1.473275
     15          1           0        0.478136   -0.293165   -1.470786
     16          1           0       -1.439671    1.708278    1.298218
     17          1           0       -2.470984    1.735368   -0.155377
     18          1           0       -2.600505   -0.564031    1.430617
     19          1           0       -0.507233   -1.979940    0.518939
 ---------------------------------------------------------------------

 SCF Done:  E(RB3LYP) =  -423.151601862     A.U. after    1 cycles

 The electronic state is 1-A.
 Alpha  occ. eigenvalues --  -19.15252 -19.13643 -10.24011 -10.23781 -10.23659
 Alpha  occ. eigenvalues --  -10.23183 -10.19371 -10.19056 -10.18751  -1.08504
 Alpha  occ. eigenvalues --   -1.02006  -0.86182  -0.74933  -0.72167  -0.61763
 Alpha  occ. eigenvalues --   -0.60657  -0.59518  -0.57422  -0.53443  -0.49409
 Alpha  occ. eigenvalues --   -0.47933  -0.46476  -0.45245  -0.42168  -0.39857
 Alpha  occ. eigenvalues --   -0.37917  -0.36787  -0.36062  -0.34327  -0.30970
 Alpha  occ. eigenvalues --   -0.30149  -0.29660  -0.25822  -0.24997
 Alpha virt. eigenvalues --    0.09035   0.09223   0.10349   0.10792   0.11696
 Alpha virt. eigenvalues --    0.12888   0.13876   0.13926   0.15532   0.15856
 Alpha virt. eigenvalues --    0.17155   0.17542   0.19789   0.21303   0.22032

 Mulliken charges:
               1
     1  C   -0.269603
     2  C   -0.272046
     3  C    0.014622
     4  C    0.068379
     5  O   -0.270561
     6  C   -0.110054
     7  C    0.021606
     8  O   -0.256840
     9  C    0.019690
    10  H    0.114026
    11  H    0.120560
    12  H    0.114697
    13  H    0.113748
    14  H    0.080902
    15  H    0.089732
    16  H    0.094410
    17  H    0.118578
    18  H    0.102602
    19  H    0.105552
 Sum of Mulliken charges =   0.00000

 Dipole moment (field-independent basis, Debye):
    X=              0.8864    Y=             -0.4097    Z=              2.1647  Tot=              2.3747
 Quadrupole moment (field-independent basis, Debye-Ang):
   XX=            -52.8003   YY=            -54.2855   ZZ=            -51.9496
   XY=             -2.9194   XZ=             -3.7922   YZ=              0.2774

  Exact polarizability:  89.198  -4.652  71.801  -3.830   1.406  64.220
 Approx polarizability: 114.465  -6.310 106.384  -3.743   3.699 101.798

                      1                      2                      3
                      A                      A                      A
 Frequencies --     70.2611               104.5604               155.7171
 Red. masses --      3.0210                 3.4219                 2.7834
 Frc consts  --      0.0088                 0.0220                 0.0398
 IR Inten    --      0.0793                 2.7137                 0.4562

                      4                      5                      6
                      A                      A                      A
 Frequencies --    255.3863               311.3847               369.6533
 Red. masses --      3.0378                 3.4378                 3.1446
 Frc consts  --      0.1167                 0.1964                 0.2532
 IR Inten    --      3.4023                 0.4575                 2.4575

                      7                      8                      9
                      A                      A                      A
 Frequencies --    439.9088               458.9089               728.3527
 Red. masses --      4.7418                 3.2974                 6.0063
 Frc consts  --      0.5407                 0.4091                 1.8773
 IR Inten    --      3.5858                 9.5068                 2.0151

                     10                     11                     12
                      A                      A                      A
 Frequencies --    759.4785               778.0444               826.5817
 Red. masses --      2.1710                 1.5061                 1.2617
 Frc consts  --      0.7378                 0.5372                 0.5079
 IR Inten    --      7.0021                 6.4320                 1.8429

                     13                     14                     15
                      A                      A                      A
 Frequencies --    841.3753               871.3641               880.1533
 Red. masses --      4.5786                 2.0596                 1.8916
 Frc consts  --      1.9097                 0.9213                 0.8634
 IR Inten    --     17.2038                31.5507                10.1111

                     16                     17                     18
                      A                      A                      A
 Frequencies --    913.9244               931.3374               955.2957
 Red. masses --      4.1062                 3.0991                 2.7592
 Frc consts  --      2.0208                 1.5838                 1.4836
 IR Inten    --     20.2832                11.3591                 2.4953

                     19                     20                     21
                      A                      A                      A
 Frequencies --    965.3061              1000.5203              1033.6520
 Red. masses --      2.3928                 1.7089                 1.6374
 Frc consts  --      1.3137                 1.0079                 1.0307
 IR Inten    --      4.3031                13.8317                 3.7727

                     22                     23                     24
                      A                      A                      A
 Frequencies --   1058.6882              1079.3197              1085.8319
 Red. masses --      1.3537                 1.3744                 2.7109
 Frc consts  --      0.8939                 0.9433                 1.8832
 IR Inten    --      0.6217                 2.5758                62.4070

                     25                     26                     27
                      A                      A                      A
 Frequencies --   1104.5752              1121.1940              1134.0120
 Red. masses --      4.2751                 1.5587                 1.1425
 Frc consts  --      3.0732                 1.1544                 0.8656
 IR Inten    --     93.2203                 4.4479                 3.2091

                     28                     29                     30
                      A                      A                      A
 Frequencies --   1178.6055              1197.0971              1224.1191
 Red. masses --      2.0472                 1.3893                 1.4838
 Frc consts  --      1.6755                 1.1730                 1.3100
 IR Inten    --      8.8130                 0.4134                 5.8786

                     31                     32                     33
                      A                      A                      A
 Frequencies --   1225.5102              1247.9655              1285.8917
 Red. masses --      1.3613                 1.3486                 1.3329
 Frc consts  --      1.2045                 1.2375                 1.2985
 IR Inten    --      2.1408                 7.7453                 2.1542

                     34                     35                     36
                      A                      A                      A
 Frequencies --   1321.1020              1330.5003              1374.4356
 Red. masses --      1.4990                 1.2841                 1.6723
 Frc consts  --      1.5414                 1.3393                 1.8613
 IR Inten    --      2.1329                 0.2167                 2.2559

                     37                     38                     39
                      A                      A                      A
 Frequencies --   1421.4675              1444.6723              1471.0957
 Red. masses --      1.7407                 2.6452                 1.0874
 Frc consts  --      2.0723                 3.2527                 1.3865
 IR Inten    --     10.0982                 5.7266                 1.3996

                     40                     41                     42
                      A                      A                      A
 Frequencies --   1505.6909              1509.4587              2977.3114
 Red. masses --      1.3846                 1.0909                 1.0695
 Frc consts  --      1.8494                 1.4645                 5.5859
 IR Inten    --      0.6303                 1.0363                66.1881

                     43                     44                     45
                      A                      A                      A
 Frequencies --   3024.1446              3065.5101              3130.4972
 Red. masses --      1.0846                 1.0929                 1.0526
 Frc consts  --      5.8441                 6.0512                 6.0775
 IR Inten    --     25.2772                34.1249                17.1019

                     46                     47                     48
                      A                      A                      A
 Frequencies --   3134.7267              3138.9054              3153.0128
 Red. masses --      1.0679                 1.0771                 1.0873
 Frc consts  --      6.1829                 6.2527                 6.3688
 IR Inten    --     20.2498                 4.4067                17.0209

                     49                     50                     51
                      A                      A                      A
 Frequencies --   3166.2657              3209.6049              3224.8898
 Red. masses --      1.0965                 1.1174                 1.1154
 Frc consts  --      6.4769                 6.7818                 6.8344
 IR Inten    --     20.2466                 0.9716                17.2581

 - Thermochemistry -
 -------------------
 Temperature   298.150 Kelvin.  Pressure   1.00000 Atm.
 Atom     1 has atomic number  6 and mass  12.00000

 Molecular mass:   126.06808 amu.
 Principal axes and moments of inertia in atomic units:
                           1         2         3
     Eigenvalues --   476.561941558.028171801.16590
           X            0.99979  -0.01709  -0.01165
           Y            0.01715   0.99984   0.00514
           Z            0.01156  -0.00534   0.99992
 This molecule is an asymmetric top.
 Rotational symmetry number  1.
 Warning -- assumption of classical behavior for rotation
           may cause significant error
 Rotational temperatures (Kelvin)      0.18175     0.05559     0.04809
 Rotational constants (GHZ):           3.78700     1.15835     1.00198
 Zero-point vibrational energy     419872.9 (Joules/Mol)
                                  100.35203 (Kcal/Mol)
 Warning -- explicit consideration of   8 degrees of freedom as
           vibrations may cause significant error
 Vibrational temperatures:    101.09   150.44   224.04   367.44   448.01
          (Kelvin)            531.85   632.93   660.27  1047.94  1092.72
                             1119.43  1189.27  1210.55  1253.70  1266.34
                             1314.93  1339.99  1374.46  1388.86  1439.52
                             1487.19  1523.21  1552.90  1562.27  1589.24
                             1613.15  1631.59  1695.75  1722.35  1761.23
                             1763.23  1795.54  1850.11  1900.77  1914.29
                             1977.50  2045.17  2078.56  2116.58  2166.35
                             2171.77  4283.68  4351.06  4410.58  4504.08
                             4510.17  4516.18  4536.48  4555.54  4617.90
                             4639.89

 Zero-point correction=                           0.159921 (Hartree/Particle)
 Thermal correction to Energy=                    0.167748
 Thermal correction to Enthalpy=                  0.168693
 Thermal correction to Gibbs Free Energy=         0.127006
 Sum of electronic and zero-point Energies=           -422.991681
 Sum of electronic and thermal Energies=              -422.983853
 Sum of electronic and thermal Enthalpies=            -422.982909
 Sum of electronic and thermal Free Energies=         -423.024595

                     E (Thermal)             CV                S
                      KCal/Mol        Cal/Mol-Kelvin    Cal/Mol-Kelvin
 Total                  105.264             30.024             87.736
 Electronic               0.000              0.000              0.000
 Translational            0.889              2.981             40.409
 Rotational               0.889              2.981             28.682
 Vibrational            103.486             24.063             18.645
 Vibration     1          0.598              1.968              4.146
 Vibration     2          0.605              1.946              3.367
 Vibration     3          0.620              1.896              2.601
 Vibration     4          0.666              1.754              1.693
 Vibration     5          0.700              1.652              1.355
 Vibration     6          0.742              1.535              1.081
 Vibration     7          0.800              1.383              0.827
 Vibration     8          0.817              1.341              0.769

 Optimization completed.
    -- Stationary point found.
 Normal termination of Gaussian 09 at Mon Jan 27 12:50:17 2020.
