 Gaussian 09, Revision D.01,
 Gaussian 09:  ES64L-G09RevD.01 24-Apr-2013

 -----------------------------
 # b3lyp 6-31G(2df,p) opt Freq
 -----------------------------

 -----
 titel
 -----
 Symbolic Z-matrix:
 Charge =  0 Multiplicity = 1

 SCF Done:  E(RB3LYP) =  -423.152021944     A.U. after   13 cycles
 Optimization completed.
    -- Stationary point found.
 Normal termination of Gaussian 09 at Mon Jan 27 22:48:29 2020.

 ----------------------------------------------------------------------
 #N Geom=AllCheck Guess=TCheck SCRF=Check GenChk RB3LYP/6-31G(2df,p) Fr
 eq
 ----------------------------------------------------------------------

 Structure from the checkpoint file:  "/scratch/puck/g09_592cda82-36ae-4a1e-9bf6-53a764a6dd5d/Gau-191363.chk"
 -----
 titel
 -----
 Charge =  0 Multiplicity = 1

                         Standard orientation:
 ---------------------------------------------------------------------
 Center     Atomic      Atomic             Coordinates (Angstroms)
 Number     Number       Type             X           Y           Z
 ---------------------------------------------------------------------
      1          6           0       -1.335216    1.647721    0.527235
      2          6           0       -0.265993    0.658523    0.121090
      3          6           0        0.952972    1.238367   -0.602313
      4          8           0        1.911993    0.175986   -0.637055
      5          6           0        1.526227   -0.744859    0.362077
      6          6           0        0.194997   -1.458434    0.235686
      7          6           0        0.390926   -0.271784    1.191192
      8          6           0       -0.732153   -0.642475   -0.648044
      9          8           0       -2.067905   -1.023797   -0.383063
     10          1           0       -1.714312    2.202591   -0.339904
     11          1           0       -2.177545    1.132896    0.995623
     12          1           0       -0.941428    2.381763    1.238610
     13          1           0        0.733948    1.539142   -1.633585
     14          1           0        1.363106    2.106180   -0.062387
     15          1           0        2.360146   -1.291553    0.785363
     16          1           0        0.067820   -2.511525    0.459242
     17          1           0        0.341222   -0.193816    2.269445
     18          1           0       -0.531188   -0.651204   -1.730444
     19          1           0       -2.645040   -0.494340   -0.942565
 ---------------------------------------------------------------------

 SCF Done:  E(RB3LYP) =  -423.152021944     A.U. after    1 cycles

 The electronic state is 1-A.
 Alpha  occ. eigenvalues --  -19.14057 -19.13578 -10.23315 -10.23305 -10.22396
 Alpha  occ. eigenvalues --  -10.19748 -10.18793 -10.18726 -10.18126  -1.04159
 Alpha  occ. eigenvalues --   -1.02164  -0.87881  -0.77762  -0.69664  -0.66887
 Alpha  occ. eigenvalues --   -0.60738  -0.57783  -0.53994  -0.51150  -0.49314
 Alpha  occ. eigenvalues --   -0.47655  -0.44023  -0.43689  -0.41430  -0.40858
 Alpha  occ. eigenvalues --   -0.39782  -0.37078  -0.34140  -0.33321  -0.32780
 Alpha  occ. eigenvalues --   -0.29846  -0.28287  -0.24995  -0.22989
 Alpha virt. eigenvalues --    0.06505   0.10496   0.10832   0.11480   0.12324
 Alpha virt. eigenvalues --    0.13137   0.15380   0.15713   0.16285   0.16852
 Alpha virt. eigenvalues --    0.17625   0.18351   0.19551   0.20918   0.23530

 Mulliken charges:
               1
     1  C   -0.514336
     2  C    0.245741
     3  C   -0.117429
     4  O   -0.272182
     5  C    0.099488
     6  C   -0.112814
     7  C   -0.168009
     8  C    0.093141
     9  O   -0.437870
    10  H    0.109916
    11  H    0.135400
    12  H    0.120724
    13  H    0.100546
    14  H    0.089634
    15  H    0.105068
    16  H    0.089842
    17  H    0.087093
    18  H    0.062987
    19  H    0.283061
 Sum of Mulliken charges =   0.00000

 Dipole moment (field-independent basis, Debye):
    X=             -1.0869    Y=              1.1210    Z=              0.1492  Tot=              1.5685
 Quadrupole moment (field-independent basis, Debye-Ang):
   XX=            -55.2439   YY=            -52.4006   ZZ=            -51.1851
   XY=             -3.7697   XZ=              5.2986   YZ=             -1.1369

  Exact polarizability:  75.870  -2.289  77.767   2.603  -1.724  67.426
 Approx polarizability: 108.780  -0.445 111.446   1.537  -1.298 104.782

                      1                      2                      3
                      A                      A                      A
 Frequencies --    160.4149               199.7014               236.3271
 Red. masses --      4.2878                 1.0773                 2.3992
 Frc consts  --      0.0650                 0.0253                 0.0789
 IR Inten    --      1.8948                 3.0768                 0.6472

                      4                      5                      6
                      A                      A                      A
 Frequencies --    267.3287               311.2723               323.3649
 Red. masses --      3.0383                 1.1054                 2.6710
 Frc consts  --      0.1279                 0.0631                 0.1646
 IR Inten    --      2.0483               106.2359                 3.3188

                      7                      8                      9
                      A                      A                      A
 Frequencies --    386.0776               415.7691               550.6763
 Red. masses --      2.7907                 4.5160                 4.5354
 Frc consts  --      0.2451                 0.4599                 0.8103
 IR Inten    --      5.2298                 5.0551                11.1862

                     10                     11                     12
                      A                      A                      A
 Frequencies --    616.5821               666.0672               748.3252
 Red. masses --      3.8909                 3.7581                 5.5795
 Frc consts  --      0.8715                 0.9823                 1.8409
 IR Inten    --      1.2561                 5.0561                17.5205

                     13                     14                     15
                      A                      A                      A
 Frequencies --    756.8894               794.7131               851.0171
 Red. masses --      2.0994                 1.8129                 2.5604
 Frc consts  --      0.7086                 0.6746                 1.0925
 IR Inten    --      1.0167                15.9111                 5.3258

                     16                     17                     18
                      A                      A                      A
 Frequencies --    889.0127               931.7783               950.1543
 Red. masses --      2.2086                 1.6842                 2.5057
 Frc consts  --      1.0285                 0.8615                 1.3328
 IR Inten    --      2.4040                 1.2808                 7.3109

                     19                     20                     21
                      A                      A                      A
 Frequencies --    975.9069               987.4714              1015.5546
 Red. masses --      1.5440                 1.9691                 1.7536
 Frc consts  --      0.8664                 1.1313                 1.0656
 IR Inten    --      9.9472                 1.4831                37.0647

                     22                     23                     24
                      A                      A                      A
 Frequencies --   1037.6102              1052.4571              1067.7573
 Red. masses --      2.4942                 2.3526                 1.5503
 Frc consts  --      1.5822                 1.5353                 1.0414
 IR Inten    --     34.6726                20.4339                10.2904

                     25                     26                     27
                      A                      A                      A
 Frequencies --   1117.7620              1133.5634              1169.1361
 Red. masses --      3.0805                 3.0261                 1.8417
 Frc consts  --      2.2676                 2.2910                 1.4832
 IR Inten    --     62.7925                38.8961                 0.4798

                     28                     29                     30
                      A                      A                      A
 Frequencies --   1192.3439              1198.1596              1222.4693
 Red. masses --      1.7181                 1.5817                 1.6674
 Frc consts  --      1.4391                 1.3378                 1.4681
 IR Inten    --      4.0247                32.7103                23.6401

                     31                     32                     33
                      A                      A                      A
 Frequencies --   1240.4576              1274.2267              1303.0218
 Red. masses --      1.4788                 2.0790                 1.4561
 Frc consts  --      1.3406                 1.9888                 1.4566
 IR Inten    --      0.5907                 1.6081                 8.1331

                     34                     35                     36
                      A                      A                      A
 Frequencies --   1320.4478              1371.3564              1403.5362
 Red. masses --      1.4470                 2.1060                 1.2856
 Frc consts  --      1.4864                 2.3335                 1.4922
 IR Inten    --     16.4110                15.1837                 2.2293

                     37                     38                     39
                      A                      A                      A
 Frequencies --   1408.1349              1433.5720              1490.6495
 Red. masses --      2.0163                 1.5350                 1.0526
 Frc consts  --      2.3556                 1.8587                 1.3780
 IR Inten    --     18.8114                12.8043                 3.5020

                     40                     41                     42
                      A                      A                      A
 Frequencies --   1503.1407              1511.8856              2977.7556
 Red. masses --      1.0540                 1.0942                 1.0811
 Frc consts  --      1.4031                 1.4736                 5.6478
 IR Inten    --      5.4267                 1.2767                74.1835

                     43                     44                     45
                      A                      A                      A
 Frequencies --   2979.8006              3025.5403              3056.4911
 Red. masses --      1.0699                 1.0392                 1.0959
 Frc consts  --      5.5970                 5.6046                 6.0323
 IR Inten    --     64.8554                32.5706                35.2530

                     46                     47                     48
                      A                      A                      A
 Frequencies --   3084.7334              3119.4434              3177.5852
 Red. masses --      1.0985                 1.0990                 1.0905
 Frc consts  --      6.1587                 6.3011                 6.4876
 IR Inten    --     23.8768                11.3696                14.4922

                     49                     50                     51
                      A                      A                      A
 Frequencies --   3188.9262              3201.3598              3816.4591
 Red. masses --      1.0901                 1.0989                 1.0662
 Frc consts  --      6.5314                 6.6353                 9.1494
 IR Inten    --      9.7621                20.3947                18.4286

 - Thermochemistry -
 -------------------
 Temperature   298.150 Kelvin.  Pressure   1.00000 Atm.
 Atom     1 has atomic number  6 and mass  12.00000

 Molecular mass:   126.06808 amu.
 Principal axes and moments of inertia in atomic units:
                           1         2         3
     Eigenvalues --   695.10332 990.909681284.13236
           X            0.99715  -0.07445   0.01228
           Y            0.07451   0.99721  -0.00447
           Z           -0.01192   0.00537   0.99991
 This molecule is an asymmetric top.
 Rotational symmetry number  1.
 Warning -- assumption of classical behavior for rotation
           may cause significant error
 Rotational temperatures (Kelvin)      0.12461     0.08741     0.06745
 Rotational constants (GHZ):           2.59636     1.82130     1.40542
 Zero-point vibrational energy     419376.0 (Joules/Mol)
                                  100.23326 (Kcal/Mol)
 Warning -- explicit consideration of  10 degrees of freedom as
           vibrations may cause significant error
 Vibrational temperatures:    230.80   287.33   340.02   384.63   447.85
          (Kelvin)            465.25   555.48   598.20   792.30   887.12
                              958.32  1076.67  1088.99  1143.41  1224.42
                             1279.09  1340.62  1367.06  1404.11  1420.75
                             1461.15  1492.89  1514.25  1536.26  1608.21
                             1630.94  1682.12  1715.51  1723.88  1758.86
                             1784.74  1833.33  1874.76  1899.83  1973.07
                             2019.37  2025.99  2062.59  2144.71  2162.68
                             2175.26  4284.32  4287.26  4353.07  4397.60
                             4438.24  4488.18  4571.83  4588.15  4606.04
                             5491.03

 Zero-point correction=                           0.159732 (Hartree/Particle)
 Thermal correction to Energy=                    0.167492
 Thermal correction to Enthalpy=                  0.168436
 Thermal correction to Gibbs Free Energy=         0.128063
 Sum of electronic and zero-point Energies=           -422.992290
 Sum of electronic and thermal Energies=              -422.984530
 Sum of electronic and thermal Enthalpies=            -422.983586
 Sum of electronic and thermal Free Energies=         -423.023959

                     E (Thermal)             CV                S
                      KCal/Mol        Cal/Mol-Kelvin    Cal/Mol-Kelvin
 Total                  105.103             31.306             84.974
 Electronic               0.000              0.000              0.000
 Translational            0.889              2.981             40.409
 Rotational               0.889              2.981             28.272
 Vibrational            103.325             25.344             16.293
 Vibration     1          0.622              1.891              2.545
 Vibration     2          0.638              1.840              2.136
 Vibration     3          0.655              1.785              1.830
 Vibration     4          0.672              1.733              1.613
 Vibration     5          0.700              1.652              1.356
 Vibration     6          0.708              1.629              1.293
 Vibration     7          0.755              1.500              1.015
 Vibration     8          0.779              1.436              0.906
 Vibration     9          0.906              1.138              0.543
 Vibration    10          0.976              0.997              0.422

 Optimization completed.
    -- Stationary point found.
 Normal termination of Gaussian 09 at Mon Jan 27 23:35:58 2020.
