 Gaussian 09, Revision D.01,
 Gaussian 09:  ES64L-G09RevD.01 24-Apr-2013

 -----------------------------
 # b3lyp 6-31G(2df,p) opt Freq
 -----------------------------

 -----
 titel
 -----
 Symbolic Z-matrix:
 Charge =  0 Multiplicity = 1

 SCF Done:  E(RB3LYP) =  -423.232508358     A.U. after   14 cycles
 Optimization completed.
    -- Stationary point found.
 Normal termination of Gaussian 09 at Mon Jan 27 16:19:59 2020.

 ----------------------------------------------------------------------
 #N Geom=AllCheck Guess=TCheck SCRF=Check GenChk RB3LYP/6-31G(2df,p) Fr
 eq
 ----------------------------------------------------------------------

 Structure from the checkpoint file:  "/scratch/puck/g09_e7419d26-0008-469c-aee5-dd6f75b4eed0/Gau-11990.chk"
 -----
 titel
 -----
 Charge =  0 Multiplicity = 1

                         Standard orientation:
 ---------------------------------------------------------------------
 Center     Atomic      Atomic             Coordinates (Angstroms)
 Number     Number       Type             X           Y           Z
 ---------------------------------------------------------------------
      1          6           0       -1.381548   -0.000147    1.526186
      2          6           0       -1.153693    0.000011    0.003310
      3          6           0       -2.496458    0.000088   -0.731557
      4          6           0       -0.270618    1.216854   -0.388034
      5          6           0        1.160640    0.781622   -0.121507
      6          8           0        2.132635    1.461857    0.061828
      7          6           0        1.160611   -0.781621   -0.121579
      8          8           0        2.132560   -1.461903    0.061825
      9          6           0       -0.270637   -1.216765   -0.388282
     10          1           0       -0.435223   -0.000186    2.080021
     11          1           0       -1.944933    0.885743    1.836876
     12          1           0       -1.944900   -0.886120    1.836699
     13          1           0       -3.087400    0.884673   -0.469873
     14          1           0       -2.355627    0.000188   -1.817821
     15          1           0       -3.087412   -0.884536   -0.470038
     16          1           0       -0.357482    1.419655   -1.465266
     17          1           0       -0.520419    2.141744    0.137529
     18          1           0       -0.357450   -1.419255   -1.465580
     19          1           0       -0.520502   -2.141789    0.137011
 ---------------------------------------------------------------------

 SCF Done:  E(RB3LYP) =  -423.232508358     A.U. after    1 cycles

 The electronic state is 1-A.
 Alpha  occ. eigenvalues --  -19.15216 -19.15216 -10.27849 -10.27832 -10.22269
 Alpha  occ. eigenvalues --  -10.20326 -10.20325 -10.19259 -10.19154  -1.06870
 Alpha  occ. eigenvalues --   -1.04790  -0.86576  -0.75321  -0.72784  -0.70511
 Alpha  occ. eigenvalues --   -0.63062  -0.56661  -0.51465  -0.49432  -0.47859
 Alpha  occ. eigenvalues --   -0.46111  -0.45498  -0.44108  -0.43367  -0.41067
 Alpha  occ. eigenvalues --   -0.40979  -0.39501  -0.38463  -0.36238  -0.36058
 Alpha  occ. eigenvalues --   -0.34769  -0.34215  -0.30040  -0.23017
 Alpha virt. eigenvalues --   -0.08565   0.04286   0.06211   0.11616   0.11886
 Alpha virt. eigenvalues --    0.12328   0.13343   0.13552   0.14430   0.16723
 Alpha virt. eigenvalues --    0.16728   0.18477   0.19362   0.21346   0.21374

 Mulliken charges:
               1
     1  C   -0.418835
     2  C    0.248163
     3  C   -0.431562
     4  C   -0.357099
     5  C    0.315329
     6  O   -0.280308
     7  C    0.315320
     8  O   -0.280307
     9  C   -0.357091
    10  H    0.126204
    11  H    0.122129
    12  H    0.122129
    13  H    0.118946
    14  H    0.113548
    15  H    0.118947
    16  H    0.130162
    17  H    0.132085
    18  H    0.130158
    19  H    0.132082
 Sum of Mulliken charges =   0.00000

 Dipole moment (field-independent basis, Debye):
    X=             -4.6116    Y=              0.0001    Z=             -0.7216  Tot=              4.6677
 Quadrupole moment (field-independent basis, Debye-Ang):
   XX=            -63.7784   YY=            -56.3379   ZZ=            -50.6481
   XY=              0.0001   XZ=             -1.2387   YZ=              0.0001

  Exact polarizability:  87.339   0.000  75.760   2.314   0.000  64.294
 Approx polarizability: 126.084  -0.001 115.862   5.976   0.000  96.259

                      1                      2                      3
                      A                      A                      A
 Frequencies --     75.0069               101.1738               237.2973
 Red. masses --      4.6308                 3.4583                 1.0462
 Frc consts  --      0.0153                 0.0209                 0.0347
 IR Inten    --      0.0795                 3.9297                 0.0018

                      4                      5                      6
                      A                      A                      A
 Frequencies --    245.8683               293.6202               309.7303
 Red. masses --      1.4702                 1.3776                10.2625
 Frc consts  --      0.0524                 0.0700                 0.5801
 IR Inten    --      0.7815                 0.4642                 3.9472

                      7                      8                      9
                      A                      A                      A
 Frequencies --    324.4697               352.4986               365.3002
 Red. masses --      2.2959                 5.1098                 2.3879
 Frc consts  --      0.1424                 0.3741                 0.1877
 IR Inten    --      0.2601                 8.1662                 0.3840

                     10                     11                     12
                      A                      A                      A
 Frequencies --    398.4749               505.3705               538.2460
 Red. masses --      1.9013                 3.3273                 3.8679
 Frc consts  --      0.1779                 0.5007                 0.6602
 IR Inten    --      1.0971                 0.0018                 0.6983

                     13                     14                     15
                      A                      A                      A
 Frequencies --    587.9636               652.1854               703.9996
 Red. masses --      2.9491                 3.9378                 4.7153
 Frc consts  --      0.6007                 0.9868                 1.3769
 IR Inten    --      7.6420                 5.7206                 1.3809

                     16                     17                     18
                      A                      A                      A
 Frequencies --    773.0183               861.1131               921.0388
 Red. masses --      2.9405                 2.1431                 1.8103
 Frc consts  --      1.0353                 0.9363                 0.9048
 IR Inten    --      0.7334                 8.6035                 0.0427

                     19                     20                     21
                      A                      A                      A
 Frequencies --    930.3498               946.1677               959.9410
 Red. masses --      1.8517                 1.6801                 1.6409
 Frc consts  --      0.9443                 0.8862                 0.8909
 IR Inten    --      0.1330                 0.6960                 1.5153

                     22                     23                     24
                      A                      A                      A
 Frequencies --   1036.4125              1053.3906              1070.8957
 Red. masses --      1.8894                 2.8148                 1.3352
 Frc consts  --      1.1958                 1.8402                 0.9022
 IR Inten    --     15.8470                23.3705                 1.2970

                     25                     26                     27
                      A                      A                      A
 Frequencies --   1149.0503              1152.0748              1204.1383
 Red. masses --      1.3169                 4.5052                 1.9015
 Frc consts  --      1.0244                 3.5231                 1.6245
 IR Inten    --      2.5677                45.9512                25.9371

                     28                     29                     30
                      A                      A                      A
 Frequencies --   1229.3953              1263.0127              1295.8796
 Red. masses --      1.8418                 1.9719                 2.1371
 Frc consts  --      1.6401                 1.8533                 2.1144
 IR Inten    --      4.8963                 7.5085                 4.0692

                     31                     32                     33
                      A                      A                      A
 Frequencies --   1320.4702              1408.0565              1426.6759
 Red. masses --      2.2262                 1.2348                 1.2055
 Frc consts  --      2.2870                 1.4424                 1.4457
 IR Inten    --     18.9279                 7.4485                 2.0499

                     34                     35                     36
                      A                      A                      A
 Frequencies --   1439.0053              1452.7997              1482.5024
 Red. masses --      1.0808                 1.1029                 1.0444
 Frc consts  --      1.3187                 1.3715                 1.3524
 IR Inten    --     11.3605                 5.6186                 0.0101

                     37                     38                     39
                      A                      A                      A
 Frequencies --   1492.4561              1505.5467              1505.5822
 Red. masses --      1.0559                 1.0588                 1.0537
 Frc consts  --      1.3857                 1.4140                 1.4073
 IR Inten    --      4.5294                 3.3366                 6.0841

                     40                     41                     42
                      A                      A                      A
 Frequencies --   1842.8611              1862.8879              3014.8136
 Red. masses --     13.0020                12.7572                 1.0678
 Frc consts  --     26.0162                26.0842                 5.7180
 IR Inten    --    245.2107                51.7184                 4.1678

                     43                     44                     45
                      A                      A                      A
 Frequencies --   3017.8593              3023.6787              3028.8240
 Red. masses --      1.0649                 1.0350                 1.0391
 Frc consts  --      5.7144                 5.5752                 5.6164
 IR Inten    --     16.6514                27.5579                 5.8456

                     46                     47                     48
                      A                      A                      A
 Frequencies --   3091.0702              3095.5085              3095.9961
 Red. masses --      1.1004                 1.1015                 1.1011
 Frc consts  --      6.1949                 6.2184                 6.2187
 IR Inten    --     19.3524                11.7621                31.6351

                     49                     50                     51
                      A                      A                      A
 Frequencies --   3102.3653              3104.7834              3106.5867
 Red. masses --      1.0973                 1.0947                 1.0973
 Frc consts  --      6.2225                 6.2175                 6.2397
 IR Inten    --      1.4044                 9.8213                38.6211

 - Thermochemistry -
 -------------------
 Temperature   298.150 Kelvin.  Pressure   1.00000 Atm.
 Atom     1 has atomic number  6 and mass  12.00000

 Molecular mass:   126.06808 amu.
 Principal axes and moments of inertia in atomic units:
                           1         2         3
     Eigenvalues --   688.491081366.897401642.80312
           X            1.00000   0.00000   0.00000
           Y            0.00000   1.00000   0.00000
           Z            0.00000   0.00000   1.00000
 This molecule is an asymmetric top.
 Rotational symmetry number  1.
 Warning -- assumption of classical behavior for rotation
           may cause significant error
 Rotational temperatures (Kelvin)      0.12580     0.06337     0.05272
 Rotational constants (GHZ):           2.62130     1.32032     1.09857
 Zero-point vibrational energy     412456.9 (Joules/Mol)
                                   98.57957 (Kcal/Mol)
 Warning -- explicit consideration of  13 degrees of freedom as
           vibrations may cause significant error
 Vibrational temperatures:    107.92   145.57   341.42   353.75   422.45
          (Kelvin)            445.63   466.84   507.17   525.58   573.32
                              727.11   774.41   845.95   938.35  1012.90
                             1112.20  1238.95  1325.17  1338.56  1361.32
                             1381.14  1491.16  1515.59  1540.78  1653.22
                             1657.58  1732.48  1768.82  1817.19  1864.48
                             1899.86  2025.88  2052.67  2070.41  2090.25
                             2132.99  2147.31  2166.14  2166.19  2651.46
                             2680.28  4337.64  4342.02  4350.39  4357.80
                             4447.35  4453.74  4454.44  4463.61  4467.09
                             4469.68

 Zero-point correction=                           0.157097 (Hartree/Particle)
 Thermal correction to Energy=                    0.166092
 Thermal correction to Enthalpy=                  0.167036
 Thermal correction to Gibbs Free Energy=         0.123597
 Sum of electronic and zero-point Energies=           -423.075412
 Sum of electronic and thermal Energies=              -423.066416
 Sum of electronic and thermal Enthalpies=            -423.065472
 Sum of electronic and thermal Free Energies=         -423.108912

                     E (Thermal)             CV                S
                      KCal/Mol        Cal/Mol-Kelvin    Cal/Mol-Kelvin
 Total                  104.224             34.253             91.426
 Electronic               0.000              0.000              0.000
 Translational            0.889              2.981             40.409
 Rotational               0.889              2.981             28.827
 Vibrational            102.447             28.292             22.191
 Vibration     1          0.599              1.966              4.017
 Vibration     2          0.604              1.948              3.432
 Vibration     3          0.656              1.784              1.823
 Vibration     4          0.660              1.770              1.760
 Vibration     5          0.688              1.686              1.453
 Vibration     6          0.699              1.655              1.364
 Vibration     7          0.709              1.627              1.287
 Vibration     8          0.729              1.570              1.155
 Vibration     9          0.739              1.544              1.099
 Vibration    10          0.765              1.473              0.968
 Vibration    11          0.861              1.238              0.645
 Vibration    12          0.893              1.165              0.569
 Vibration    13          0.945              1.057              0.471

 Optimization completed.
    -- Stationary point found.
 Normal termination of Gaussian 09 at Mon Jan 27 18:18:23 2020.
