 Gaussian 09, Revision D.01,
 Gaussian 09:  ES64L-G09RevD.01 24-Apr-2013

 -----------------------------
 # b3lyp 6-31G(2df,p) opt Freq
 -----------------------------

 -----
 titel
 -----
 Symbolic Z-matrix:
 Charge =  0 Multiplicity = 1

 SCF Done:  E(RB3LYP) =  -423.113775936     A.U. after   14 cycles
 Optimization completed.
    -- Stationary point found.
 Normal termination of Gaussian 09 at Tue Jan 28 00:04:53 2020.

 ----------------------------------------------------------------------
 #N Geom=AllCheck Guess=TCheck SCRF=Check GenChk RB3LYP/6-31G(2df,p) Fr
 eq
 ----------------------------------------------------------------------

 Structure from the checkpoint file:  "/scratch/puck/g09_c742313b-0f5a-443d-a81f-4423ac1dc528/Gau-58697.chk"
 -----
 titel
 -----
 Charge =  0 Multiplicity = 1

                         Standard orientation:
 ---------------------------------------------------------------------
 Center     Atomic      Atomic             Coordinates (Angstroms)
 Number     Number       Type             X           Y           Z
 ---------------------------------------------------------------------
      1          6           0       -2.313606   -1.241241    0.499887
      2          6           0       -1.226673   -0.842619   -0.472625
      3          6           0       -1.031768    0.555633   -0.974552
      4          8           0       -1.368821    1.525070    0.018157
      5          6           0       -0.298843    1.043408    0.875945
      6          6           0        0.040749   -0.080717   -0.100775
      7          6           0        1.407666   -0.554321   -0.410871
      8          6           0        2.468362   -0.624770    0.605902
      9          8           0        2.460880    0.418751   -0.369243
     10          1           0       -1.986841   -2.050888    1.160759
     11          1           0       -2.615720   -0.389704    1.113740
     12          1           0       -3.200291   -1.587215   -0.041401
     13          1           0       -1.014581   -1.578272   -1.248246
     14          1           0       -1.039914    0.871688   -2.011943
     15          1           0        0.501575    1.786965    0.942566
     16          1           0       -0.654058    0.774282    1.877296
     17          1           0        1.475774   -1.241566   -1.255693
     18          1           0        2.253528   -0.311047    1.626965
     19          1           0        3.268741   -1.357042    0.507176
 ---------------------------------------------------------------------

 SCF Done:  E(RB3LYP) =  -423.113775936     A.U. after    1 cycles

 The electronic state is 1-A.
 Alpha  occ. eigenvalues --  -19.15340 -19.14043 -10.24639 -10.23972 -10.23772
 Alpha  occ. eigenvalues --  -10.23444 -10.20402 -10.20166 -10.17929  -1.07342
 Alpha  occ. eigenvalues --   -1.05274  -0.84615  -0.73126  -0.70062  -0.67604
 Alpha  occ. eigenvalues --   -0.64321  -0.57492  -0.54658  -0.52850  -0.49907
 Alpha  occ. eigenvalues --   -0.47291  -0.45562  -0.43237  -0.41018  -0.40771
 Alpha  occ. eigenvalues --   -0.39984  -0.39079  -0.36078  -0.33697  -0.33278
 Alpha  occ. eigenvalues --   -0.32043  -0.27388  -0.26039  -0.23485
 Alpha virt. eigenvalues --    0.06768   0.08720   0.09672   0.10585   0.11244
 Alpha virt. eigenvalues --    0.11990   0.13679   0.14907   0.15547   0.15762
 Alpha virt. eigenvalues --    0.16849   0.17475   0.19044   0.20115   0.21313

 Mulliken charges:
               1
     1  C   -0.424790
     2  C   -0.102740
     3  C    0.035525
     4  O   -0.282984
     5  C   -0.158890
     6  C    0.281028
     7  C   -0.051173
     8  C   -0.185718
     9  O   -0.235260
    10  H    0.116211
    11  H    0.139363
    12  H    0.121230
    13  H    0.089163
    14  H    0.107466
    15  H    0.127035
    16  H    0.102769
    17  H    0.091164
    18  H    0.113312
    19  H    0.117287
 Sum of Mulliken charges =   0.00000

 Dipole moment (field-independent basis, Debye):
    X=              0.1273    Y=             -2.4986    Z=              0.4508  Tot=              2.5421
 Quadrupole moment (field-independent basis, Debye-Ang):
   XX=            -57.1731   YY=            -55.1136   ZZ=            -49.4220
   XY=             -0.6590   XZ=              2.9696   YZ=              1.3161

  Exact polarizability:  86.465   0.994  69.530   5.200   1.610  71.248
 Approx polarizability: 115.017   0.477 107.077   9.458   0.601 108.606

                      1                      2                      3
                      A                      A                      A
 Frequencies --     69.2879               146.1576               170.1994
 Red. masses --      3.5520                 3.1639                 1.2428
 Frc consts  --      0.0100                 0.0398                 0.0212
 IR Inten    --      1.8672                 1.7651                 0.9759

                      4                      5                      6
                      A                      A                      A
 Frequencies --    178.0084               243.1342               274.6747
 Red. masses --      2.7922                 3.7229                 2.1905
 Frc consts  --      0.0521                 0.1297                 0.0974
 IR Inten    --      1.0029                 2.6503                 1.4465

                      7                      8                      9
                      A                      A                      A
 Frequencies --    363.6858               384.0675               523.3259
 Red. masses --      3.7606                 3.2155                 2.7033
 Frc consts  --      0.2931                 0.2795                 0.4362
 IR Inten    --     10.7843                 0.7466                 3.2573

                     10                     11                     12
                      A                      A                      A
 Frequencies --    594.7070               645.5414               770.3020
 Red. masses --      3.0965                 2.9263                 3.0863
 Frc consts  --      0.6452                 0.7185                 1.0790
 IR Inten    --      4.6477                 2.2362                12.2899

                     13                     14                     15
                      A                      A                      A
 Frequencies --    775.0986               839.6446               872.6649
 Red. masses --      3.3104                 6.4035                 1.9313
 Frc consts  --      1.1718                 2.6599                 0.8665
 IR Inten    --     17.3143                11.4152                13.7834

                     16                     17                     18
                      A                      A                      A
 Frequencies --    930.7015               940.6890               969.8627
 Red. masses --      2.9641                 2.4034                 1.7890
 Frc consts  --      1.5127                 1.2530                 0.9915
 IR Inten    --      8.9614                48.5662                10.5062

                     19                     20                     21
                      A                      A                      A
 Frequencies --    998.9947              1010.4100              1022.8242
 Red. masses --      2.2364                 1.9815                 1.7087
 Frc consts  --      1.3150                 1.1919                 1.0532
 IR Inten    --     16.1490                15.7804                15.1318

                     22                     23                     24
                      A                      A                      A
 Frequencies --   1073.2218              1084.6953              1099.2000
 Red. masses --      1.8491                 1.7573                 1.3795
 Frc consts  --      1.2548                 1.2182                 0.9820
 IR Inten    --      5.1085                16.7769                 3.2519

                     25                     26                     27
                      A                      A                      A
 Frequencies --   1106.5908              1142.1389              1156.2321
 Red. masses --      2.2074                 2.1595                 1.4047
 Frc consts  --      1.5926                 1.6597                 1.1065
 IR Inten    --      3.0241                 9.0331                 0.5558

                     28                     29                     30
                      A                      A                      A
 Frequencies --   1166.4397              1168.3243              1229.5413
 Red. masses --      1.1751                 1.3420                 1.5292
 Frc consts  --      0.9420                 1.0793                 1.3621
 IR Inten    --      3.1659                 1.0876                 4.1690

                     31                     32                     33
                      A                      A                      A
 Frequencies --   1266.7773              1280.4357              1325.1170
 Red. masses --      2.0521                 1.4255                 2.1214
 Frc consts  --      1.9402                 1.3770                 2.1947
 IR Inten    --      3.5677                 0.9837                11.5563

                     34                     35                     36
                      A                      A                      A
 Frequencies --   1353.3381              1409.4514              1417.2244
 Red. masses --      1.5948                 1.3756                 1.4810
 Frc consts  --      1.7209                 1.6101                 1.7526
 IR Inten    --      1.7637                 8.0944                 8.0287

                     37                     38                     39
                      A                      A                      A
 Frequencies --   1482.0451              1493.4602              1504.4268
 Red. masses --      1.7473                 1.1228                 1.2240
 Frc consts  --      2.2612                 1.4756                 1.6322
 IR Inten    --      8.5515                 1.6410                 9.1863

                     40                     41                     42
                      A                      A                      A
 Frequencies --   1518.3459              1531.0913              3031.0196
 Red. masses --      1.0944                 1.4526                 1.0550
 Frc consts  --      1.4865                 2.0063                 5.7103
 IR Inten    --      2.1592                 8.0636                45.6752

                     43                     44                     45
                      A                      A                      A
 Frequencies --   3038.6192              3079.5431              3088.7119
 Red. masses --      1.0378                 1.0502                 1.1090
 Frc consts  --      5.6459                 5.8682                 6.2338
 IR Inten    --     34.6724                27.0955                24.5440

                     46                     47                     48
                      A                      A                      A
 Frequencies --   3095.9137              3096.7231              3114.6462
 Red. masses --      1.0898                 1.0995                 1.0873
 Frc consts  --      6.1540                 6.2121                 6.2144
 IR Inten    --     16.8759                20.4842                 4.8635

                     49                     50                     51
                      A                      A                      A
 Frequencies --   3131.9181              3165.5379              3175.2900
 Red. masses --      1.0964                 1.1195                 1.0936
 Frc consts  --      6.3366                 6.6094                 6.4963
 IR Inten    --     20.3042                28.9447                21.5175

 - Thermochemistry -
 -------------------
 Temperature   298.150 Kelvin.  Pressure   1.00000 Atm.
 Atom     1 has atomic number  6 and mass  12.00000

 Molecular mass:   126.06808 amu.
 Principal axes and moments of inertia in atomic units:
                           1         2         3
     Eigenvalues --   577.371971478.965471683.70388
           X            0.99985   0.01725   0.00316
           Y           -0.01730   0.99974   0.01515
           Z           -0.00290  -0.01521   0.99988
 This molecule is an asymmetric top.
 Rotational symmetry number  1.
 Warning -- assumption of classical behavior for rotation
           may cause significant error
 Rotational temperatures (Kelvin)      0.15001     0.05856     0.05144
 Rotational constants (GHZ):           3.12579     1.22027     1.07189
 Zero-point vibrational energy     416001.4 (Joules/Mol)
                                   99.42672 (Kcal/Mol)
 Warning -- explicit consideration of  10 degrees of freedom as
           vibrations may cause significant error
 Vibrational temperatures:     99.69   210.29   244.88   256.11   349.82
          (Kelvin)            395.20   523.26   552.59   752.95   855.65
                              928.79  1108.29  1115.19  1208.06  1255.57
                             1339.07  1353.44  1395.41  1437.33  1453.75
                             1471.61  1544.12  1560.63  1581.50  1592.14
                             1643.28  1663.56  1678.24  1680.96  1769.03
                             1822.61  1842.26  1906.55  1947.15  2027.88
                             2039.07  2132.33  2148.75  2164.53  2184.56
                             2202.90  4360.96  4371.89  4430.77  4443.96
                             4454.32  4455.49  4481.28  4506.13  4554.50
                             4568.53

 Zero-point correction=                           0.158447 (Hartree/Particle)
 Thermal correction to Energy=                    0.166879
 Thermal correction to Enthalpy=                  0.167823
 Thermal correction to Gibbs Free Energy=         0.125129
 Sum of electronic and zero-point Energies=           -422.955329
 Sum of electronic and thermal Energies=              -422.946897
 Sum of electronic and thermal Enthalpies=            -422.945953
 Sum of electronic and thermal Free Energies=         -422.988647

                     E (Thermal)             CV                S
                      KCal/Mol        Cal/Mol-Kelvin    Cal/Mol-Kelvin
 Total                  104.718             31.672             89.858
 Electronic               0.000              0.000              0.000
 Translational            0.889              2.981             40.409
 Rotational               0.889              2.981             28.754
 Vibrational            102.941             25.711             20.695
 Vibration     1          0.598              1.969              4.173
 Vibration     2          0.617              1.907              2.722
 Vibration     3          0.625              1.879              2.433
 Vibration     4          0.628              1.869              2.349
 Vibration     5          0.659              1.774              1.780
 Vibration     6          0.677              1.720              1.567
 Vibration     7          0.737              1.547              1.106
 Vibration     8          0.753              1.504              1.023
 Vibration     9          0.878              1.198              0.602
 Vibration    10          0.952              1.043              0.459

 Optimization completed.
    -- Stationary point found.
 Normal termination of Gaussian 09 at Tue Jan 28 00:50:13 2020.
