 Gaussian 09, Revision D.01,
 Gaussian 09:  ES64L-G09RevD.01 24-Apr-2013

 -----------------------------
 # b3lyp 6-31G(2df,p) opt Freq
 -----------------------------

 -----
 titel
 -----
 Symbolic Z-matrix:
 Charge =  0 Multiplicity = 1

 SCF Done:  E(RB3LYP) =  -423.128759091     A.U. after   14 cycles
 Optimization completed.
    -- Stationary point found.
 Normal termination of Gaussian 09 at Mon Jan 27 15:35:45 2020.

 ----------------------------------------------------------------------
 #N Geom=AllCheck Guess=TCheck SCRF=Check GenChk RB3LYP/6-31G(2df,p) Fr
 eq
 ----------------------------------------------------------------------

 Structure from the checkpoint file:  "/scratch/puck/g09_a3743778-b0f1-4e4f-ae26-75ed80f2f6af/Gau-55396.chk"
 -----
 titel
 -----
 Charge =  0 Multiplicity = 1

                         Standard orientation:
 ---------------------------------------------------------------------
 Center     Atomic      Atomic             Coordinates (Angstroms)
 Number     Number       Type             X           Y           Z
 ---------------------------------------------------------------------
      1          6           0       -2.253564    0.142895    1.268467
      2          6           0       -1.405422    0.317279   -0.000140
      3          6           0       -2.253636    0.141780   -1.268548
      4          6           0       -0.235745   -0.660036    0.000256
      5          6           0        0.997789   -0.477736    0.930386
      6          8           0        1.772523   -1.340983    0.000555
      7          6           0        0.997801   -0.478501   -0.930007
      8          6           0        1.472227    0.676283   -0.000282
      9          8           0        2.009460    1.732584   -0.000718
     10          1           0       -2.679051   -0.866144    1.319597
     11          1           0       -1.660806    0.302010    2.174979
     12          1           0       -3.084290    0.855183    1.283386
     13          1           0       -1.002605    1.339918   -0.000608
     14          1           0       -3.084472    0.853932   -1.283971
     15          1           0       -1.660969    0.300273   -2.175229
     16          1           0       -2.678976   -0.867363   -1.318857
     17          1           0       -0.549343   -1.709257    0.000678
     18          1           0        1.113960   -0.655748    1.997336
     19          1           0        1.113990   -0.657393   -1.996807
 ---------------------------------------------------------------------

 SCF Done:  E(RB3LYP) =  -423.128759091     A.U. after    1 cycles

 The electronic state is 1-A.
 Alpha  occ. eigenvalues --  -19.16400 -19.15298 -10.28651 -10.25865 -10.25863
 Alpha  occ. eigenvalues --  -10.21376 -10.20437 -10.18578 -10.18577  -1.08623
 Alpha  occ. eigenvalues --   -1.05484  -0.83089  -0.76838  -0.69674  -0.67404
 Alpha  occ. eigenvalues --   -0.65738  -0.59104  -0.53954  -0.50358  -0.46768
 Alpha  occ. eigenvalues --   -0.45888  -0.44459  -0.43409  -0.42747  -0.40106
 Alpha  occ. eigenvalues --   -0.39969  -0.39365  -0.37149  -0.36345  -0.34227
 Alpha  occ. eigenvalues --   -0.33411  -0.32824  -0.26615  -0.25820
 Alpha virt. eigenvalues --   -0.01220   0.07380   0.09228   0.10176   0.11086
 Alpha virt. eigenvalues --    0.11653   0.11818   0.15106   0.15178   0.15711
 Alpha virt. eigenvalues --    0.16282   0.16336   0.17588   0.19029   0.19633

 Mulliken charges:
               1
     1  C   -0.388239
     2  C   -0.026041
     3  C   -0.388243
     4  C    0.042085
     5  C   -0.098640
     6  O   -0.303260
     7  C   -0.098643
     8  C    0.454315
     9  O   -0.311714
    10  H    0.117736
    11  H    0.117921
    12  H    0.119117
    13  H    0.091407
    14  H    0.119116
    15  H    0.117922
    16  H    0.117736
    17  H    0.093131
    18  H    0.112147
    19  H    0.112148
 Sum of Mulliken charges =   0.00000

 Dipole moment (field-independent basis, Debye):
    X=             -2.8720    Y=             -1.0110    Z=              0.0004  Tot=              3.0447
 Quadrupole moment (field-independent basis, Debye-Ang):
   XX=            -58.7199   YY=            -59.2845   ZZ=            -49.5760
   XY=             -2.1829   XZ=              0.0009   YZ=              0.0040

  Exact polarizability:  80.878   2.604  71.596  -0.001   0.001  74.226
 Approx polarizability: 108.657   4.603 123.338  -0.002  -0.006 110.249

                      1                      2                      3
                      A                      A                      A
 Frequencies --     57.0340               110.4563               160.1711
 Red. masses --      2.9798                 6.6893                 3.2764
 Frc consts  --      0.0057                 0.0481                 0.0495
 IR Inten    --      0.5419                 2.0268                 0.4421

                      4                      5                      6
                      A                      A                      A
 Frequencies --    223.3166               225.0436               265.7591
 Red. masses --      1.6075                 1.0323                 2.0692
 Frc consts  --      0.0472                 0.0308                 0.0861
 IR Inten    --      2.5157                 0.0230                 2.9752

                      7                      8                      9
                      A                      A                      A
 Frequencies --    306.3533               419.9412               434.2670
 Red. masses --      2.4322                 2.9880                 4.1625
 Frc consts  --      0.1345                 0.3105                 0.4625
 IR Inten    --      0.0749                 0.0009                 1.5381

                     10                     11                     12
                      A                      A                      A
 Frequencies --    437.4031               539.4634               639.8563
 Red. masses --      2.5593                 4.4913                 3.9432
 Frc consts  --      0.2885                 0.7701                 0.9512
 IR Inten    --      1.3909                 5.0877                 0.3861

                     13                     14                     15
                      A                      A                      A
 Frequencies --    779.6669               798.2371               857.3353
 Red. masses --      6.8792                 3.7471                 2.4506
 Frc consts  --      2.4638                 1.4067                 1.0613
 IR Inten    --     15.0761                 3.7402                 2.6106

                     16                     17                     18
                      A                      A                      A
 Frequencies --    868.0287               886.0711               896.0851
 Red. masses --      5.9417                 2.7779                 3.4357
 Frc consts  --      2.6377                 1.2850                 1.6254
 IR Inten    --     18.5911                13.5234                26.4982

                     19                     20                     21
                      A                      A                      A
 Frequencies --    928.8616               944.7334               970.9869
 Red. masses --      1.3320                 1.8313                 1.4445
 Frc consts  --      0.6771                 0.9630                 0.8024
 IR Inten    --      0.3700                 5.4813                 0.1765

                     22                     23                     24
                      A                      A                      A
 Frequencies --   1011.9970              1021.0370              1122.2158
 Red. masses --      1.6604                 1.5888                 3.7519
 Frc consts  --      1.0019                 0.9759                 2.7839
 IR Inten    --     10.5698                 2.7797                 0.4775

                     25                     26                     27
                      A                      A                      A
 Frequencies --   1130.7759              1140.7775              1173.8547
 Red. masses --      1.6007                 1.6275                 2.2575
 Frc consts  --      1.2059                 1.2479                 1.8328
 IR Inten    --      2.3731                 0.0643                 4.4789

                     28                     29                     30
                      A                      A                      A
 Frequencies --   1204.2673              1213.0177              1218.9724
 Red. masses --      1.8651                 1.6521                 1.5579
 Frc consts  --      1.5936                 1.4322                 1.3638
 IR Inten    --      0.5061                 0.0027                 2.1159

                     31                     32                     33
                      A                      A                      A
 Frequencies --   1249.6986              1302.3399              1346.9891
 Red. masses --      1.4889                 1.4284                 1.3625
 Frc consts  --      1.3700                 1.4274                 1.4565
 IR Inten    --      2.5329                 7.0529                 2.8865

                     34                     35                     36
                      A                      A                      A
 Frequencies --   1400.9743              1407.2395              1424.5686
 Red. masses --      1.2334                 1.5572                 1.2468
 Frc consts  --      1.4263                 1.8170                 1.4908
 IR Inten    --      3.9880                 0.1826                 2.1542

                     37                     38                     39
                      A                      A                      A
 Frequencies --   1485.9628              1492.8238              1505.8853
 Red. masses --      1.0454                 1.0461                 1.0530
 Frc consts  --      1.3601                 1.3736                 1.4069
 IR Inten    --      0.0052                 2.8236                 5.5852

                     40                     41                     42
                      A                      A                      A
 Frequencies --   1508.8354              1935.5184              3008.0686
 Red. masses --      1.0628                12.2931                 1.0823
 Frc consts  --      1.4256                27.1335                 5.7699
 IR Inten    --      7.7622               352.2459                 8.4707

                     43                     44                     45
                      A                      A                      A
 Frequencies --   3027.5755              3031.2534              3071.0820
 Red. masses --      1.0353                 1.0362                 1.0844
 Frc consts  --      5.5912                 5.6095                 6.0259
 IR Inten    --     24.7167                16.9457                 9.8984

                     46                     47                     48
                      A                      A                      A
 Frequencies --   3094.0004              3099.0327              3103.9763
 Red. masses --      1.1008                 1.1003                 1.1021
 Frc consts  --      6.2086                 6.2259                 6.2564
 IR Inten    --      8.0621                46.7566                 8.2547

                     49                     50                     51
                      A                      A                      A
 Frequencies --   3106.7183              3150.3293              3154.8319
 Red. masses --      1.1013                 1.0908                 1.0973
 Frc consts  --      6.2627                 6.3783                 6.4348
 IR Inten    --     46.3219                37.8920                 1.1242

 - Thermochemistry -
 -------------------
 Temperature   298.150 Kelvin.  Pressure   1.00000 Atm.
 Atom     1 has atomic number  6 and mass  12.00000

 Molecular mass:   126.06808 amu.
 Principal axes and moments of inertia in atomic units:
                           1         2         3
     Eigenvalues --   668.506041558.031971628.10136
           X            0.99991  -0.01341   0.00000
           Y            0.01341   0.99991   0.00034
           Z           -0.00001  -0.00034   1.00000
 This molecule is an asymmetric top.
 Rotational symmetry number  1.
 Warning -- assumption of classical behavior for rotation
           may cause significant error
 Rotational temperatures (Kelvin)      0.12956     0.05559     0.05320
 Rotational constants (GHZ):           2.69966     1.15835     1.10849
 Zero-point vibrational energy     412075.8 (Joules/Mol)
                                   98.48847 (Kcal/Mol)
 Warning -- explicit consideration of  11 degrees of freedom as
           vibrations may cause significant error
 Vibrational temperatures:     82.06   158.92   230.45   321.30   323.79
          (Kelvin)            382.37   440.77   604.20   624.81   629.32
                              776.17   920.61  1121.77  1148.48  1233.51
                             1248.90  1274.86  1289.27  1336.42  1359.26
                             1397.03  1456.04  1469.04  1614.62  1626.93
                             1641.32  1688.91  1732.67  1745.26  1753.83
                             1798.04  1873.77  1938.01  2015.69  2024.70
                             2049.63  2137.97  2147.84  2166.63  2170.87
                             2784.78  4327.93  4356.00  4361.29  4418.60
                             4451.57  4458.81  4465.92  4469.87  4532.62
                             4539.09

 Zero-point correction=                           0.156951 (Hartree/Particle)
 Thermal correction to Energy=                    0.165860
 Thermal correction to Enthalpy=                  0.166804
 Thermal correction to Gibbs Free Energy=         0.123019
 Sum of electronic and zero-point Energies=           -422.971808
 Sum of electronic and thermal Energies=              -422.962899
 Sum of electronic and thermal Enthalpies=            -422.961955
 Sum of electronic and thermal Free Energies=         -423.005740

                     E (Thermal)             CV                S
                      KCal/Mol        Cal/Mol-Kelvin    Cal/Mol-Kelvin
 Total                  104.079             33.248             92.154
 Electronic               0.000              0.000              0.000
 Translational            0.889              2.981             40.409
 Rotational               0.889              2.981             28.918
 Vibrational            102.301             27.286             22.827
 Vibration     1          0.596              1.975              4.557
 Vibration     2          0.606              1.941              3.261
 Vibration     3          0.622              1.891              2.548
 Vibration     4          0.649              1.806              1.932
 Vibration     5          0.650              1.803              1.918
 Vibration     6          0.672              1.736              1.624
 Vibration     7          0.697              1.662              1.382
 Vibration     8          0.783              1.427              0.892
 Vibration     9          0.795              1.396              0.845
 Vibration    10          0.798              1.389              0.835
 Vibration    11          0.895              1.163              0.566

 Optimization completed.
    -- Stationary point found.
 Normal termination of Gaussian 09 at Mon Jan 27 16:17:05 2020.
