 Gaussian 09, Revision D.01,
 Gaussian 09:  ES64L-G09RevD.01 24-Apr-2013

 -----------------------------
 # b3lyp 6-31G(2df,p) opt Freq
 -----------------------------

 -----
 titel
 -----
 Symbolic Z-matrix:
 Charge =  0 Multiplicity = 1

 SCF Done:  E(RB3LYP) =  -423.130348756     A.U. after   12 cycles
 Optimization completed.
    -- Stationary point found.
 Normal termination of Gaussian 09 at Mon Jan 27 22:02:39 2020.

 ----------------------------------------------------------------------
 #N Geom=AllCheck Guess=TCheck SCRF=Check GenChk RB3LYP/6-31G(2df,p) Fr
 eq
 ----------------------------------------------------------------------

 Structure from the checkpoint file:  "/scratch/puck/g09_fc5085e1-654d-4654-ac23-c344d145b5d5/Gau-176397.chk"
 -----
 titel
 -----
 Charge =  0 Multiplicity = 1

                         Standard orientation:
 ---------------------------------------------------------------------
 Center     Atomic      Atomic             Coordinates (Angstroms)
 Number     Number       Type             X           Y           Z
 ---------------------------------------------------------------------
      1          6           0       -2.238488   -1.229303   -0.042196
      2          6           0       -0.958523   -0.635871   -0.618988
      3          6           0        0.325370   -1.183442    0.014659
      4          6           0        0.366687   -0.087890    1.066236
      5          6           0        1.385063   -0.069211   -0.033301
      6          8           0        2.732752   -0.321530    0.123750
      7          6           0        0.748904    1.131621   -0.733667
      8          6           0       -0.545972    0.715729    0.020300
      9          8           0       -1.560600    1.615885    0.286675
     10          1           0       -3.109319   -0.640480   -0.344180
     11          1           0       -2.383293   -2.256754   -0.392602
     12          1           0       -2.205812   -1.246346    1.052035
     13          1           0       -1.004978   -0.626681   -1.716414
     14          1           0        0.619227   -2.217343    0.149119
     15          1           0        0.457668   -0.116743    2.141899
     16          1           0        3.052353   -0.764248   -0.670305
     17          1           0        1.162404    2.066774   -0.339198
     18          1           0        0.708074    1.168821   -1.829154
     19          1           0       -1.171787    2.428353    0.627136
 ---------------------------------------------------------------------

 SCF Done:  E(RB3LYP) =  -423.130348756     A.U. after    1 cycles

 The electronic state is 1-A.
 Alpha  occ. eigenvalues --  -19.14870 -19.14738 -10.24258 -10.23818 -10.18604
 Alpha  occ. eigenvalues --  -10.18463 -10.17986 -10.17954 -10.16625  -1.03783
 Alpha  occ. eigenvalues --   -1.03143  -0.91625  -0.75257  -0.71099  -0.64787
 Alpha  occ. eigenvalues --   -0.61314  -0.56696  -0.54024  -0.52522  -0.47765
 Alpha  occ. eigenvalues --   -0.46248  -0.44199  -0.42692  -0.40134  -0.40012
 Alpha  occ. eigenvalues --   -0.37770  -0.36394  -0.35519  -0.34747  -0.31594
 Alpha  occ. eigenvalues --   -0.29209  -0.25877  -0.24632  -0.24284
 Alpha virt. eigenvalues --    0.07163   0.07927   0.11145   0.12320   0.12853
 Alpha virt. eigenvalues --    0.13730   0.14157   0.15113   0.16818   0.17542
 Alpha virt. eigenvalues --    0.18775   0.19758   0.20422   0.21413   0.23257

 Mulliken charges:
               1
     1  C   -0.405328
     2  C   -0.029711
     3  C   -0.134348
     4  C   -0.230860
     5  C    0.389221
     6  O   -0.462856
     7  C   -0.376490
     8  C    0.397146
     9  O   -0.478575
    10  H    0.124572
    11  H    0.106751
    12  H    0.117588
    13  H    0.056996
    14  H    0.084547
    15  H    0.096123
    16  H    0.285078
    17  H    0.090776
    18  H    0.086787
    19  H    0.282584
 Sum of Mulliken charges =   0.00000

 Dipole moment (field-independent basis, Debye):
    X=              0.6382    Y=              0.0656    Z=             -0.7172  Tot=              0.9622
 Quadrupole moment (field-independent basis, Debye-Ang):
   XX=            -57.6883   YY=            -48.0859   ZZ=            -51.3832
   XY=             -0.9594   XZ=             -3.7715   YZ=              2.5652

  Exact polarizability:  82.207   1.681  75.819  -0.794   0.606  66.832
 Approx polarizability: 112.828  -1.149 110.371  -1.001   3.495 106.459

                      1                      2                      3
                      A                      A                      A
 Frequencies --    190.7665               219.7589               232.1616
 Red. masses --      2.9357                 2.4230                 1.1170
 Frc consts  --      0.0629                 0.0689                 0.0355
 IR Inten    --      2.7722                 3.9234                 1.6868

                      4                      5                      6
                      A                      A                      A
 Frequencies --    234.5205               260.5557               302.7765
 Red. masses --      2.9406                 1.3977                 1.3134
 Frc consts  --      0.0953                 0.0559                 0.0709
 IR Inten    --      4.1002                64.2034                21.0968

                      7                      8                      9
                      A                      A                      A
 Frequencies --    331.3353               420.2128               437.1647
 Red. masses --      2.4335                 2.8164                 2.5133
 Frc consts  --      0.1574                 0.2930                 0.2830
 IR Inten    --    110.4490                 6.0590                 0.1409

                     10                     11                     12
                      A                      A                      A
 Frequencies --    464.0061               486.6559               599.3481
 Red. masses --      2.3735                 3.8665                 5.2284
 Frc consts  --      0.3011                 0.5395                 1.1066
 IR Inten    --      1.4687                 8.0480                 4.0481

                     13                     14                     15
                      A                      A                      A
 Frequencies --    660.2292               751.0139               764.6382
 Red. masses --      3.2075                 3.6764                 2.4651
 Frc consts  --      0.8238                 1.2217                 0.8492
 IR Inten    --      2.9295                 5.0186                 2.6458

                     16                     17                     18
                      A                      A                      A
 Frequencies --    822.8687               847.6837               912.4779
 Red. masses --      1.3867                 1.8640                 2.3700
 Frc consts  --      0.5532                 0.7892                 1.1626
 IR Inten    --      3.1965                 2.3206                 8.2363

                     19                     20                     21
                      A                      A                      A
 Frequencies --    913.5964               941.1793               963.9775
 Red. masses --      2.1425                 3.0038                 1.7131
 Frc consts  --      1.0536                 1.5677                 0.9379
 IR Inten    --      1.5894                 4.6223                18.5215

                     22                     23                     24
                      A                      A                      A
 Frequencies --   1000.7758              1050.4959              1068.6228
 Red. masses --      2.0616                 2.0047                 1.6700
 Frc consts  --      1.2166                 1.3034                 1.1236
 IR Inten    --      2.9865                13.2497                34.9190

                     25                     26                     27
                      A                      A                      A
 Frequencies --   1077.1937              1098.3201              1107.8681
 Red. masses --      1.6954                 1.7119                 1.4578
 Frc consts  --      1.1590                 1.2167                 1.0542
 IR Inten    --     16.5527                 1.3931                 0.9637

                     28                     29                     30
                      A                      A                      A
 Frequencies --   1133.5765              1184.6929              1201.2317
 Red. masses --      2.0430                 1.6515                 1.7057
 Frc consts  --      1.5467                 1.3657                 1.4501
 IR Inten    --      5.5887                31.4622                16.7491

                     31                     32                     33
                      A                      A                      A
 Frequencies --   1254.0504              1279.5898              1300.1724
 Red. masses --      1.8500                 3.2511                 1.6066
 Frc consts  --      1.7141                 3.1364                 1.6002
 IR Inten    --     25.1026                49.0202               216.2138

                     34                     35                     36
                      A                      A                      A
 Frequencies --   1313.2577              1357.0356              1402.1744
 Red. masses --      2.3212                 1.6659                 1.9564
 Frc consts  --      2.3586                 1.8076                 2.2663
 IR Inten    --     86.7687                12.7021                 2.0261

                     37                     38                     39
                      A                      A                      A
 Frequencies --   1410.6164              1442.3994              1494.6940
 Red. masses --      1.3292                 2.5928                 1.0674
 Frc consts  --      1.5583                 3.1783                 1.4050
 IR Inten    --      5.5659                21.2241                 5.4509

                     40                     41                     42
                      A                      A                      A
 Frequencies --   1496.0656              1506.0103              3008.7451
 Red. masses --      1.0623                 1.2672                 1.0811
 Frc consts  --      1.4009                 1.6934                 5.7662
 IR Inten    --      3.3270                 1.4038                28.7466

                     43                     44                     45
                      A                      A                      A
 Frequencies --   3021.9164              3034.6419              3079.7047
 Red. masses --      1.0590                 1.0354                 1.1071
 Frc consts  --      5.6979                 5.6177                 6.1869
 IR Inten    --     68.6016                26.9277                31.5166

                     46                     47                     48
                      A                      A                      A
 Frequencies --   3100.9679              3112.1674              3191.0204
 Red. masses --      1.1012                 1.1012                 1.0917
 Frc consts  --      6.2388                 6.2839                 6.5497
 IR Inten    --     29.2956                23.4544                12.7657

                     49                     50                     51
                      A                      A                      A
 Frequencies --   3229.3737              3791.4157              3810.8708
 Red. masses --      1.0983                 1.0661                 1.0658
 Frc consts  --      6.7488                 9.0289                 9.1199
 IR Inten    --      2.8963                21.6781                23.3138

 - Thermochemistry -
 -------------------
 Temperature   298.150 Kelvin.  Pressure   1.00000 Atm.
 Atom     1 has atomic number  6 and mass  12.00000

 Molecular mass:   126.06808 amu.
 Principal axes and moments of inertia in atomic units:
                           1         2         3
     Eigenvalues --   602.886231214.967411534.93790
           X            0.99905   0.04294  -0.00758
           Y           -0.04299   0.99906  -0.00601
           Z            0.00732   0.00633   0.99995
 This molecule is an asymmetric top.
 Rotational symmetry number  1.
 Warning -- assumption of classical behavior for rotation
           may cause significant error
 Rotational temperatures (Kelvin)      0.14367     0.07129     0.05643
 Rotational constants (GHZ):           2.99350     1.48542     1.17577
 Zero-point vibrational energy     414605.3 (Joules/Mol)
                                   99.09305 (Kcal/Mol)
 Warning -- explicit consideration of  12 degrees of freedom as
           vibrations may cause significant error
 Vibrational temperatures:    274.47   316.18   334.03   337.42   374.88
          (Kelvin)            435.63   476.72   604.59   628.98   667.60
                              700.19   862.33   949.92  1080.54  1100.14
                             1183.92  1219.63  1312.85  1314.46  1354.15
                             1386.95  1439.89  1511.43  1537.51  1549.84
                             1580.24  1593.97  1630.96  1704.51  1728.30
                             1804.30  1841.04  1870.66  1889.48  1952.47
                             2017.41  2029.56  2075.29  2150.53  2152.50
                             2166.81  4328.91  4347.86  4366.17  4431.00
                             4461.60  4477.71  4591.16  4646.34  5454.99
                             5482.99

 Zero-point correction=                           0.157915 (Hartree/Particle)
 Thermal correction to Energy=                    0.166318
 Thermal correction to Enthalpy=                  0.167262
 Thermal correction to Gibbs Free Energy=         0.125813
 Sum of electronic and zero-point Energies=           -422.972434
 Sum of electronic and thermal Energies=              -422.964031
 Sum of electronic and thermal Enthalpies=            -422.963086
 Sum of electronic and thermal Free Energies=         -423.004536

                     E (Thermal)             CV                S
                      KCal/Mol        Cal/Mol-Kelvin    Cal/Mol-Kelvin
 Total                  104.366             33.865             87.237
 Electronic               0.000              0.000              0.000
 Translational            0.889              2.981             40.409
 Rotational               0.889              2.981             28.510
 Vibrational            102.589             27.903             18.319
 Vibration     1          0.634              1.853              2.220
 Vibration     2          0.647              1.811              1.961
 Vibration     3          0.653              1.792              1.862
 Vibration     4          0.654              1.788              1.844
 Vibration     5          0.669              1.745              1.658
 Vibration     6          0.694              1.668              1.402
 Vibration     7          0.714              1.613              1.254
 Vibration     8          0.783              1.426              0.891
 Vibration     9          0.797              1.389              0.836
 Vibration    10          0.822              1.330              0.755
 Vibration    11          0.843              1.280              0.692
 Vibration    12          0.957              1.033              0.451

 Optimization completed.
    -- Stationary point found.
 Normal termination of Gaussian 09 at Mon Jan 27 22:54:31 2020.
