 Gaussian 09, Revision D.01,
 Gaussian 09:  ES64L-G09RevD.01 24-Apr-2013

 -----------------------------
 # b3lyp 6-31G(2df,p) opt Freq
 -----------------------------

 -----
 titel
 -----
 Symbolic Z-matrix:
 Charge =  0 Multiplicity = 1

 SCF Done:  E(RB3LYP) =  -423.170224159     A.U. after   14 cycles
 Optimization completed.
    -- Stationary point found.
 Normal termination of Gaussian 09 at Tue Jan 28 14:27:55 2020.

 ----------------------------------------------------------------------
 #N Geom=AllCheck Guess=TCheck SCRF=Check GenChk RB3LYP/6-31G(2df,p) Fr
 eq
 ----------------------------------------------------------------------

 Structure from the checkpoint file:  "/scratch/puck/g09_bcf80a4e-b1a5-446c-9ebf-f5b5cdb587c5/Gau-35068.chk"
 -----
 titel
 -----
 Charge =  0 Multiplicity = 1

                         Standard orientation:
 ---------------------------------------------------------------------
 Center     Atomic      Atomic             Coordinates (Angstroms)
 Number     Number       Type             X           Y           Z
 ---------------------------------------------------------------------
      1          6           0        3.425777   -1.820672    0.036182
      2          6           0        2.475773   -0.721576    0.028812
      3          6           0        1.693289    0.197676    0.013920
      4          6           0        0.758941    1.308029    0.001680
      5          8           0        1.068755    2.395214   -0.439005
      6          6           0       -0.620692    1.017948    0.572903
      7          6           0       -1.386725   -0.038565   -0.239580
      8          6           0       -2.751742   -0.348717    0.361782
      9          8           0       -3.366371   -1.336854   -0.449205
     10          1           0        3.389597   -2.367839    0.984217
     11          1           0        3.197187   -2.531550   -0.765558
     12          1           0        4.449572   -1.462856   -0.113664
     13          1           0       -0.497073    0.664491    1.605513
     14          1           0       -1.163124    1.967699    0.597333
     15          1           0       -1.526611    0.308860   -1.269333
     16          1           0       -0.806894   -0.966055   -0.291416
     17          1           0       -2.626968   -0.702428    1.399052
     18          1           0       -3.358519    0.570517    0.403089
     19          1           0       -4.243962   -1.512465   -0.097748
 ---------------------------------------------------------------------

 SCF Done:  E(RB3LYP) =  -423.170224159     A.U. after    1 cycles

 The electronic state is 1-A.
 Alpha  occ. eigenvalues --  -19.13578 -19.12861 -10.28153 -10.23105 -10.21932
 Alpha  occ. eigenvalues --  -10.20461 -10.19240 -10.18771 -10.18320  -1.03867
 Alpha  occ. eigenvalues --   -1.01718  -0.80480  -0.79054  -0.73157  -0.69582
 Alpha  occ. eigenvalues --   -0.61382  -0.59373  -0.51548  -0.48802  -0.47850
 Alpha  occ. eigenvalues --   -0.46184  -0.44472  -0.44352  -0.43721  -0.41961
 Alpha  occ. eigenvalues --   -0.39758  -0.38833  -0.35544  -0.34423  -0.33039
 Alpha  occ. eigenvalues --   -0.27675  -0.27580  -0.26908  -0.25065
 Alpha virt. eigenvalues --   -0.04569   0.04287   0.07339   0.09089   0.09839
 Alpha virt. eigenvalues --    0.11037   0.12969   0.14965   0.15535   0.16811
 Alpha virt. eigenvalues --    0.17581   0.17817   0.19125   0.19903   0.20415

 Mulliken charges:
               1
     1  C   -0.501308
     2  C    0.026972
     3  C    0.072567
     4  C    0.235457
     5  O   -0.284516
     6  C   -0.304277
     7  C   -0.175614
     8  C   -0.069693
     9  O   -0.420761
    10  H    0.158962
    11  H    0.163894
    12  H    0.162353
    13  H    0.115731
    14  H    0.119974
    15  H    0.119749
    16  H    0.120402
    17  H    0.084378
    18  H    0.088975
    19  H    0.286756
 Sum of Mulliken charges =   0.00000

 Dipole moment (field-independent basis, Debye):
    X=             -0.6321    Y=             -2.9823    Z=              1.9697  Tot=              3.6295
 Quadrupole moment (field-independent basis, Debye-Ang):
   XX=            -39.8739   YY=            -58.3089   ZZ=            -53.5494
   XY=             -8.9768   XZ=             -2.7197   YZ=              0.5789

  Exact polarizability:  99.403 -15.140  90.988  -1.827  -1.721  58.721
 Approx polarizability: 123.639 -28.322 150.574  -1.469  -7.168  89.421

                      1                      2                      3
                      A                      A                      A
 Frequencies --     15.9621                33.5521                64.1748
 Red. masses --      1.0160                 4.3041                 2.0109
 Frc consts  --      0.0002                 0.0029                 0.0049
 IR Inten    --      0.0410                 2.8744                 6.6406

                      4                      5                      6
                      A                      A                      A
 Frequencies --     95.1674               116.8859               132.9222
 Red. masses --      3.9166                 3.7916                 3.0815
 Frc consts  --      0.0209                 0.0305                 0.0321
 IR Inten    --      0.0741                 2.7615                 0.2929

                      7                      8                      9
                      A                      A                      A
 Frequencies --    165.1185               251.5995               269.5310
 Red. masses --      4.5773                 1.0817                 3.7323
 Frc consts  --      0.0735                 0.0403                 0.1598
 IR Inten    --      0.8728               105.8691                 4.4679

                     10                     11                     12
                      A                      A                      A
 Frequencies --    338.6059               384.3769               394.5788
 Red. masses --      3.8444                 5.4245                 4.3254
 Frc consts  --      0.2597                 0.4722                 0.3968
 IR Inten    --      1.7024                 6.4302                 2.1407

                     13                     14                     15
                      A                      A                      A
 Frequencies --    445.5787               586.4840               673.2447
 Red. masses --      4.0188                 5.0243                 3.9414
 Frc consts  --      0.4701                 1.0182                 1.0526
 IR Inten    --     15.1861                 0.7001                26.1631

                     16                     17                     18
                      A                      A                      A
 Frequencies --    726.8677               772.5465               884.3503
 Red. masses --      3.3463                 1.2528                 1.3704
 Frc consts  --      1.0417                 0.4405                 0.6315
 IR Inten    --      7.8254                 3.8788                 1.5342

                     19                     20                     21
                      A                      A                      A
 Frequencies --    990.7682              1025.5639              1040.0693
 Red. masses --      3.7615                 3.6668                 2.5822
 Frc consts  --      2.1755                 2.2723                 1.6458
 IR Inten    --     47.4373                38.0228                 4.2915

                     22                     23                     24
                      A                      A                      A
 Frequencies --   1045.7849              1053.4435              1083.8901
 Red. masses --      1.4536                 1.4024                 5.3091
 Frc consts  --      0.9367                 0.9170                 3.6749
 IR Inten    --      1.1823                 1.6685                65.9335

                     25                     26                     27
                      A                      A                      A
 Frequencies --   1094.5675              1200.4688              1225.7022
 Red. masses --      1.8256                 1.5118                 1.1981
 Frc consts  --      1.2887                 1.2836                 1.0605
 IR Inten    --     13.3160                15.4385                19.4355

                     28                     29                     30
                      A                      A                      A
 Frequencies --   1254.9671              1296.4564              1299.8853
 Red. masses --      2.2999                 1.3337                 1.3582
 Frc consts  --      2.1342                 1.3208                 1.3522
 IR Inten    --    114.2589                38.8140                51.5268

                     31                     32                     33
                      A                      A                      A
 Frequencies --   1316.7648              1364.1513              1409.7088
 Red. masses --      1.0791                 1.5121                 1.2401
 Frc consts  --      1.1024                 1.6579                 1.4520
 IR Inten    --      4.2484                 2.5208                 4.3201

                     34                     35                     36
                      A                      A                      A
 Frequencies --   1463.1689              1467.9591              1469.4956
 Red. masses --      1.4059                 1.1185                 1.0387
 Frc consts  --      1.7733                 1.4201                 1.3215
 IR Inten    --     12.1411                 1.5193                 7.1397

                     37                     38                     39
                      A                      A                      A
 Frequencies --   1474.4024              1499.5262              1528.4350
 Red. masses --      1.0411                 1.0877                 1.0887
 Frc consts  --      1.3334                 1.4410                 1.4985
 IR Inten    --      7.7799                 2.6757                 2.7077

                     40                     41                     42
                      A                      A                      A
 Frequencies --   1761.8966              2337.0906              2957.0573
 Red. masses --     11.8036                11.9104                 1.0557
 Frc consts  --     21.5886                38.3291                 5.4387
 IR Inten    --    209.6649               136.2220                56.9972

                     43                     44                     45
                      A                      A                      A
 Frequencies --   2984.8002              3021.6340              3032.3577
 Red. masses --      1.1044                 1.0627                 1.0345
 Frc consts  --      5.7970                 5.7169                 5.6048
 IR Inten    --     52.7246                 8.1108                14.7141

                     46                     47                     48
                      A                      A                      A
 Frequencies --   3047.1885              3083.9449              3095.3733
 Red. masses --      1.0588                 1.0996                 1.0995
 Frc consts  --      5.7922                 6.1615                 6.2071
 IR Inten    --     22.9460                 2.7333                 4.8699

                     49                     50                     51
                      A                      A                      A
 Frequencies --   3100.4137              3103.6844              3831.3221
 Red. masses --      1.1009                 1.1027                 1.0664
 Frc consts  --      6.2352                 6.2582                 9.2226
 IR Inten    --      5.7209                37.7071                21.8198

 - Thermochemistry -
 -------------------
 Temperature   298.150 Kelvin.  Pressure   1.00000 Atm.
 Atom     1 has atomic number  6 and mass  12.00000

 Molecular mass:   126.06808 amu.
 Principal axes and moments of inertia in atomic units:
                           1         2         3
     Eigenvalues --   870.906022422.215003144.17827
           X            0.99910  -0.04202  -0.00581
           Y            0.04205   0.99910   0.00630
           Z            0.00554  -0.00654   0.99996
 This molecule is an asymmetric top.
 Rotational symmetry number  1.
 Warning -- assumption of classical behavior for rotation
           may cause significant error
 Rotational temperatures (Kelvin)      0.09945     0.03576     0.02755
 Rotational constants (GHZ):           2.07226     0.74508     0.57399
 Zero-point vibrational energy     408605.4 (Joules/Mol)
                                   97.65904 (Kcal/Mol)
 Warning -- explicit consideration of  14 degrees of freedom as
           vibrations may cause significant error
 Vibrational temperatures:     22.97    48.27    92.33   136.92   168.17
          (Kelvin)            191.25   237.57   362.00   387.79   487.18
                              553.03   567.71   641.09   843.82   968.65
                             1045.80  1111.52  1272.38  1425.49  1475.56
                             1496.43  1504.65  1515.67  1559.47  1574.84
                             1727.20  1763.51  1805.62  1865.31  1870.24
                             1894.53  1962.71  2028.25  2105.17  2112.06
                             2114.27  2121.33  2157.48  2199.07  2534.97
                             3362.55  4254.54  4294.46  4347.45  4362.88
                             4384.22  4437.10  4453.55  4460.80  4465.50
                             5512.41

 Zero-point correction=                           0.155630 (Hartree/Particle)
 Thermal correction to Energy=                    0.166890
 Thermal correction to Enthalpy=                  0.167834
 Thermal correction to Gibbs Free Energy=         0.115823
 Sum of electronic and zero-point Energies=           -423.014595
 Sum of electronic and thermal Energies=              -423.003334
 Sum of electronic and thermal Enthalpies=            -423.002390
 Sum of electronic and thermal Free Energies=         -423.054401

                     E (Thermal)             CV                S
                      KCal/Mol        Cal/Mol-Kelvin    Cal/Mol-Kelvin
 Total                  104.725             37.018            109.466
 Electronic               0.000              0.000              0.000
 Translational            0.889              2.981             40.409
 Rotational               0.889              2.981             30.274
 Vibrational            102.947             31.056             38.784
 Vibration     1          0.593              1.986              7.082
 Vibration     2          0.594              1.983              5.607
 Vibration     3          0.597              1.971              4.325
 Vibration     4          0.603              1.953              3.551
 Vibration     5          0.608              1.935              3.151
 Vibration     6          0.613              1.920              2.903
 Vibration     7          0.624              1.885              2.490
 Vibration     8          0.664              1.760              1.719
 Vibration     9          0.674              1.729              1.599
 Vibration    10          0.719              1.598              1.219
 Vibration    11          0.753              1.504              1.022
 Vibration    12          0.762              1.482              0.983
 Vibration    13          0.805              1.371              0.809
 Vibration    14          0.944              1.061              0.473

 Optimization completed.
    -- Stationary point found.
 Normal termination of Gaussian 09 at Tue Jan 28 14:58:01 2020.
