 Gaussian 09, Revision D.01,
 Gaussian 09:  ES64L-G09RevD.01 24-Apr-2013

 -----------------------------
 # b3lyp 6-31G(2df,p) opt Freq
 -----------------------------

 -----
 titel
 -----
 Symbolic Z-matrix:
 Charge =  0 Multiplicity = 1

 SCF Done:  E(RB3LYP) =  -423.107775807     A.U. after   14 cycles
 Optimization completed.
    -- Stationary point found.
 Normal termination of Gaussian 09 at Tue Jan 28 12:08:32 2020.

 ----------------------------------------------------------------------
 #N Geom=AllCheck Guess=TCheck SCRF=Check GenChk RB3LYP/6-31G(2df,p) Fr
 eq
 ----------------------------------------------------------------------

 Structure from the checkpoint file:  "/scratch/puck/g09_1e36c117-7898-4890-a691-7bd7c9dbae3f/Gau-138512.chk"
 -----
 titel
 -----
 Charge =  0 Multiplicity = 1

                         Standard orientation:
 ---------------------------------------------------------------------
 Center     Atomic      Atomic             Coordinates (Angstroms)
 Number     Number       Type             X           Y           Z
 ---------------------------------------------------------------------
      1          6           0        2.681675   -0.300165   -0.187185
      2          8           0        1.623716   -0.013776    0.709670
      3          6           0        0.380026    0.079669    0.093066
      4          6           0        0.064726    1.290887   -0.839116
      5          6           0       -1.188634    1.620538    0.034245
      6          6           0       -0.859225    0.420750    0.970467
      7          6           0       -1.460700   -0.951070    0.578784
      8          8           0       -1.568960   -1.002073   -0.853426
      9          6           0       -0.298994   -1.285991   -0.261518
     10          1           0        2.799999    0.489452   -0.942452
     11          1           0        3.595882   -0.361260    0.407108
     12          1           0        2.533011   -1.256865   -0.708221
     13          1           0        0.844897    2.053917   -0.778797
     14          1           0       -0.135173    1.053713   -1.885158
     15          1           0       -1.134031    2.588539    0.536086
     16          1           0       -2.142602    1.540166   -0.487881
     17          1           0       -0.735616    0.591545    2.039128
     18          1           0       -2.142357   -1.582592    1.137581
     19          1           0        0.164713   -2.237533   -0.499800
 ---------------------------------------------------------------------

 SCF Done:  E(RB3LYP) =  -423.107775807     A.U. after    1 cycles

 The electronic state is 1-A.
 Alpha  occ. eigenvalues --  -19.15389 -19.14802 -10.23665 -10.23539 -10.23388
 Alpha  occ. eigenvalues --  -10.22820 -10.18554 -10.17897 -10.17637  -1.07978
 Alpha  occ. eigenvalues --   -1.03979  -0.84151  -0.72492  -0.69765  -0.66355
 Alpha  occ. eigenvalues --   -0.60348  -0.59511  -0.53262  -0.52256  -0.48719
 Alpha  occ. eigenvalues --   -0.47267  -0.45422  -0.43840  -0.41699  -0.40183
 Alpha  occ. eigenvalues --   -0.38261  -0.37394  -0.35044  -0.32594  -0.31881
 Alpha  occ. eigenvalues --   -0.31845  -0.26697  -0.25746  -0.24124
 Alpha virt. eigenvalues --    0.07175   0.08051   0.09968   0.10526   0.12681
 Alpha virt. eigenvalues --    0.13591   0.14882   0.15234   0.15803   0.16281
 Alpha virt. eigenvalues --    0.17645   0.18727   0.19149   0.19623   0.22220

 Mulliken charges:
               1
     1  C   -0.264192
     2  O   -0.292485
     3  C    0.418413
     4  C   -0.291410
     5  C   -0.226132
     6  C   -0.134797
     7  C    0.016868
     8  O   -0.237119
     9  C   -0.056595
    10  H    0.115080
    11  H    0.129979
    12  H    0.109137
    13  H    0.103254
    14  H    0.106701
    15  H    0.100191
    16  H    0.113586
    17  H    0.083620
    18  H    0.103524
    19  H    0.102375
 Sum of Mulliken charges =   0.00000

 Dipole moment (field-independent basis, Debye):
    X=              1.0187    Y=             -0.1569    Z=              0.3131  Tot=              1.0772
 Quadrupole moment (field-independent basis, Debye-Ang):
   XX=            -51.7391   YY=            -51.2498   ZZ=            -54.4308
   XY=             -1.3854   XZ=             -5.1860   YZ=             -0.9156

  Exact polarizability:  82.788  -1.259  74.721  -4.674   0.199  65.365
 Approx polarizability: 114.113  -1.280 103.849  -3.552   2.751 105.443

                      1                      2                      3
                      A                      A                      A
 Frequencies --    113.9418               154.0634               186.7572
 Red. masses --      2.3428                 1.4523                 2.1814
 Frc consts  --      0.0179                 0.0203                 0.0448
 IR Inten    --      2.0973                 0.1739                 2.2452

                      4                      5                      6
                      A                      A                      A
 Frequencies --    190.1146               282.0012               347.7968
 Red. masses --      1.9459                 4.3385                 2.9853
 Frc consts  --      0.0414                 0.2033                 0.2128
 IR Inten    --      1.9777                 5.0713                 1.7948

                      7                      8                      9
                      A                      A                      A
 Frequencies --    371.1044               452.0607               549.4146
 Red. masses --      4.2327                 2.9829                 3.8697
 Frc consts  --      0.3434                 0.3592                 0.6882
 IR Inten    --      7.8154                 0.9134                 2.4506

                     10                     11                     12
                      A                      A                      A
 Frequencies --    637.5433               705.5313               738.6938
 Red. masses --      3.6667                 4.1855                 1.3833
 Frc consts  --      0.8781                 1.2275                 0.4447
 IR Inten    --      9.7044                 1.3273                 6.3678

                     13                     14                     15
                      A                      A                      A
 Frequencies --    806.1173               809.3702               848.4357
 Red. masses --      4.9138                 2.2268                 1.7780
 Frc consts  --      1.8813                 0.8594                 0.7541
 IR Inten    --      2.5965                 7.5615                21.6929

                     16                     17                     18
                      A                      A                      A
 Frequencies --    872.5317               929.1705               945.0096
 Red. masses --      2.4019                 2.1450                 3.0926
 Frc consts  --      1.0774                 1.0911                 1.6272
 IR Inten    --      4.3906                 3.1270                 1.9470

                     19                     20                     21
                      A                      A                      A
 Frequencies --    968.3660              1002.7472              1031.8152
 Red. masses --      1.9404                 2.3490                 2.0197
 Frc consts  --      1.0721                 1.3916                 1.2669
 IR Inten    --      3.7905                10.7503                23.1972

                     22                     23                     24
                      A                      A                      A
 Frequencies --   1059.7083              1088.5130              1101.5555
 Red. masses --      1.7778                 3.0086                 2.3438
 Frc consts  --      1.1763                 2.1003                 1.6757
 IR Inten    --     20.3626                 6.7897                 8.4837

                     25                     26                     27
                      A                      A                      A
 Frequencies --   1131.8872              1146.8735              1182.0653
 Red. masses --      2.1548                 1.8816                 1.2902
 Frc consts  --      1.6266                 1.4582                 1.0621
 IR Inten    --     17.6858                14.2034                 2.4067

                     28                     29                     30
                      A                      A                      A
 Frequencies --   1195.9149              1225.8982              1231.3477
 Red. masses --      1.7354                 1.3827                 1.5061
 Frc consts  --      1.4623                 1.2243                 1.3455
 IR Inten    --     48.6299                 2.9630                19.1161

                     31                     32                     33
                      A                      A                      A
 Frequencies --   1237.6804              1245.6681              1270.8497
 Red. masses --      1.3501                 1.6144                 1.5615
 Frc consts  --      1.2185                 1.4759                 1.4859
 IR Inten    --      6.1553                 7.0458                 4.5722

                     34                     35                     36
                      A                      A                      A
 Frequencies --   1293.4211              1323.9628              1376.7325
 Red. masses --      1.6253                 2.4624                 3.4341
 Frc consts  --      1.6020                 2.5431                 3.8350
 IR Inten    --      4.5611               110.1049                 8.9720

                     37                     38                     39
                      A                      A                      A
 Frequencies --   1454.1245              1477.1300              1484.1435
 Red. masses --      1.0898                 1.1202                 1.1844
 Frc consts  --      1.3577                 1.4401                 1.5371
 IR Inten    --      0.9346                 3.4405                 2.6340

                     40                     41                     42
                      A                      A                      A
 Frequencies --   1488.1915              1507.3206              2991.1554
 Red. masses --      1.0494                 1.0534                 1.0355
 Frc consts  --      1.3694                 1.4101                 5.4586
 IR Inten    --      3.1647                 7.5367                47.0582

                     43                     44                     45
                      A                      A                      A
 Frequencies --   3041.4811              3066.4169              3077.2438
 Red. masses --      1.1032                 1.0589                 1.0603
 Frc consts  --      6.0125                 5.8665                 5.9156
 IR Inten    --     41.0895                30.2974                37.0872

                     46                     47                     48
                      A                      A                      A
 Frequencies --   3121.7671              3121.9968              3128.1906
 Red. masses --      1.0999                 1.1016                 1.0928
 Frc consts  --      6.3153                 6.3260                 6.3008
 IR Inten    --     14.2446                19.0329                 3.9561

                     49                     50                     51
                      A                      A                      A
 Frequencies --   3141.3979              3166.3243              3183.2678
 Red. masses --      1.1063                 1.0876                 1.1009
 Frc consts  --      6.4326                 6.4243                 6.5725
 IR Inten    --     31.3136                20.2908                26.0472

 - Thermochemistry -
 -------------------
 Temperature   298.150 Kelvin.  Pressure   1.00000 Atm.
 Atom     1 has atomic number  6 and mass  12.00000

 Molecular mass:   126.06808 amu.
 Principal axes and moments of inertia in atomic units:
                           1         2         3
     Eigenvalues --   651.106721136.542121383.61482
           X            0.99871  -0.03853  -0.03307
           Y            0.03759   0.99888  -0.02857
           Z            0.03414   0.02729   0.99904
 This molecule is an asymmetric top.
 Rotational symmetry number  1.
 Warning -- assumption of classical behavior for rotation
           may cause significant error
 Rotational temperatures (Kelvin)      0.13303     0.07621     0.06260
 Rotational constants (GHZ):           2.77181     1.58792     1.30437
 Zero-point vibrational energy     415731.1 (Joules/Mol)
                                   99.36212 (Kcal/Mol)
 Warning -- explicit consideration of   9 degrees of freedom as
           vibrations may cause significant error
 Vibrational temperatures:    163.94   221.66   268.70   273.53   405.74
          (Kelvin)            500.40   533.94   650.41   790.48   917.28
                             1015.10  1062.81  1159.82  1164.50  1220.71
                             1255.38  1336.87  1359.66  1393.26  1442.73
                             1484.55  1524.68  1566.13  1584.89  1628.53
                             1650.09  1700.73  1720.65  1763.79  1771.63
                             1780.74  1792.24  1828.47  1860.94  1904.88
                             1980.81  2092.16  2125.26  2135.35  2141.17
                             2168.70  4303.60  4376.01  4411.88  4427.46
                             4491.52  4491.85  4500.76  4519.77  4555.63
                             4580.01

 Zero-point correction=                           0.158344 (Hartree/Particle)
 Thermal correction to Energy=                    0.166393
 Thermal correction to Enthalpy=                  0.167337
 Thermal correction to Gibbs Free Energy=         0.125929
 Sum of electronic and zero-point Energies=           -422.949432
 Sum of electronic and thermal Energies=              -422.941383
 Sum of electronic and thermal Enthalpies=            -422.940439
 Sum of electronic and thermal Free Energies=         -422.981846

                     E (Thermal)             CV                S
                      KCal/Mol        Cal/Mol-Kelvin    Cal/Mol-Kelvin
 Total                  104.413             31.280             87.149
 Electronic               0.000              0.000              0.000
 Translational            0.889              2.981             40.409
 Rotational               0.889              2.981             28.417
 Vibrational            102.636             25.319             18.324
 Vibration     1          0.607              1.938              3.201
 Vibration     2          0.620              1.898              2.621
 Vibration     3          0.632              1.858              2.260
 Vibration     4          0.633              1.853              2.227
 Vibration     5          0.681              1.707              1.522
 Vibration     6          0.725              1.580              1.176
 Vibration     7          0.743              1.532              1.075
 Vibration     8          0.811              1.356              0.790
 Vibration     9          0.905              1.141              0.545

 Normal termination of Gaussian 09 at Tue Jan 28 12:51:10 2020.
