 Gaussian 09, Revision D.01,
 Gaussian 09:  ES64L-G09RevD.01 24-Apr-2013

 -----------------------------
 # b3lyp 6-31G(2df,p) opt Freq
 -----------------------------

 -----
 titel
 -----
 Symbolic Z-matrix:
 Charge =  0 Multiplicity = 1

 SCF Done:  E(RB3LYP) =  -423.176739336     A.U. after   14 cycles
 Optimization completed.
    -- Stationary point found.
 Normal termination of Gaussian 09 at Tue Jan 28 03:17:13 2020.

 ----------------------------------------------------------------------
 #N Geom=AllCheck Guess=TCheck SCRF=Check GenChk RB3LYP/6-31G(2df,p) Fr
 eq
 ----------------------------------------------------------------------

 Structure from the checkpoint file:  "/scratch/puck/g09_7427bc3a-5439-4865-8055-e6dc4df5f8c0/Gau-45623.chk"
 -----
 titel
 -----
 Charge =  0 Multiplicity = 1

                         Standard orientation:
 ---------------------------------------------------------------------
 Center     Atomic      Atomic             Coordinates (Angstroms)
 Number     Number       Type             X           Y           Z
 ---------------------------------------------------------------------
      1          6           0        0.433343    2.112897    0.272809
      2          6           0       -0.106367    0.914983   -0.487652
      3          8           0       -1.558071    0.837761   -0.394988
      4          6           0       -1.766694   -0.495487    0.081502
      5          6           0       -0.748528   -0.638779    1.238879
      6          6           0        0.252402   -0.491120    0.035626
      7          6           0       -0.796016   -1.348591   -0.769770
      8          6           0        1.677315   -0.920451    0.122767
      9          8           0        2.624577   -0.249067   -0.207709
     10          1           0        1.513997    2.184250    0.125697
     11          1           0       -0.035821    3.027067   -0.102280
     12          1           0        0.227046    2.045682    1.344631
     13          1           0        0.172151    1.005550   -1.545014
     14          1           0       -2.833019   -0.693420    0.176471
     15          1           0       -0.743157    0.132383    2.010139
     16          1           0       -0.723834   -1.636516    1.680255
     17          1           0       -0.823300   -1.216865   -1.853610
     18          1           0       -0.778704   -2.405266   -0.497569
     19          1           0        1.819858   -1.953126    0.517889
 ---------------------------------------------------------------------

 SCF Done:  E(RB3LYP) =  -423.176739336     A.U. after    1 cycles

 The electronic state is 1-A.
 Alpha  occ. eigenvalues --  -19.14673 -19.13767 -10.27682 -10.24700 -10.23576
 Alpha  occ. eigenvalues --  -10.21555 -10.20234 -10.20140 -10.17255  -1.05331
 Alpha  occ. eigenvalues --   -1.04427  -0.85157  -0.76832  -0.69147  -0.67898
 Alpha  occ. eigenvalues --   -0.63062  -0.58157  -0.54353  -0.52000  -0.48741
 Alpha  occ. eigenvalues --   -0.46596  -0.44895  -0.42261  -0.41940  -0.40163
 Alpha  occ. eigenvalues --   -0.38306  -0.37741  -0.36792  -0.36543  -0.35532
 Alpha  occ. eigenvalues --   -0.32373  -0.30796  -0.25712  -0.24709
 Alpha virt. eigenvalues --   -0.03477   0.09015   0.09193   0.11044   0.12103
 Alpha virt. eigenvalues --    0.12433   0.14669   0.15120   0.15933   0.17114
 Alpha virt. eigenvalues --    0.17381   0.18730   0.19592   0.20024   0.22017

 Mulliken charges:
               1
     1  C   -0.425414
     2  C    0.122285
     3  O   -0.298586
     4  C    0.109898
     5  C   -0.285602
     6  C    0.181879
     7  C   -0.280346
     8  C    0.052081
     9  O   -0.250967
    10  H    0.142461
    11  H    0.126615
    12  H    0.113897
    13  H    0.086125
    14  H    0.086196
    15  H    0.114242
    16  H    0.108155
    17  H    0.113928
    18  H    0.107977
    19  H    0.075173
 Sum of Mulliken charges =   0.00000

 Dipole moment (field-independent basis, Debye):
    X=             -1.3535    Y=             -1.8830    Z=              0.8411  Tot=              2.4668
 Quadrupole moment (field-independent basis, Debye-Ang):
   XX=            -62.2336   YY=            -50.6015   ZZ=            -51.7386
   XY=              2.3182   XZ=              0.0114   YZ=             -0.1131

  Exact polarizability:  80.820   4.842  79.690  -1.576  -1.893  66.042
 Approx polarizability: 122.447   9.119 113.444  -4.724  -5.217 102.057

                      1                      2                      3
                      A                      A                      A
 Frequencies --     83.4899               172.4437               201.6130
 Red. masses --      4.3141                 4.9395                 1.9133
 Frc consts  --      0.0177                 0.0865                 0.0458
 IR Inten    --      6.7186                 6.0734                 0.4756

                      4                      5                      6
                      A                      A                      A
 Frequencies --    222.6468               280.0314               324.2251
 Red. masses --      1.2727                 2.4963                 2.3656
 Frc consts  --      0.0372                 0.1153                 0.1465
 IR Inten    --      0.5617                 1.2310                 0.4955

                      7                      8                      9
                      A                      A                      A
 Frequencies --    440.8357               486.6969               499.6646
 Red. masses --      5.7080                 2.7348                 2.4820
 Frc consts  --      0.6536                 0.3817                 0.3651
 IR Inten    --      1.8589                 2.8145                 1.6565

                     10                     11                     12
                      A                      A                      A
 Frequencies --    532.1636               628.5820               729.3846
 Red. masses --      2.1387                 4.0132                 3.0041
 Frc consts  --      0.3569                 0.9343                 0.9416
 IR Inten    --      1.3938                11.9316                17.2134

                     13                     14                     15
                      A                      A                      A
 Frequencies --    822.1077               834.3474               854.1218
 Red. masses --      2.8237                 3.4751                 2.4054
 Frc consts  --      1.1244                 1.4253                 1.0339
 IR Inten    --      4.9177                16.3928                 1.5041

                     16                     17                     18
                      A                      A                      A
 Frequencies --    855.8417               941.0010               943.5666
 Red. masses --      2.5834                 2.7510                 2.4606
 Frc consts  --      1.1149                 1.4352                 1.2907
 IR Inten    --      4.4523                28.2412                24.3914

                     19                     20                     21
                      A                      A                      A
 Frequencies --    974.6703               991.6218              1035.5779
 Red. masses --      1.4351                 2.4341                 1.1036
 Frc consts  --      0.8033                 1.4102                 0.6973
 IR Inten    --      4.1372                27.7367                 2.4044

                     22                     23                     24
                      A                      A                      A
 Frequencies --   1046.9539              1081.3330              1098.2617
 Red. masses --      1.6371                 2.3386                 1.7110
 Frc consts  --      1.0573                 1.6111                 1.2159
 IR Inten    --      1.8318                16.9409                 6.6648

                     25                     26                     27
                      A                      A                      A
 Frequencies --   1129.0697              1154.4742              1178.8931
 Red. masses --      1.6917                 2.1551                 1.6156
 Frc consts  --      1.2706                 1.6924                 1.3229
 IR Inten    --      2.7193                 3.9562                 1.5053

                     28                     29                     30
                      A                      A                      A
 Frequencies --   1183.2881              1231.6513              1239.7204
 Red. masses --      2.8354                 1.5547                 1.6251
 Frc consts  --      2.3391                 1.3895                 1.4715
 IR Inten    --     30.8391                 0.6553                 8.3173

                     31                     32                     33
                      A                      A                      A
 Frequencies --   1269.8834              1319.5237              1352.6061
 Red. masses --      1.4673                 1.9823                 1.7622
 Frc consts  --      1.3941                 2.0336                 1.8996
 IR Inten    --     12.7121                 1.9418                21.9392

                     34                     35                     36
                      A                      A                      A
 Frequencies --   1393.6458              1409.5707              1427.5346
 Red. masses --      1.2879                 1.3665                 1.2382
 Frc consts  --      1.4738                 1.5996                 1.4866
 IR Inten    --      2.6881                22.4559                 5.4329

                     37                     38                     39
                      A                      A                      A
 Frequencies --   1471.5196              1494.7124              1494.9442
 Red. masses --      1.0930                 1.0540                 1.0684
 Frc consts  --      1.3945                 1.3874                 1.4068
 IR Inten    --      1.2418                 4.4354                 4.0965

                     40                     41                     42
                      A                      A                      A
 Frequencies --   1510.1763              1811.5326              2862.8926
 Red. masses --      1.1312                10.8119                 1.0820
 Frc consts  --      1.5199                20.9047                 5.2251
 IR Inten    --      7.4472               173.5795               114.8127

                     43                     44                     45
                      A                      A                      A
 Frequencies --   3024.5578              3047.4942              3070.6249
 Red. masses --      1.0850                 1.0349                 1.0554
 Frc consts  --      5.8480                 5.6630                 5.8629
 IR Inten    --     29.1048                12.5253                29.2494

                     46                     47                     48
                      A                      A                      A
 Frequencies --   3082.4528              3117.9410              3132.3100
 Red. masses --      1.0566                 1.1016                 1.1018
 Frc consts  --      5.9151                 6.3097                 6.3692
 IR Inten    --      9.4055                23.9518                 8.6630

                     49                     50                     51
                      A                      A                      A
 Frequencies --   3138.8612              3140.6929              3149.2511
 Red. masses --      1.0969                 1.1056                 1.1099
 Frc consts  --      6.3677                 6.4253                 6.4854
 IR Inten    --     35.1650                32.6128                25.0660

 - Thermochemistry -
 -------------------
 Temperature   298.150 Kelvin.  Pressure   1.00000 Atm.
 Atom     1 has atomic number  6 and mass  12.00000

 Molecular mass:   126.06808 amu.
 Principal axes and moments of inertia in atomic units:
                           1         2         3
     Eigenvalues --   713.274291078.894791450.16030
           X            0.99819   0.06009  -0.00045
           Y           -0.06008   0.99815   0.00951
           Z            0.00102  -0.00946   0.99995
 This molecule is an asymmetric top.
 Rotational symmetry number  1.
 Warning -- assumption of classical behavior for rotation
           may cause significant error
 Rotational temperatures (Kelvin)      0.12143     0.08028     0.05973
 Rotational constants (GHZ):           2.53022     1.67277     1.24451
 Zero-point vibrational energy     418220.5 (Joules/Mol)
                                   99.95710 (Kcal/Mol)
 Warning -- explicit consideration of  10 degrees of freedom as
           vibrations may cause significant error
 Vibrational temperatures:    120.12   248.11   290.08   320.34   402.90
          (Kelvin)            466.49   634.26   700.25   718.90   765.66
                              904.39  1049.42  1182.83  1200.44  1228.89
                             1231.36  1353.89  1357.58  1402.33  1426.72
                             1489.96  1506.33  1555.80  1580.15  1624.48
                             1661.03  1696.16  1702.49  1772.07  1783.68
                             1827.08  1898.50  1946.10  2005.14  2028.06
                             2053.90  2117.19  2150.56  2150.89  2172.80
                             2606.39  4119.06  4351.66  4384.66  4417.94
                             4434.96  4486.02  4506.69  4516.12  4518.75
                             4531.06

 Zero-point correction=                           0.159292 (Hartree/Particle)
 Thermal correction to Energy=                    0.167332
 Thermal correction to Enthalpy=                  0.168276
 Thermal correction to Gibbs Free Energy=         0.126790
 Sum of electronic and zero-point Energies=           -423.017448
 Sum of electronic and thermal Energies=              -423.009407
 Sum of electronic and thermal Enthalpies=            -423.008463
 Sum of electronic and thermal Free Energies=         -423.049950

                     E (Thermal)             CV                S
                      KCal/Mol        Cal/Mol-Kelvin    Cal/Mol-Kelvin
 Total                  105.002             31.244             87.316
 Electronic               0.000              0.000              0.000
 Translational            0.889              2.981             40.409
 Rotational               0.889              2.981             28.503
 Vibrational            103.225             25.282             18.405
 Vibration     1          0.600              1.961              3.807
 Vibration     2          0.626              1.876              2.409
 Vibration     3          0.639              1.838              2.118
 Vibration     4          0.648              1.807              1.937
 Vibration     5          0.680              1.711              1.533
 Vibration     6          0.709              1.627              1.289
 Vibration     7          0.801              1.381              0.824
 Vibration     8          0.843              1.280              0.692
 Vibration     9          0.855              1.251              0.659
 Vibration    10          0.887              1.179              0.582

 Normal termination of Gaussian 09 at Tue Jan 28 05:18:40 2020.
