 Gaussian 09, Revision D.01,
 Gaussian 09:  ES64L-G09RevD.01 24-Apr-2013

 -----------------------------
 # b3lyp 6-31G(2df,p) opt Freq
 -----------------------------

 -----
 titel
 -----
 Symbolic Z-matrix:
 Charge =  0 Multiplicity = 1

 SCF Done:  E(RB3LYP) =  -423.171264054     A.U. after   14 cycles
 Optimization completed.
    -- Stationary point found.
 Normal termination of Gaussian 09 at Tue Jan 28 08:14:07 2020.

 ----------------------------------------------------------------------
 #N Geom=AllCheck Guess=TCheck SCRF=Check GenChk RB3LYP/6-31G(2df,p) Fr
 eq
 ----------------------------------------------------------------------

 Structure from the checkpoint file:  "/scratch/puck/g09_8591785d-b601-41da-8271-0b51488c0e11/Gau-25805.chk"
 -----
 titel
 -----
 Charge =  0 Multiplicity = 1

                         Standard orientation:
 ---------------------------------------------------------------------
 Center     Atomic      Atomic             Coordinates (Angstroms)
 Number     Number       Type             X           Y           Z
 ---------------------------------------------------------------------
      1          6           0        1.073979    1.993190   -0.011997
      2          6           0        0.097992    0.897357    0.386965
      3          8           0       -1.111197    1.149552   -0.323956
      4          6           0       -2.171143    0.295275    0.047514
      5          6           0       -1.780051   -1.155367    0.023719
      6          6           0       -0.501150   -1.524441    0.006467
      7          6           0        0.587467   -0.522007    0.095817
      8          6           0        1.934995   -0.954919    0.503464
      9          8           0        1.653440   -0.684009   -0.866441
     10          1           0        2.005414    1.924142    0.555523
     11          1           0        1.308993    1.918539   -1.075163
     12          1           0        0.620495    2.966797    0.187721
     13          1           0       -0.108747    0.953863    1.471297
     14          1           0       -2.562823    0.567336    1.046726
     15          1           0       -2.978651    0.483448   -0.669183
     16          1           0       -2.580834   -1.889553    0.010033
     17          1           0       -0.207278   -2.567760   -0.062760
     18          1           0        2.606960   -0.253024    0.995816
     19          1           0        2.105988   -2.002661    0.751478
 ---------------------------------------------------------------------

 SCF Done:  E(RB3LYP) =  -423.171264054     A.U. after    1 cycles

 The electronic state is 1-A.
 Alpha  occ. eigenvalues --  -19.15125 -19.13979 -10.24290 -10.23766 -10.23529
 Alpha  occ. eigenvalues --  -10.23492 -10.19159 -10.18867 -10.17294  -1.07098
 Alpha  occ. eigenvalues --   -1.03593  -0.79871  -0.77848  -0.69560  -0.66670
 Alpha  occ. eigenvalues --   -0.63187  -0.60335  -0.53010  -0.51345  -0.50035
 Alpha  occ. eigenvalues --   -0.47582  -0.45621  -0.42906  -0.41187  -0.40637
 Alpha  occ. eigenvalues --   -0.39527  -0.38122  -0.36357  -0.35554  -0.33679
 Alpha  occ. eigenvalues --   -0.29951  -0.28042  -0.25808  -0.24265
 Alpha virt. eigenvalues --    0.00404   0.08536   0.10241   0.10860   0.11719
 Alpha virt. eigenvalues --    0.13196   0.14252   0.14910   0.16518   0.17182
 Alpha virt. eigenvalues --    0.17871   0.18433   0.19409   0.21258   0.21830

 Mulliken charges:
               1
     1  C   -0.407834
     2  C    0.020994
     3  O   -0.256002
     4  C   -0.131045
     5  C   -0.099382
     6  C   -0.100638
     7  C    0.399203
     8  C   -0.243724
     9  O   -0.271439
    10  H    0.114931
    11  H    0.145024
    12  H    0.122344
    13  H    0.069337
    14  H    0.096948
    15  H    0.120864
    16  H    0.100026
    17  H    0.095783
    18  H    0.113263
    19  H    0.111347
 Sum of Mulliken charges =   0.00000

 Dipole moment (field-independent basis, Debye):
    X=             -0.6622    Y=             -0.7361    Z=              2.2174  Tot=              2.4284
 Quadrupole moment (field-independent basis, Debye-Ang):
   XX=            -49.3496   YY=            -51.9852   ZZ=            -55.3900
   XY=              1.9426   XZ=              2.9288   YZ=             -0.1404

  Exact polarizability: 100.580  -1.738  77.784   2.818   0.069  55.891
 Approx polarizability: 147.400  -8.176 104.370   1.099  -0.861  93.321

                      1                      2                      3
                      A                      A                      A
 Frequencies --     76.3106               192.5186               207.3190
 Red. masses --      3.1286                 1.3221                 2.0681
 Frc consts  --      0.0107                 0.0289                 0.0524
 IR Inten    --      0.3467                 1.1456                 2.6570

                      4                      5                      6
                      A                      A                      A
 Frequencies --    270.1217               288.1828               308.7223
 Red. masses --      3.9160                 2.3296                 2.9949
 Frc consts  --      0.1683                 0.1140                 0.1682
 IR Inten    --      2.2596                 4.6921                 0.1766

                      7                      8                      9
                      A                      A                      A
 Frequencies --    370.5840               442.4962               481.1169
 Red. masses --      2.8800                 4.3319                 2.6492
 Frc consts  --      0.2330                 0.4997                 0.3613
 IR Inten    --      2.1946                 0.5488                 6.2913

                     10                     11                     12
                      A                      A                      A
 Frequencies --    502.8339               578.1623               689.4912
 Red. masses --      4.7945                 3.4734                 3.3100
 Frc consts  --      0.7142                 0.6841                 0.9271
 IR Inten    --      1.4367                10.4804                 7.9608

                     13                     14                     15
                      A                      A                      A
 Frequencies --    735.8236               805.8740               842.1885
 Red. masses --      1.6834                 3.7100                 2.6295
 Frc consts  --      0.5370                 1.4196                 1.0989
 IR Inten    --     12.7140                14.9088                13.0303

                     16                     17                     18
                      A                      A                      A
 Frequencies --    867.8935               913.9681               941.1352
 Red. masses --      2.5945                 1.6835                 1.9805
 Frc consts  --      1.1514                 0.8286                 1.0336
 IR Inten    --     12.6923                 5.3627                 0.7370

                     19                     20                     21
                      A                      A                      A
 Frequencies --    978.3887               989.3291              1034.0672
 Red. masses --      6.0593                 1.2219                 2.0205
 Frc consts  --      3.4174                 0.7047                 1.2729
 IR Inten    --     33.3268                 1.5012                18.0458

                     22                     23                     24
                      A                      A                      A
 Frequencies --   1049.0037              1101.6663              1124.5882
 Red. masses --      1.8620                 2.1301                 1.8443
 Frc consts  --      1.2072                 1.5231                 1.3743
 IR Inten    --      4.5104                19.4376                49.0222

                     25                     26                     27
                      A                      A                      A
 Frequencies --   1130.4486              1155.3334              1166.2629
 Red. masses --      1.5018                 2.1543                 1.3636
 Frc consts  --      1.1308                 1.6943                 1.0928
 IR Inten    --     19.7050                13.1401                 1.5076

                     28                     29                     30
                      A                      A                      A
 Frequencies --   1192.5344              1264.2988              1279.3829
 Red. masses --      1.7401                 1.2117                 1.5883
 Frc consts  --      1.4581                 1.1412                 1.5318
 IR Inten    --     33.8914                 0.8489                14.5490

                     31                     32                     33
                      A                      A                      A
 Frequencies --   1345.9351              1364.7549              1377.4290
 Red. masses --      1.9494                 1.2239                 2.0011
 Frc consts  --      2.0807                 1.3431                 2.2370
 IR Inten    --     11.0933                 5.9651                 3.3190

                     34                     35                     36
                      A                      A                      A
 Frequencies --   1402.6598              1407.8261              1436.6378
 Red. masses --      1.4562                 1.3585                 1.9008
 Frc consts  --      1.6880                 1.5864                 2.3115
 IR Inten    --     15.5945                 7.7396                 1.2748

                     37                     38                     39
                      A                      A                      A
 Frequencies --   1483.3399              1485.8328              1490.3075
 Red. masses --      1.0814                 1.0655                 1.0673
 Frc consts  --      1.4019                 1.3860                 1.3967
 IR Inten    --      2.3372                 5.5119                 1.5737

                     40                     41                     42
                      A                      A                      A
 Frequencies --   1528.6166              1719.2683              2920.3911
 Red. masses --      1.2598                 7.0749                 1.0730
 Frc consts  --      1.7344                12.3213                 5.3917
 IR Inten    --      0.9637                 0.3612                60.0275

                     43                     44                     45
                      A                      A                      A
 Frequencies --   2937.0973              3058.1609              3058.7854
 Red. masses --      1.0814                 1.0798                 1.0414
 Frc consts  --      5.4962                 5.9500                 5.7406
 IR Inten    --     54.2732                31.1066                 9.6692

                     46                     47                     48
                      A                      A                      A
 Frequencies --   3074.7862              3129.2966              3147.2365
 Red. masses --      1.0502                 1.1015                 1.1024
 Frc consts  --      5.8499                 6.3552                 6.4335
 IR Inten    --     30.0838                20.6435                 9.9007

                     49                     50                     51
                      A                      A                      A
 Frequencies --   3158.2631              3160.5581              3181.6162
 Red. masses --      1.1080                 1.0941                 1.0987
 Frc consts  --      6.5114                 6.4395                 6.5525
 IR Inten    --     18.9723                 8.7371                21.9168

 - Thermochemistry -
 -------------------
 Temperature   298.150 Kelvin.  Pressure   1.00000 Atm.
 Atom     1 has atomic number  6 and mass  12.00000

 Molecular mass:   126.06808 amu.
 Principal axes and moments of inertia in atomic units:
                           1         2         3
     Eigenvalues --   722.156171034.571951575.52358
           X            0.99778   0.06525   0.01302
           Y           -0.06523   0.99787  -0.00163
           Z           -0.01310   0.00077   0.99991
 This molecule is an asymmetric top.
 Rotational symmetry number  1.
 Warning -- assumption of classical behavior for rotation
           may cause significant error
 Rotational temperatures (Kelvin)      0.11994     0.08372     0.05497
 Rotational constants (GHZ):           2.49910     1.74443     1.14549
 Zero-point vibrational energy     417788.9 (Joules/Mol)
                                   99.85394 (Kcal/Mol)
 Warning -- explicit consideration of  11 degrees of freedom as
           vibrations may cause significant error
 Vibrational temperatures:    109.79   276.99   298.29   388.64   414.63
          (Kelvin)            444.18   533.19   636.65   692.22   723.46
                              831.85   992.02  1058.68  1159.47  1211.72
                             1248.70  1314.99  1354.08  1407.68  1423.42
                             1487.79  1509.28  1585.05  1618.03  1626.46
                             1662.26  1677.99  1715.79  1819.04  1840.74
                             1936.50  1963.58  1981.81  2018.11  2025.55
                             2067.00  2134.19  2137.78  2144.22  2199.34
                             2473.64  4201.79  4225.82  4400.01  4400.90
                             4423.93  4502.35  4528.17  4544.03  4547.33
                             4577.63

 Zero-point correction=                           0.159127 (Hartree/Particle)
 Thermal correction to Energy=                    0.167288
 Thermal correction to Enthalpy=                  0.168232
 Thermal correction to Gibbs Free Energy=         0.126571
 Sum of electronic and zero-point Energies=           -423.012137
 Sum of electronic and thermal Energies=              -423.003976
 Sum of electronic and thermal Enthalpies=            -423.003032
 Sum of electronic and thermal Free Energies=         -423.044693

                     E (Thermal)             CV                S
                      KCal/Mol        Cal/Mol-Kelvin    Cal/Mol-Kelvin
 Total                  104.975             31.772             87.682
 Electronic               0.000              0.000              0.000
 Translational            0.889              2.981             40.409
 Rotational               0.889              2.981             28.556
 Vibrational            103.197             25.810             18.718
 Vibration     1          0.599              1.965              3.984
 Vibration     2          0.634              1.850              2.203
 Vibration     3          0.641              1.829              2.067
 Vibration     4          0.674              1.728              1.595
 Vibration     5          0.685              1.696              1.485
 Vibration     6          0.698              1.657              1.369
 Vibration     7          0.743              1.533              1.077
 Vibration     8          0.802              1.377              0.819
 Vibration     9          0.837              1.292              0.707
 Vibration    10          0.858              1.244              0.651
 Vibration    11          0.935              1.079              0.489

 Optimization completed.
    -- Stationary point found.
 Normal termination of Gaussian 09 at Tue Jan 28 08:59:58 2020.
