 Gaussian 09, Revision D.01,
 Gaussian 09:  ES64L-G09RevD.01 24-Apr-2013

 -----------------------------
 # b3lyp 6-31G(2df,p) opt Freq
 -----------------------------

 -----
 titel
 -----
 Symbolic Z-matrix:
 Charge =  0 Multiplicity = 1

 SCF Done:  E(RB3LYP) =  -423.216940621     A.U. after   14 cycles
 Optimization completed.
    -- Stationary point found.
 Normal termination of Gaussian 09 at Tue Jan 28 00:42:57 2020.

 ----------------------------------------------------------------------
 #N Geom=AllCheck Guess=TCheck SCRF=Check GenChk RB3LYP/6-31G(2df,p) Fr
 eq
 ----------------------------------------------------------------------

 Structure from the checkpoint file:  "/scratch/puck/g09_bf281427-4d52-4ef2-8ae6-92c671b2dbf8/Gau-37436.chk"
 -----
 titel
 -----
 Charge =  0 Multiplicity = 1

                         Standard orientation:
 ---------------------------------------------------------------------
 Center     Atomic      Atomic             Coordinates (Angstroms)
 Number     Number       Type             X           Y           Z
 ---------------------------------------------------------------------
      1          6           0        2.480599   -0.576946    0.477674
      2          6           0        1.272455   -0.336532   -0.458322
      3          6           0        0.324308   -1.510159   -0.461855
      4          6           0       -0.935341   -1.471439   -0.026906
      5          6           0       -1.595428   -0.223368    0.503111
      6          8           0       -2.534402    0.299302   -0.436015
      7          6           0       -0.552168    0.831527    0.930441
      8          6           0        0.566756    0.967272   -0.084251
      9          8           0        0.893789    2.025586   -0.569348
     10          1           0        2.160361   -0.696151    1.517317
     11          1           0        3.010321   -1.488929    0.185651
     12          1           0        3.179776    0.261627    0.420311
     13          1           0        1.670037   -0.187231   -1.469862
     14          1           0        0.730067   -2.440901   -0.854948
     15          1           0       -1.562576   -2.356462   -0.089998
     16          1           0       -2.209289   -0.472542    1.375646
     17          1           0       -2.083760    0.392792   -1.282940
     18          1           0       -1.030100    1.801080    1.082202
     19          1           0       -0.107022    0.505489    1.880163
 ---------------------------------------------------------------------

 SCF Done:  E(RB3LYP) =  -423.216940621     A.U. after    1 cycles

 The electronic state is 1-A.
 Alpha  occ. eigenvalues --  -19.14100 -19.13060 -10.26842 -10.24704 -10.20538
 Alpha  occ. eigenvalues --  -10.20087 -10.19406 -10.19262 -10.19040  -1.04135
 Alpha  occ. eigenvalues --   -1.02265  -0.83912  -0.77169  -0.74366  -0.67619
 Alpha  occ. eigenvalues --   -0.62598  -0.58530  -0.51461  -0.50805  -0.47890
 Alpha  occ. eigenvalues --   -0.46867  -0.45173  -0.42354  -0.42046  -0.41314
 Alpha  occ. eigenvalues --   -0.40433  -0.39779  -0.36395  -0.35123  -0.34643
 Alpha  occ. eigenvalues --   -0.33481  -0.28276  -0.26330  -0.23995
 Alpha virt. eigenvalues --   -0.01964  -0.00028   0.07700   0.10053   0.10964
 Alpha virt. eigenvalues --    0.12385   0.14198   0.15278   0.16250   0.16634
 Alpha virt. eigenvalues --    0.17784   0.18094   0.19809   0.21845   0.22080

 Mulliken charges:
               1
     1  C   -0.400639
     2  C   -0.120206
     3  C   -0.061813
     4  C   -0.110544
     5  C    0.077792
     6  O   -0.427659
     7  C   -0.323212
     8  C    0.362403
     9  O   -0.318622
    10  H    0.124796
    11  H    0.124180
    12  H    0.138636
    13  H    0.106505
    14  H    0.099088
    15  H    0.100525
    16  H    0.096612
    17  H    0.283037
    18  H    0.128116
    19  H    0.121006
 Sum of Mulliken charges =   0.00000

 Dipole moment (field-independent basis, Debye):
    X=              0.9576    Y=             -2.7353    Z=              0.7127  Tot=              2.9844
 Quadrupole moment (field-independent basis, Debye-Ang):
   XX=            -56.9838   YY=            -57.9718   ZZ=            -50.2198
   XY=             -2.0906   XZ=              0.1798   YZ=              2.4239

  Exact polarizability:  91.135  -0.411  77.429  -5.948   0.245  63.247
 Approx polarizability: 132.174   0.922 115.235 -12.781  -5.385 100.198

                      1                      2                      3
                      A                      A                      A
 Frequencies --     60.7628                90.9669               183.4579
 Red. masses --      3.9738                 5.2544                 3.2815
 Frc consts  --      0.0086                 0.0256                 0.0651
 IR Inten    --      1.3220                 3.0095                 3.2077

                      4                      5                      6
                      A                      A                      A
 Frequencies --    221.5711               232.5064               300.3435
 Red. masses --      1.9352                 1.2995                 1.1197
 Frc consts  --      0.0560                 0.0414                 0.0595
 IR Inten    --      0.9476                 0.2397                72.2883

                      7                      8                      9
                      A                      A                      A
 Frequencies --    351.0156               388.0645               453.3340
 Red. masses --      2.4548                 2.7641                 4.1943
 Frc consts  --      0.1782                 0.2453                 0.5079
 IR Inten    --     11.3380                 8.2245                 5.6999

                     10                     11                     12
                      A                      A                      A
 Frequencies --    478.4351               504.6944               603.2071
 Red. masses --      4.0125                 4.3713                 3.9376
 Frc consts  --      0.5411                 0.6560                 0.8441
 IR Inten    --      4.2819                 1.5442                 0.2719

                     13                     14                     15
                      A                      A                      A
 Frequencies --    643.6456               706.2674               781.1708
 Red. masses --      3.1121                 3.7612                 1.5707
 Frc consts  --      0.7596                 1.1054                 0.5647
 IR Inten    --      1.9358                 1.2690                18.3615

                     16                     17                     18
                      A                      A                      A
 Frequencies --    834.5064               866.0273               904.9066
 Red. masses --      2.6893                 2.1938                 2.5732
 Frc consts  --      1.1035                 0.9694                 1.2415
 IR Inten    --     17.9238                11.1870                 9.3056

                     19                     20                     21
                      A                      A                      A
 Frequencies --    937.9601               994.4076              1011.8785
 Red. masses --      1.9546                 2.0804                 1.2486
 Frc consts  --      1.0132                 1.2121                 0.7532
 IR Inten    --      3.3047                33.3574                 2.5703

                     22                     23                     24
                      A                      A                      A
 Frequencies --   1036.3055              1062.7429              1090.6097
 Red. masses --      3.2962                 1.9570                 2.5198
 Frc consts  --      2.0856                 1.3022                 1.7659
 IR Inten    --      6.5801                27.7823                41.6667

                     25                     26                     27
                      A                      A                      A
 Frequencies --   1096.9186              1147.9922              1205.6255
 Red. masses --      1.6998                 1.3327                 1.1932
 Frc consts  --      1.2050                 1.0348                 1.0219
 IR Inten    --     39.7581                17.9990                21.4784

                     28                     29                     30
                      A                      A                      A
 Frequencies --   1240.3047              1269.7030              1295.0871
 Red. masses --      1.6660                 1.4685                 1.5619
 Frc consts  --      1.5100                 1.3948                 1.5435
 IR Inten    --     15.4613                 5.3890                10.7876

                     31                     32                     33
                      A                      A                      A
 Frequencies --   1306.2164              1336.3602              1375.1253
 Red. masses --      1.2975                 1.8181                 1.4794
 Frc consts  --      1.3043                 1.9130                 1.6482
 IR Inten    --      0.4791                 7.5957                19.1247

                     34                     35                     36
                      A                      A                      A
 Frequencies --   1394.9707              1412.6324              1430.4422
 Red. masses --      1.2985                 1.2687                 1.3104
 Frc consts  --      1.4887                 1.4916                 1.5798
 IR Inten    --      0.5603                19.0699                39.1027

                     37                     38                     39
                      A                      A                      A
 Frequencies --   1453.1320              1495.8590              1497.5579
 Red. masses --      1.1107                 1.0447                 1.0583
 Frc consts  --      1.3819                 1.3773                 1.3984
 IR Inten    --     14.7207                 7.5353                 3.6333

                     40                     41                     42
                      A                      A                      A
 Frequencies --   1715.2323              1814.6456              3026.5551
 Red. masses --      7.0636                11.3774                 1.0664
 Frc consts  --     12.2440                22.0739                 5.7550
 IR Inten    --      5.6041               169.4839                 4.2740

                     43                     44                     45
                      A                      A                      A
 Frequencies --   3032.7574              3038.4955              3049.8906
 Red. masses --      1.0811                 1.0358                 1.0838
 Frc consts  --      5.8584                 5.6342                 5.9397
 IR Inten    --      7.8443                24.4515                31.6671

                     46                     47                     48
                      A                      A                      A
 Frequencies --   3108.8445              3121.8868              3122.8964
 Red. masses --      1.1019                 1.0995                 1.0995
 Frc consts  --      6.2744                 6.3136                 6.3179
 IR Inten    --     20.7292                10.3284                15.8689

                     49                     50                     51
                      A                      A                      A
 Frequencies --   3136.9909              3171.9556              3799.8339
 Red. masses --      1.0856                 1.0949                 1.0662
 Frc consts  --      6.2943                 6.4906                 9.0701
 IR Inten    --     11.1842                20.5664                15.2136

 - Thermochemistry -
 -------------------
 Temperature   298.150 Kelvin.  Pressure   1.00000 Atm.
 Atom     1 has atomic number  6 and mass  12.00000

 Molecular mass:   126.06808 amu.
 Principal axes and moments of inertia in atomic units:
                           1         2         3
     Eigenvalues --   739.587761221.716161652.79817
           X            0.99921  -0.03969   0.00196
           Y            0.03963   0.99892   0.02444
           Z           -0.00293  -0.02435   0.99970
 This molecule is an asymmetric top.
 Rotational symmetry number  1.
 Warning -- assumption of classical behavior for rotation
           may cause significant error
 Rotational temperatures (Kelvin)      0.11711     0.07090     0.05240
 Rotational constants (GHZ):           2.44020     1.47722     1.09193
 Zero-point vibrational energy     417716.2 (Joules/Mol)
                                   99.83657 (Kcal/Mol)
 Warning -- explicit consideration of  12 degrees of freedom as
           vibrations may cause significant error
 Vibrational temperatures:     87.42   130.88   263.95   318.79   334.52
          (Kelvin)            432.13   505.03   558.34   652.25   688.36
                              726.14   867.88   926.06  1016.16  1123.93
                             1200.67  1246.02  1301.96  1349.51  1430.73
                             1455.87  1491.01  1529.05  1569.14  1578.22
                             1651.70  1734.62  1784.52  1826.82  1863.34
                             1879.35  1922.72  1978.50  2007.05  2032.46
                             2058.08  2090.73  2152.20  2154.65  2467.83
                             2610.87  4354.53  4363.46  4371.71  4388.11
                             4472.93  4491.69  4493.15  4513.42  4563.73
                             5467.11

 Zero-point correction=                           0.159100 (Hartree/Particle)
 Thermal correction to Energy=                    0.167996
 Thermal correction to Enthalpy=                  0.168940
 Thermal correction to Gibbs Free Energy=         0.125292
 Sum of electronic and zero-point Energies=           -423.057841
 Sum of electronic and thermal Energies=              -423.048945
 Sum of electronic and thermal Enthalpies=            -423.048001
 Sum of electronic and thermal Free Energies=         -423.091648

                     E (Thermal)             CV                S
                      KCal/Mol        Cal/Mol-Kelvin    Cal/Mol-Kelvin
 Total                  105.419             33.441             91.865
 Electronic               0.000              0.000              0.000
 Translational            0.889              2.981             40.409
 Rotational               0.889              2.981             28.792
 Vibrational            103.642             27.479             22.664
 Vibration     1          0.597              1.973              4.432
 Vibration     2          0.602              1.956              3.639
 Vibration     3          0.631              1.862              2.293
 Vibration     4          0.648              1.808              1.946
 Vibration     5          0.653              1.791              1.860
 Vibration     6          0.693              1.673              1.415
 Vibration     7          0.728              1.573              1.162
 Vibration     8          0.756              1.496              1.008
 Vibration     9          0.812              1.354              0.786
 Vibration    10          0.835              1.298              0.714
 Vibration    11          0.860              1.240              0.646
 Vibration    12          0.962              1.025              0.444

 Optimization completed.
    -- Stationary point found.
 Normal termination of Gaussian 09 at Tue Jan 28 02:45:50 2020.
