 Gaussian 09, Revision D.01,
 Gaussian 09:  ES64L-G09RevD.01 24-Apr-2013

 -----------------------------
 # b3lyp 6-31G(2df,p) opt Freq
 -----------------------------

 -----
 titel
 -----
 Symbolic Z-matrix:
 Charge =  0 Multiplicity = 1

 SCF Done:  E(RB3LYP) =  -423.245481529     A.U. after   14 cycles
 Optimization completed.
    -- Stationary point found.
 Normal termination of Gaussian 09 at Tue Jan 28 14:14:23 2020.

 ----------------------------------------------------------------------
 #N Geom=AllCheck Guess=TCheck SCRF=Check GenChk RB3LYP/6-31G(2df,p) Fr
 eq
 ----------------------------------------------------------------------

 Structure from the checkpoint file:  "/scratch/puck/g09_40ef1d48-e603-45b2-b141-af55b3f90ef2/Gau-34277.chk"
 -----
 titel
 -----
 Charge =  0 Multiplicity = 1

                         Standard orientation:
 ---------------------------------------------------------------------
 Center     Atomic      Atomic             Coordinates (Angstroms)
 Number     Number       Type             X           Y           Z
 ---------------------------------------------------------------------
      1          6           0        3.606954   -0.407807   -0.435640
      2          6           0        2.293157   -0.401298    0.349509
      3          6           0        1.276367    0.599762   -0.209802
      4          6           0       -0.050843    0.602620    0.555291
      5          8           0       -0.681551   -0.682311    0.466369
      6          6           0       -1.940947   -0.561335   -0.073052
      7          8           0       -2.659968   -1.502705   -0.251056
      8          6           0       -2.164526    0.879034   -0.351142
      9          6           0       -1.079675    1.557082    0.015779
     10          1           0        4.314579   -1.128782   -0.015544
     11          1           0        3.440197   -0.678112   -1.484111
     12          1           0        4.086377    0.577517   -0.420298
     13          1           0        1.845763   -1.400645    0.340495
     14          1           0        2.493089   -0.161624    1.402311
     15          1           0        1.690616    1.616304   -0.173923
     16          1           0        1.066584    0.379469   -1.263749
     17          1           0        0.143779    0.800643    1.619949
     18          1           0       -3.084722    1.243196   -0.783226
     19          1           0       -0.907038    2.623810   -0.050064
 ---------------------------------------------------------------------

 SCF Done:  E(RB3LYP) =  -423.245481529     A.U. after    1 cycles

 The electronic state is 1-A.
 Alpha  occ. eigenvalues --  -19.17669 -19.11729 -10.30044 -10.25977 -10.22086
 Alpha  occ. eigenvalues --  -10.20775 -10.19901 -10.18829 -10.17972  -1.09559
 Alpha  occ. eigenvalues --   -1.01757  -0.82441  -0.80218  -0.74088  -0.66420
 Alpha  occ. eigenvalues --   -0.60387  -0.59932  -0.56652  -0.52199  -0.48343
 Alpha  occ. eigenvalues --   -0.46133  -0.45271  -0.43159  -0.42071  -0.41087
 Alpha  occ. eigenvalues --   -0.39832  -0.38047  -0.36977  -0.35328  -0.33908
 Alpha  occ. eigenvalues --   -0.33481  -0.30548  -0.27956  -0.26696
 Alpha virt. eigenvalues --   -0.04266   0.08014   0.08588   0.10023   0.11658
 Alpha virt. eigenvalues --    0.12576   0.13444   0.14023   0.15401   0.16020
 Alpha virt. eigenvalues --    0.17383   0.18204   0.18825   0.20456   0.22676

 Mulliken charges:
               1
     1  C   -0.385396
     2  C   -0.169171
     3  C   -0.181871
     4  C    0.051852
     5  O   -0.233167
     6  C    0.424523
     7  O   -0.345691
     8  C   -0.235234
     9  C   -0.081195
    10  H    0.118160
    11  H    0.119187
    12  H    0.112650
    13  H    0.127220
    14  H    0.095732
    15  H    0.098980
    16  H    0.110445
    17  H    0.108394
    18  H    0.135279
    19  H    0.129305
 Sum of Mulliken charges =   0.00000

 Dipole moment (field-independent basis, Debye):
    X=              2.3519    Y=              4.0005    Z=              0.1663  Tot=              4.6436
 Quadrupole moment (field-independent basis, Debye-Ang):
   XX=            -57.3516   YY=            -54.6869   ZZ=            -52.6349
   XY=             -7.7909   XZ=              0.4609   YZ=              0.0642

  Exact polarizability: 100.706   6.694  77.337   7.201   1.028  58.545
 Approx polarizability: 134.397  23.564 124.174  15.869   5.366  91.407

                      1                      2                      3
                      A                      A                      A
 Frequencies --     69.4699                92.1528               125.2771
 Red. masses --      3.4031                 1.8202                 4.0844
 Frc consts  --      0.0097                 0.0091                 0.0378
 IR Inten    --      1.0952                 0.8293                 1.9068

                      4                      5                      6
                      A                      A                      A
 Frequencies --    157.5020               245.5834               277.3534
 Red. masses --      3.5400                 1.1451                 3.2818
 Frc consts  --      0.0517                 0.0407                 0.1487
 IR Inten    --      0.4291                 0.0225                 0.6038

                      7                      8                      9
                      A                      A                      A
 Frequencies --    316.1582               385.5639               502.6543
 Red. masses --      3.1357                 3.7704                 4.3340
 Frc consts  --      0.1847                 0.3302                 0.6452
 IR Inten    --      0.3931                 0.4268                 2.6518

                     10                     11                     12
                      A                      A                      A
 Frequencies --    536.8680               676.0464               714.6144
 Red. masses --      2.9175                 4.0436                 2.3128
 Frc consts  --      0.4955                 1.0888                 0.6959
 IR Inten    --      4.5886                 2.9756                 1.9604

                     13                     14                     15
                      A                      A                      A
 Frequencies --    747.3018               789.9870               835.8637
 Red. masses --      1.3294                 3.4467                 2.2044
 Frc consts  --      0.4374                 1.2673                 0.9074
 IR Inten    --      5.6881                 1.0563                40.9965

                     16                     17                     18
                      A                      A                      A
 Frequencies --    856.7246               905.4979               908.9366
 Red. masses --      2.4367                 2.0098                 2.3758
 Frc consts  --      1.0538                 0.9709                 1.1564
 IR Inten    --     10.2103                15.2262                19.5269

                     19                     20                     21
                      A                      A                      A
 Frequencies --    940.5569               977.4533              1032.0541
 Red. masses --      1.9997                 1.3581                 2.0623
 Frc consts  --      1.0423                 0.7645                 1.2942
 IR Inten    --      9.6856                 2.3124                35.9129

                     22                     23                     24
                      A                      A                      A
 Frequencies --   1041.3913              1064.0970              1111.6979
 Red. masses --      2.4794                 1.9210                 1.7412
 Frc consts  --      1.5843                 1.2816                 1.2679
 IR Inten    --      8.7702                11.3610                35.8120

                     25                     26                     27
                      A                      A                      A
 Frequencies --   1129.8884              1144.4077              1165.7268
 Red. masses --      2.8907                 2.0857                 1.8578
 Frc consts  --      2.1743                 1.6094                 1.4875
 IR Inten    --     52.9139                22.2146                32.8031

                     28                     29                     30
                      A                      A                      A
 Frequencies --   1255.8417              1274.4727              1327.8599
 Red. masses --      1.3723                 1.3348                 1.1363
 Frc consts  --      1.2751                 1.2774                 1.1805
 IR Inten    --      4.2381                16.2928                 4.2334

                     31                     32                     33
                      A                      A                      A
 Frequencies --   1339.2827              1350.7060              1368.4626
 Red. masses --      1.5174                 1.6326                 1.4433
 Frc consts  --      1.6036                 1.7549                 1.5925
 IR Inten    --      4.0378                 2.1930                 8.2316

                     34                     35                     36
                      A                      A                      A
 Frequencies --   1395.6208              1415.1293              1474.2077
 Red. masses --      1.5894                 1.2347                 1.0829
 Frc consts  --      1.8240                 1.4569                 1.3867
 IR Inten    --      1.7768                 0.6209                 0.8127

                     37                     38                     39
                      A                      A                      A
 Frequencies --   1493.6910              1500.3128              1509.8956
 Red. masses --      1.0532                 1.0401                 1.0839
 Frc consts  --      1.3844                 1.3794                 1.4559
 IR Inten    --      0.9003                 5.7066                 3.3158

                     40                     41                     42
                      A                      A                      A
 Frequencies --   1662.5716              1871.4648              3000.9377
 Red. masses --      6.6765                12.6648                 1.0819
 Frc consts  --     10.8733                26.1344                 5.7407
 IR Inten    --      8.9844               448.4866                16.1344

                     43                     44                     45
                      A                      A                      A
 Frequencies --   3018.4572              3024.1228              3030.8735
 Red. masses --      1.0597                 1.0669                 1.0378
 Frc consts  --      5.6888                 5.7489                 5.6169
 IR Inten    --      6.8084                26.4087                37.1968

                     46                     47                     48
                      A                      A                      A
 Frequencies --   3061.1280              3078.1762              3101.1460
 Red. masses --      1.0944                 1.0998                 1.1021
 Frc consts  --      6.0423                 6.1397                 6.2450
 IR Inten    --     15.0623                 3.5336                54.8308

                     49                     50                     51
                      A                      A                      A
 Frequencies --   3106.2196              3218.0092              3257.6567
 Red. masses --      1.1006                 1.0907                 1.1044
 Frc consts  --      6.2565                 6.6549                 6.9056
 IR Inten    --     31.6371                 2.4057                 0.8922

 - Thermochemistry -
 -------------------
 Temperature   298.150 Kelvin.  Pressure   1.00000 Atm.
 Atom     1 has atomic number  6 and mass  12.00000

 Molecular mass:   126.06808 amu.
 Principal axes and moments of inertia in atomic units:
                           1         2         3
     Eigenvalues --   490.517282029.703222353.13974
           X            0.99971  -0.02377  -0.00334
           Y            0.02375   0.99970  -0.00526
           Z            0.00346   0.00518   0.99998
 This molecule is an asymmetric top.
 Rotational symmetry number  1.
 Warning -- assumption of classical behavior for rotation
           may cause significant error
 Rotational temperatures (Kelvin)      0.17658     0.04267     0.03681
 Rotational constants (GHZ):           3.67926     0.88917     0.76695
 Zero-point vibrational energy     418017.5 (Joules/Mol)
                                   99.90859 (Kcal/Mol)
 Warning -- explicit consideration of  10 degrees of freedom as
           vibrations may cause significant error
 Vibrational temperatures:     99.95   132.59   180.25   226.61   353.34
          (Kelvin)            399.05   454.88   554.74   723.21   772.43
                              972.68  1028.17  1075.20  1136.61  1202.62
                             1232.63  1302.81  1307.76  1353.25  1406.34
                             1484.89  1498.33  1531.00  1599.48  1625.66
                             1646.55  1677.22  1806.87  1833.68  1910.49
                             1926.93  1943.36  1968.91  2007.98  2036.05
                             2121.05  2149.09  2158.61  2172.40  2392.07
                             2692.62  4317.67  4342.88  4351.03  4360.75
                             4404.27  4428.80  4461.85  4469.15  4629.99
                             4687.04

 Zero-point correction=                           0.159214 (Hartree/Particle)
 Thermal correction to Energy=                    0.168005
 Thermal correction to Enthalpy=                  0.168949
 Thermal correction to Gibbs Free Energy=         0.124982
 Sum of electronic and zero-point Energies=           -423.086267
 Sum of electronic and thermal Energies=              -423.077476
 Sum of electronic and thermal Enthalpies=            -423.076532
 Sum of electronic and thermal Free Energies=         -423.120499

                     E (Thermal)             CV                S
                      KCal/Mol        Cal/Mol-Kelvin    Cal/Mol-Kelvin
 Total                  105.425             32.224             92.536
 Electronic               0.000              0.000              0.000
 Translational            0.889              2.981             40.409
 Rotational               0.889              2.981             29.240
 Vibrational            103.647             26.263             22.888
 Vibration     1          0.598              1.969              4.168
 Vibration     2          0.602              1.955              3.614
 Vibration     3          0.610              1.928              3.017
 Vibration     4          0.621              1.894              2.580
 Vibration     5          0.660              1.770              1.762
 Vibration     6          0.678              1.715              1.550
 Vibration     7          0.703              1.643              1.330
 Vibration     8          0.754              1.501              1.017
 Vibration     9          0.858              1.244              0.652
 Vibration    10          0.892              1.168              0.572

 Optimization completed.
    -- Stationary point found.
 Normal termination of Gaussian 09 at Tue Jan 28 14:50:52 2020.
