 Gaussian 09, Revision D.01,
 Gaussian 09:  ES64L-G09RevD.01 24-Apr-2013

 -----------------------------
 # b3lyp 6-31G(2df,p) opt Freq
 -----------------------------

 -----
 titel
 -----
 Symbolic Z-matrix:
 Charge =  0 Multiplicity = 1

 SCF Done:  E(RB3LYP) =  -423.117439533     A.U. after   14 cycles
 Optimization completed.
    -- Stationary point found.
 Normal termination of Gaussian 09 at Tue Jan 28 12:07:22 2020.

 ----------------------------------------------------------------------
 #N Geom=AllCheck Guess=TCheck SCRF=Check GenChk RB3LYP/6-31G(2df,p) Fr
 eq
 ----------------------------------------------------------------------

 Structure from the checkpoint file:  "/scratch/puck/g09_0e64a97f-0896-45e6-81c0-e3b69b556092/Gau-1224.chk"
 -----
 titel
 -----
 Charge =  0 Multiplicity = 1

                         Standard orientation:
 ---------------------------------------------------------------------
 Center     Atomic      Atomic             Coordinates (Angstroms)
 Number     Number       Type             X           Y           Z
 ---------------------------------------------------------------------
      1          6           0       -4.286022    0.625707    0.147459
      2          8           0       -2.880340    0.642411    0.052390
      3          6           0       -2.346455   -0.654162   -0.132389
      4          6           0       -0.894598   -0.595146   -0.218425
      5          6           0        0.307513   -0.570589   -0.284243
      6          6           0        1.739679   -0.539445   -0.389746
      7          8           0        2.507376   -0.826982    0.795680
      8          6           0        2.551475    0.500680    0.279831
      9          6           0        3.864601    0.975962   -0.283380
     10          1           0       -4.632316    0.022675    1.002038
     11          1           0       -4.611786    1.658494    0.288483
     12          1           0       -4.754327    0.225685   -0.766170
     13          1           0       -2.639746   -1.314921    0.702477
     14          1           0       -2.754520   -1.111905   -1.050895
     15          1           0        2.152204   -0.987428   -1.293798
     16          1           0        2.003673    1.223297    0.885918
     17          1           0        4.326115    0.202482   -0.903069
     18          1           0        3.718921    1.875429   -0.890690
     19          1           0        4.558343    1.224712    0.526492
 ---------------------------------------------------------------------

 SCF Done:  E(RB3LYP) =  -423.117439533     A.U. after    1 cycles

 The electronic state is 1-A.
 Alpha  occ. eigenvalues --  -19.15239 -19.14678 -10.25539 -10.25520 -10.24424
 Alpha  occ. eigenvalues --  -10.22893 -10.18707 -10.18365 -10.18060  -1.07309
 Alpha  occ. eigenvalues --   -1.04049  -0.78345  -0.74873  -0.73429  -0.67467
 Alpha  occ. eigenvalues --   -0.64438  -0.60267  -0.53478  -0.49751  -0.49087
 Alpha  occ. eigenvalues --   -0.48466  -0.47709  -0.43795  -0.41248  -0.41162
 Alpha  occ. eigenvalues --   -0.40354  -0.38736  -0.37675  -0.33320  -0.32723
 Alpha  occ. eigenvalues --   -0.27619  -0.27279  -0.25770  -0.25211
 Alpha virt. eigenvalues --    0.01738   0.03790   0.09275   0.10969   0.12182
 Alpha virt. eigenvalues --    0.13166   0.14068   0.14793   0.15499   0.15774
 Alpha virt. eigenvalues --    0.16684   0.17276   0.17764   0.18312   0.21189

 Mulliken charges:
               1
     1  C   -0.219290
     2  O   -0.228024
     3  C   -0.205512
     4  C    0.065633
     5  C    0.145238
     6  C   -0.178151
     7  O   -0.241510
     8  C    0.095454
     9  C   -0.420132
    10  H    0.106290
    11  H    0.132165
    12  H    0.105255
    13  H    0.119918
    14  H    0.116566
    15  H    0.111180
    16  H    0.104932
    17  H    0.128700
    18  H    0.127958
    19  H    0.133330
 Sum of Mulliken charges =   0.00000

 Dipole moment (field-independent basis, Debye):
    X=             -1.0389    Y=              0.4921    Z=             -1.1712  Tot=              1.6411
 Quadrupole moment (field-independent basis, Debye-Ang):
   XX=            -41.2070   YY=            -53.5177   ZZ=            -53.7179
   XY=              5.9107   XZ=             -3.4400   YZ=              2.3160

  Exact polarizability: 129.520   5.536  66.191  -0.461   2.896  60.538
 Approx polarizability: 163.848   5.735  97.421   2.588   2.514  91.325

                      1                      2                      3
                      A                      A                      A
 Frequencies --     25.4613                58.2300                68.5668
 Red. masses --      2.6438                 4.0879                 2.5311
 Frc consts  --      0.0010                 0.0082                 0.0070
 IR Inten    --      4.0605                 1.5475                 5.0676

                      4                      5                      6
                      A                      A                      A
 Frequencies --    118.5156               165.9211               207.4247
 Red. masses --      3.5990                 2.8671                 1.2342
 Frc consts  --      0.0298                 0.0465                 0.0313
 IR Inten    --      0.7491                 0.7110                 0.5748

                      7                      8                      9
                      A                      A                      A
 Frequencies --    227.2441               267.7070               313.2326
 Red. masses --      1.1817                 2.9858                 3.8881
 Frc consts  --      0.0360                 0.1261                 0.2248
 IR Inten    --      3.1077                 0.6501                 1.0628

                     10                     11                     12
                      A                      A                      A
 Frequencies --    359.8196               400.8017               425.1826
 Red. masses --      3.7110                 3.4424                 4.3090
 Frc consts  --      0.2831                 0.3258                 0.4590
 IR Inten    --      1.4238                 1.4437                 1.5801

                     13                     14                     15
                      A                      A                      A
 Frequencies --    546.9488               582.5919               777.6812
 Red. masses --      6.5090                 7.8662                 4.7976
 Frc consts  --      1.1472                 1.5731                 1.7095
 IR Inten    --      7.4486                 8.3829                 9.1485

                     16                     17                     18
                      A                      A                      A
 Frequencies --    823.8230               884.1974               960.2135
 Red. masses --      2.6779                 3.6331                 2.5878
 Frc consts  --      1.0708                 1.6735                 1.4058
 IR Inten    --      7.4296                27.4144                17.4437

                     19                     20                     21
                      A                      A                      A
 Frequencies --    979.7747              1024.3400              1040.9578
 Red. masses --      4.2491                 1.6163                 1.5515
 Frc consts  --      2.4032                 0.9992                 0.9905
 IR Inten    --     40.2780                 3.6269                15.9311

                     22                     23                     24
                      A                      A                      A
 Frequencies --   1063.8754              1142.1017              1159.8164
 Red. masses --      1.4199                 6.3350                 1.8122
 Frc consts  --      0.9469                 4.8686                 1.4363
 IR Inten    --      0.9319               131.0575                14.6891

                     25                     26                     27
                      A                      A                      A
 Frequencies --   1169.7032              1182.6933              1188.8370
 Red. masses --      1.5278                 1.2889                 3.7163
 Frc consts  --      1.2316                 1.0622                 3.0946
 IR Inten    --      4.0227                 3.8782                72.7045

                     28                     29                     30
                      A                      A                      A
 Frequencies --   1220.3593              1255.9446              1278.4154
 Red. masses --      1.5558                 1.0813                 1.4721
 Frc consts  --      1.3652                 1.0049                 1.4175
 IR Inten    --     34.8930                 3.8356                 6.1398

                     31                     32                     33
                      A                      A                      A
 Frequencies --   1356.5198              1408.2844              1411.6976
 Red. masses --      1.2178                 1.2623                 1.3582
 Frc consts  --      1.3204                 1.4751                 1.5948
 IR Inten    --     38.2403                 9.4742               110.1747

                     34                     35                     36
                      A                      A                      A
 Frequencies --   1459.9337              1477.1402              1484.1637
 Red. masses --      1.8641                 1.1567                 1.0466
 Frc consts  --      2.3409                 1.4870                 1.3584
 IR Inten    --     17.7140                 0.2423                 5.4009

                     37                     38                     39
                      A                      A                      A
 Frequencies --   1484.6289              1493.5068              1499.3278
 Red. masses --      1.0990                 1.0715                 1.2188
 Frc consts  --      1.4272                 1.4082                 1.6143
 IR Inten    --      6.9189                 3.2018                 3.0916

                     40                     41                     42
                      A                      A                      A
 Frequencies --   1515.5136              2368.4567              2944.5034
 Red. masses --      1.0772                11.8926                 1.0532
 Frc consts  --      1.4577                39.3058                 5.3800
 IR Inten    --      3.5281                 1.9780                29.4142

                     43                     44                     45
                      A                      A                      A
 Frequencies --   2962.2855              2969.3833              3012.2693
 Red. masses --      1.1025                 1.0382                 1.1031
 Frc consts  --      5.7000                 5.3934                 5.8973
 IR Inten    --     43.0235                79.8408                57.1094

                     46                     47                     48
                      A                      A                      A
 Frequencies --   3037.5712              3102.4684              3104.4288
 Red. masses --      1.0353                 1.0905                 1.0996
 Frc consts  --      5.6280                 6.1844                 6.2439
 IR Inten    --     19.2523                 3.9947                12.3676

                     49                     50                     51
                      A                      A                      A
 Frequencies --   3108.9514              3121.8383              3126.6789
 Red. masses --      1.0870                 1.0955                 1.0989
 Frc consts  --      6.1901                 6.2906                 6.3295
 IR Inten    --     20.3498                23.9223                35.3218

 - Thermochemistry -
 -------------------
 Temperature   298.150 Kelvin.  Pressure   1.00000 Atm.
 Atom     1 has atomic number  6 and mass  12.00000

 Molecular mass:   126.06808 amu.
 Principal axes and moments of inertia in atomic units:
                           1         2         3
     Eigenvalues --   321.986113537.968083692.41265
           X            0.99989   0.01282  -0.00700
           Y           -0.01256   0.99924   0.03678
           Z            0.00746  -0.03669   0.99930
 This molecule is an asymmetric top.
 Rotational symmetry number  1.
 Rotational temperatures (Kelvin)      0.26900     0.02448     0.02346
 Rotational constants (GHZ):           5.60503     0.51011     0.48877
 Zero-point vibrational energy     408943.0 (Joules/Mol)
                                   97.73973 (Kcal/Mol)
 Warning -- explicit consideration of  14 degrees of freedom as
           vibrations may cause significant error
 Vibrational temperatures:     36.63    83.78    98.65   170.52   238.72
          (Kelvin)            298.44   326.95   385.17   450.67   517.70
                              576.66   611.74   786.94   838.22  1118.91
                             1185.30  1272.16  1381.53  1409.68  1473.79
                             1497.70  1530.68  1643.23  1668.72  1682.94
                             1701.63  1710.47  1755.82  1807.02  1839.35
                             1951.73  2026.20  2031.12  2100.52  2125.27
                             2135.38  2136.05  2148.82  2157.20  2180.48
                             3407.68  4236.48  4262.06  4272.27  4333.98
                             4370.38  4463.75  4466.57  4473.08  4491.62
                             4498.59

 Zero-point correction=                           0.155758 (Hartree/Particle)
 Thermal correction to Energy=                    0.166235
 Thermal correction to Enthalpy=                  0.167180
 Thermal correction to Gibbs Free Energy=         0.118192
 Sum of electronic and zero-point Energies=           -422.961681
 Sum of electronic and thermal Energies=              -422.951204
 Sum of electronic and thermal Enthalpies=            -422.950260
 Sum of electronic and thermal Free Energies=         -422.999247

                     E (Thermal)             CV                S
                      KCal/Mol        Cal/Mol-Kelvin    Cal/Mol-Kelvin
 Total                  104.314             35.550            103.103
 Electronic               0.000              0.000              0.000
 Translational            0.889              2.981             40.409
 Rotational               0.889              2.981             29.821
 Vibrational            102.537             29.588             32.873
 Vibration     1          0.593              1.985              6.155
 Vibration     2          0.596              1.974              4.516
 Vibration     3          0.598              1.969              4.194
 Vibration     4          0.609              1.934              3.124
 Vibration     5          0.624              1.884              2.481
 Vibration     6          0.641              1.829              2.066
 Vibration     7          0.651              1.799              1.901
 Vibration     8          0.673              1.732              1.611
 Vibration     9          0.701              1.648              1.345
 Vibration    10          0.734              1.555              1.123
 Vibration    11          0.767              1.468              0.960
 Vibration    12          0.787              1.415              0.875
 Vibration    13          0.902              1.146              0.551
 Vibration    14          0.939              1.069              0.481

 Optimization completed.
    -- Stationary point found.
 Normal termination of Gaussian 09 at Tue Jan 28 12:41:01 2020.
