 Gaussian 09, Revision D.01,
 Gaussian 09:  ES64L-G09RevD.01 24-Apr-2013

 -----------------------------
 # b3lyp 6-31G(2df,p) opt Freq
 -----------------------------

 -----
 titel
 -----
 Symbolic Z-matrix:
 Charge =  0 Multiplicity = 1

 SCF Done:  E(RB3LYP) =  -423.201555929     A.U. after   14 cycles
 Optimization completed.
    -- Stationary point found.
 Normal termination of Gaussian 09 at Mon Jan 27 16:36:51 2020.

 ----------------------------------------------------------------------
 #N Geom=AllCheck Guess=TCheck SCRF=Check GenChk RB3LYP/6-31G(2df,p) Fr
 eq
 ----------------------------------------------------------------------

 Structure from the checkpoint file:  "/scratch/puck/g09_f4c00c13-cd39-4608-80c4-97bf8c9f646e/Gau-31153.chk"
 -----
 titel
 -----
 Charge =  0 Multiplicity = 1

                         Standard orientation:
 ---------------------------------------------------------------------
 Center     Atomic      Atomic             Coordinates (Angstroms)
 Number     Number       Type             X           Y           Z
 ---------------------------------------------------------------------
      1          8           0       -0.045761    1.682031    0.883731
      2          6           0        0.248828    0.535638    0.087822
      3          6           0       -0.956698    0.193277   -0.816888
      4          6           0       -2.235873   -0.048797   -0.043154
      5          8           0       -2.964618   -0.994021   -0.212432
      6          6           0        0.579650   -0.639509    1.049667
      7          6           0        1.765965   -1.310761    0.407817
      8          6           0        2.283117   -0.582531   -0.580440
      9          6           0        1.534772    0.710830   -0.777336
     10          1           0       -0.166626    2.434565    0.294112
     11          1           0       -1.135226    1.043296   -1.494061
     12          1           0       -0.744450   -0.684261   -1.434829
     13          1           0       -2.467481    0.730121    0.714311
     14          1           0        0.829327   -0.234431    2.038173
     15          1           0       -0.270473   -1.316326    1.191959
     16          1           0        2.149285   -2.265092    0.750774
     17          1           0        3.155070   -0.848336   -1.167411
     18          1           0        2.111700    1.566145   -0.399388
     19          1           0        1.303339    0.921367   -1.828958
 ---------------------------------------------------------------------

 SCF Done:  E(RB3LYP) =  -423.201555929     A.U. after    1 cycles

 The electronic state is 1-A.
 Alpha  occ. eigenvalues --  -19.14795 -19.13665 -10.26753 -10.25308 -10.19421
 Alpha  occ. eigenvalues --  -10.19061 -10.18706 -10.18673 -10.18581  -1.04301
 Alpha  occ. eigenvalues --   -1.03111  -0.84713  -0.76628  -0.71800  -0.68469
 Alpha  occ. eigenvalues --   -0.58569  -0.57609  -0.54099  -0.51253  -0.49682
 Alpha  occ. eigenvalues --   -0.46739  -0.43887  -0.43401  -0.41481  -0.39658
 Alpha  occ. eigenvalues --   -0.39210  -0.38375  -0.37503  -0.35882  -0.35411
 Alpha  occ. eigenvalues --   -0.32018  -0.28523  -0.24932  -0.24198
 Alpha virt. eigenvalues --   -0.02211   0.01844   0.06555   0.10338   0.12521
 Alpha virt. eigenvalues --    0.13405   0.13741   0.14887   0.15334   0.16405
 Alpha virt. eigenvalues --    0.17034   0.17264   0.18509   0.19907   0.21273

 Mulliken charges:
               1
     1  O   -0.474775
     2  C    0.382005
     3  C   -0.328758
     4  C    0.159342
     5  O   -0.248027
     6  C   -0.296990
     7  C   -0.057780
     8  C   -0.057622
     9  C   -0.324124
    10  H    0.276643
    11  H    0.106448
    12  H    0.128449
    13  H    0.089383
    14  H    0.125472
    15  H    0.118079
    16  H    0.097406
    17  H    0.095704
    18  H    0.111311
    19  H    0.097831
 Sum of Mulliken charges =   0.00000

 Dipole moment (field-independent basis, Debye):
    X=              2.2086    Y=              1.8814    Z=             -1.1092  Tot=              3.1061
 Quadrupole moment (field-independent basis, Debye-Ang):
   XX=            -60.6677   YY=            -50.9272   ZZ=            -53.4653
   XY=             -6.2280   XZ=             -1.0955   YZ=             -4.0466

  Exact polarizability:  82.711   0.509  76.574  -6.988  -5.380  69.698
 Approx polarizability: 110.453   9.503 120.719 -11.977 -10.379 111.735

                      1                      2                      3
                      A                      A                      A
 Frequencies --     42.4993                56.8646               113.4978
 Red. masses --      4.2904                 3.1441                 2.8216
 Frc consts  --      0.0046                 0.0060                 0.0214
 IR Inten    --      6.7160                 0.3118                 2.2788

                      4                      5                      6
                      A                      A                      A
 Frequencies --    192.9653               298.4793               331.4164
 Red. masses --      2.9218                 1.9437                 1.6536
 Frc consts  --      0.0641                 0.1020                 0.1070
 IR Inten    --      3.4755                18.7604                74.1811

                      7                      8                      9
                      A                      A                      A
 Frequencies --    344.6988               392.6981               404.1710
 Red. masses --      2.1859                 1.8399                 3.7363
 Frc consts  --      0.1530                 0.1672                 0.3596
 IR Inten    --      9.2636                11.0000                 4.5194

                     10                     11                     12
                      A                      A                      A
 Frequencies --    465.8818               509.6935               618.4049
 Red. masses --      3.1644                 2.8605                 2.9240
 Frc consts  --      0.4047                 0.4378                 0.6588
 IR Inten    --      3.6745                17.3009                 0.1442

                     13                     14                     15
                      A                      A                      A
 Frequencies --    695.5671               769.8033               778.9831
 Red. masses --      1.2971                 2.4250                 4.6772
 Frc consts  --      0.3697                 0.8467                 1.6722
 IR Inten    --     28.1332                 8.5822                 1.0548

                     16                     17                     18
                      A                      A                      A
 Frequencies --    836.0642               906.9289               947.8422
 Red. masses --      2.1283                 1.9451                 1.6183
 Frc consts  --      0.8765                 0.9426                 0.8566
 IR Inten    --      2.4412                 8.2318                 1.9533

                     19                     20                     21
                      A                      A                      A
 Frequencies --    957.3822               979.9513               987.7414
 Red. masses --      1.8646                 1.3436                 1.9972
 Frc consts  --      1.0069                 0.7602                 1.1481
 IR Inten    --     19.7718                 2.3768                10.2981

                     22                     23                     24
                      A                      A                      A
 Frequencies --    990.6369              1033.6985              1090.2369
 Red. masses --      2.8171                 3.1516                 1.9111
 Frc consts  --      1.6288                 1.9842                 1.3384
 IR Inten    --      3.1211                17.4745                 5.6643

                     25                     26                     27
                      A                      A                      A
 Frequencies --   1101.6480              1122.1773              1137.7067
 Red. masses --      1.8963                 1.8318                 1.3528
 Frc consts  --      1.3559                 1.3591                 1.0317
 IR Inten    --     38.2067                33.0462                22.6087

                     28                     29                     30
                      A                      A                      A
 Frequencies --   1171.0525              1209.9158              1271.0058
 Red. masses --      1.1464                 1.2444                 1.7077
 Frc consts  --      0.9263                 1.0733                 1.6253
 IR Inten    --      1.8758                10.3799                31.1555

                     31                     32                     33
                      A                      A                      A
 Frequencies --   1292.9983              1301.3441              1322.5979
 Red. masses --      1.5637                 1.6036                 1.4534
 Frc consts  --      1.5402                 1.6001                 1.4979
 IR Inten    --     19.5015                12.4831                23.5596

                     34                     35                     36
                      A                      A                      A
 Frequencies --   1361.4678              1398.2353              1422.3573
 Red. masses --      1.7772                 1.7658                 1.2102
 Frc consts  --      1.9409                 2.0340                 1.4425
 IR Inten    --      4.9932                12.9579                 8.1151

                     37                     38                     39
                      A                      A                      A
 Frequencies --   1454.1800              1476.8602              1485.1930
 Red. masses --      1.0924                 1.0842                 1.1028
 Frc consts  --      1.3610                 1.3933                 1.4332
 IR Inten    --      5.0210                 2.5363                 0.9865

                     40                     41                     42
                      A                      A                      A
 Frequencies --   1689.6108              1826.6963              2909.4040
 Red. masses --      6.0561                 9.9439                 1.0831
 Frc consts  --     10.1862                19.5497                 5.4015
 IR Inten    --      1.8519               157.2121                74.2741

                     43                     44                     45
                      A                      A                      A
 Frequencies --   2995.5733              3010.0855              3030.7872
 Red. masses --      1.0676                 1.0606                 1.0598
 Frc consts  --      5.6446                 5.6619                 5.7358
 IR Inten    --     11.4847                36.8083                18.9748

                     46                     47                     48
                      A                      A                      A
 Frequencies --   3046.3361              3064.8718              3096.1903
 Red. masses --      1.1009                 1.1025                 1.0931
 Frc consts  --      6.0194                 6.1018                 6.1738
 IR Inten    --     23.2256                14.8810                 9.8307

                     49                     50                     51
                      A                      A                      A
 Frequencies --   3184.8391              3209.6729              3800.0926
 Red. masses --      1.0846                 1.1040                 1.0660
 Frc consts  --      6.4816                 6.7010                 9.0697
 IR Inten    --      5.0867                23.2980                15.4391

 - Thermochemistry -
 -------------------
 Temperature   298.150 Kelvin.  Pressure   1.00000 Atm.
 Atom     1 has atomic number  8 and mass  15.99491

 Molecular mass:   126.06808 amu.
 Principal axes and moments of inertia in atomic units:
                           1         2         3
     Eigenvalues --   655.017451563.245931764.81183
           X            0.99970  -0.02305  -0.00823
           Y            0.02235   0.99680  -0.07679
           Z            0.00997   0.07658   0.99701
 This molecule is an asymmetric top.
 Rotational symmetry number  1.
 Warning -- assumption of classical behavior for rotation
           may cause significant error
 Rotational temperatures (Kelvin)      0.13223     0.05541     0.04908
 Rotational constants (GHZ):           2.75526     1.15448     1.02263
 Zero-point vibrational energy     413543.1 (Joules/Mol)
                                   98.83917 (Kcal/Mol)
 Warning -- explicit consideration of  12 degrees of freedom as
           vibrations may cause significant error
 Vibrational temperatures:     61.15    81.82   163.30   277.63   429.44
          (Kelvin)            476.83   495.94   565.00   581.51   670.30
                              733.33   889.75  1000.76  1107.57  1120.78
                             1202.91  1304.87  1363.73  1377.46  1409.93
                             1421.14  1425.30  1487.26  1568.61  1585.02
                             1614.56  1636.90  1684.88  1740.80  1828.69
                             1860.33  1872.34  1902.92  1958.85  2011.75
                             2046.45  2092.24  2124.87  2136.86  2430.97
                             2628.21  4185.98  4309.96  4330.84  4360.62
                             4382.99  4409.66  4454.72  4582.27  4618.00
                             5467.48

 Zero-point correction=                           0.157510 (Hartree/Particle)
 Thermal correction to Energy=                    0.166570
 Thermal correction to Enthalpy=                  0.167514
 Thermal correction to Gibbs Free Energy=         0.122692
 Sum of electronic and zero-point Energies=           -423.044046
 Sum of electronic and thermal Energies=              -423.034986
 Sum of electronic and thermal Enthalpies=            -423.034042
 Sum of electronic and thermal Free Energies=         -423.078864

                     E (Thermal)             CV                S
                      KCal/Mol        Cal/Mol-Kelvin    Cal/Mol-Kelvin
 Total                  104.524             33.503             94.337
 Electronic               0.000              0.000              0.000
 Translational            0.889              2.981             40.409
 Rotational               0.889              2.981             28.982
 Vibrational            102.747             27.541             24.947
 Vibration     1          0.595              1.980              5.139
 Vibration     2          0.596              1.975              4.563
 Vibration     3          0.607              1.938              3.208
 Vibration     4          0.635              1.850              2.199
 Vibration     5          0.692              1.677              1.425
 Vibration     6          0.714              1.613              1.253
 Vibration     7          0.723              1.586              1.190
 Vibration     8          0.760              1.486              0.990
 Vibration     9          0.769              1.461              0.947
 Vibration    10          0.823              1.326              0.749
 Vibration    11          0.865              1.229              0.634
 Vibration    12          0.978              0.993              0.419

 Normal termination of Gaussian 09 at Mon Jan 27 17:21:24 2020.
