 Gaussian 09, Revision D.01,
 Gaussian 09:  ES64L-G09RevD.01 24-Apr-2013

 -----------------------------
 # b3lyp 6-31G(2df,p) opt Freq
 -----------------------------

 -----
 titel
 -----
 Symbolic Z-matrix:
 Charge =  0 Multiplicity = 1

 SCF Done:  E(RB3LYP) =  -423.164280372     A.U. after   14 cycles
 Optimization completed.
    -- Stationary point found.
 Normal termination of Gaussian 09 at Mon Jan 27 16:28:02 2020.

 ----------------------------------------------------------------------
 #N Geom=AllCheck Guess=TCheck SCRF=Check GenChk RB3LYP/6-31G(2df,p) Fr
 eq
 ----------------------------------------------------------------------

 Structure from the checkpoint file:  "/scratch/puck/g09_13a3e900-eeb5-41a5-9457-aef01826930f/Gau-83760.chk"
 -----
 titel
 -----
 Charge =  0 Multiplicity = 1

                         Standard orientation:
 ---------------------------------------------------------------------
 Center     Atomic      Atomic             Coordinates (Angstroms)
 Number     Number       Type             X           Y           Z
 ---------------------------------------------------------------------
      1          6           0        1.342112    1.532530   -0.554047
      2          6           0        0.800435    0.328929    0.184149
      3          6           0        0.056695    0.520042    1.525241
      4          6           0       -0.704365    0.132398    0.321804
      5          6           0       -1.816458    0.834705   -0.449487
      6          6           0       -2.398162   -0.590157   -0.582940
      7          8           0       -1.315761   -1.149797    0.200914
      8          6           0        1.611441   -0.910882    0.088075
      9          8           0        2.628227   -1.000415   -0.558851
     10          1           0        1.471896    1.309966   -1.617128
     11          1           0        0.673932    2.393104   -0.457791
     12          1           0        2.322365    1.815890   -0.159249
     13          1           0        0.203125   -0.243787    2.283245
     14          1           0       -0.020387    1.534586    1.902855
     15          1           0       -2.418233    1.530256    0.138317
     16          1           0       -1.515151    1.312207   -1.382917
     17          1           0       -3.368183   -0.759880   -0.104829
     18          1           0       -2.414908   -1.000615   -1.598224
     19          1           0        1.215627   -1.775421    0.662440
 ---------------------------------------------------------------------

 SCF Done:  E(RB3LYP) =  -423.164280372     A.U. after    1 cycles

 The electronic state is 1-A.
 Alpha  occ. eigenvalues --  -19.14861 -19.12651 -10.26005 -10.25957 -10.24445
 Alpha  occ. eigenvalues --  -10.20651 -10.20530 -10.20118 -10.18392  -1.05740
 Alpha  occ. eigenvalues --   -1.03357  -0.87381  -0.75722  -0.72392  -0.65764
 Alpha  occ. eigenvalues --   -0.64503  -0.57116  -0.52251  -0.51001  -0.49622
 Alpha  occ. eigenvalues --   -0.49121  -0.44036  -0.42806  -0.42064  -0.40911
 Alpha  occ. eigenvalues --   -0.38782  -0.38374  -0.37885  -0.37202  -0.34806
 Alpha  occ. eigenvalues --   -0.32445  -0.28887  -0.25208  -0.23350
 Alpha virt. eigenvalues --   -0.01334   0.06850   0.08929   0.09393   0.10438
 Alpha virt. eigenvalues --    0.12907   0.14076   0.14433   0.14703   0.15476
 Alpha virt. eigenvalues --    0.16341   0.18359   0.19542   0.20365   0.23135

 Mulliken charges:
               1
     1  C   -0.465350
     2  C    0.132095
     3  C   -0.407759
     4  C    0.424977
     5  C   -0.357756
     6  C   -0.074439
     7  O   -0.301511
     8  C    0.125052
     9  O   -0.274473
    10  H    0.135282
    11  H    0.109610
    12  H    0.135020
    13  H    0.133149
    14  H    0.126702
    15  H    0.121347
    16  H    0.125305
    17  H    0.114298
    18  H    0.115506
    19  H    0.082947
 Sum of Mulliken charges =   0.00000

 Dipole moment (field-independent basis, Debye):
    X=             -3.1625    Y=              2.3394    Z=              0.6228  Tot=              3.9827
 Quadrupole moment (field-independent basis, Debye-Ang):
   XX=            -58.1221   YY=            -54.1608   ZZ=            -51.3977
   XY=              1.7704   XZ=              4.5799   YZ=             -0.3728

  Exact polarizability:  90.861  -0.464  71.831  -2.515   0.523  69.711
 Approx polarizability: 126.680  -3.695 103.952 -10.477   2.412 106.717

                      1                      2                      3
                      A                      A                      A
 Frequencies --     74.5027               106.1955               152.6814
 Red. masses --      3.4012                 2.7599                 1.5519
 Frc consts  --      0.0111                 0.0183                 0.0213
 IR Inten    --      1.1337                 1.9721                 0.6019

                      4                      5                      6
                      A                      A                      A
 Frequencies --    164.6277               178.7413               252.2683
 Red. masses --      2.0431                 2.4544                 2.9044
 Frc consts  --      0.0326                 0.0462                 0.1089
 IR Inten    --      1.7130                 3.4429                 4.4960

                      7                      8                      9
                      A                      A                      A
 Frequencies --    296.1426               387.8387               398.8839
 Red. masses --      2.9756                 2.7042                 2.4359
 Frc consts  --      0.1538                 0.2397                 0.2283
 IR Inten    --      3.4209                 3.8553                 1.4598

                     10                     11                     12
                      A                      A                      A
 Frequencies --    467.8246               525.2711               602.8252
 Red. masses --      2.8381                 3.9887                 4.0533
 Frc consts  --      0.3660                 0.6484                 0.8678
 IR Inten    --      4.1369                 2.1192                 6.4215

                     13                     14                     15
                      A                      A                      A
 Frequencies --    765.7305               790.8046               833.9867
 Red. masses --      2.5177                 1.4440                 2.4329
 Frc consts  --      0.8698                 0.5321                 0.9970
 IR Inten    --      6.0914                 3.8107                30.0172

                     16                     17                     18
                      A                      A                      A
 Frequencies --    870.1837               887.4046               911.6857
 Red. masses --      2.7044                 2.0822                 1.3733
 Frc consts  --      1.2065                 0.9661                 0.6725
 IR Inten    --     26.7728                17.7950                20.6057

                     19                     20                     21
                      A                      A                      A
 Frequencies --    957.7041               987.0664              1017.8747
 Red. masses --      2.2936                 2.3443                 4.7041
 Frc consts  --      1.2394                 1.3457                 2.8715
 IR Inten    --     36.4298                17.9616               100.7846

                     22                     23                     24
                      A                      A                      A
 Frequencies --   1024.4457              1045.6882              1093.8221
 Red. masses --      1.6934                 1.3970                 1.9749
 Frc consts  --      1.0471                 0.9000                 1.3921
 IR Inten    --      2.8543                 4.7238                34.9005

                     25                     26                     27
                      A                      A                      A
 Frequencies --   1108.7425              1161.5565              1172.7082
 Red. masses --      1.7492                 1.3230                 2.7157
 Frc consts  --      1.2669                 1.0517                 2.2005
 IR Inten    --      1.1235                 9.5788                12.0077

                     28                     29                     30
                      A                      A                      A
 Frequencies --   1176.3159              1214.7327              1252.3500
 Red. masses --      2.3770                 1.1995                 1.4775
 Frc consts  --      1.9379                 1.0428                 1.3653
 IR Inten    --     27.7421                 0.9970                 0.9102

                     31                     32                     33
                      A                      A                      A
 Frequencies --   1320.7417              1359.1555              1385.8441
 Red. masses --      2.7166                 1.7267                 1.9247
 Frc consts  --      2.7919                 1.8793                 2.1779
 IR Inten    --     12.7198                13.0587                27.3896

                     34                     35                     36
                      A                      A                      A
 Frequencies --   1413.6339              1443.7816              1470.8523
 Red. masses --      1.2545                 1.2407                 1.4408
 Frc consts  --      1.4771                 1.5237                 1.8365
 IR Inten    --      0.8542                 2.8065                24.6501

                     37                     38                     39
                      A                      A                      A
 Frequencies --   1483.9622              1489.0543              1498.2178
 Red. masses --      1.0483                 1.1556                 1.1174
 Frc consts  --      1.3601                 1.5096                 1.4778
 IR Inten    --      5.6304                 5.7261                14.0390

                     40                     41                     42
                      A                      A                      A
 Frequencies --   1532.5871              1805.1332              2906.4241
 Red. masses --      1.1700                10.0850                 1.0836
 Frc consts  --      1.6192                19.3618                 5.3929
 IR Inten    --      0.3131               242.0035                72.3834

                     43                     44                     45
                      A                      A                      A
 Frequencies --   3036.5644              3041.8827              3079.3773
 Red. masses --      1.0554                 1.0349                 1.0676
 Frc consts  --      5.7335                 5.6421                 5.9647
 IR Inten    --     76.1619                15.8529                19.0798

                     46                     47                     48
                      A                      A                      A
 Frequencies --   3083.3528              3110.6774              3115.2892
 Red. masses --      1.1032                 1.1011                 1.1003
 Frc consts  --      6.1797                 6.2775                 6.2918
 IR Inten    --     27.4820                15.8918                12.9776

                     49                     50                     51
                      A                      A                      A
 Frequencies --   3122.0361              3135.6018              3213.0967
 Red. masses --      1.0553                 1.1085                 1.1170
 Frc consts  --      6.0605                 6.4212                 6.7944
 IR Inten    --      9.2087                16.3260                 2.2187

 - Thermochemistry -
 -------------------
 Temperature   298.150 Kelvin.  Pressure   1.00000 Atm.
 Atom     1 has atomic number  6 and mass  12.00000

 Molecular mass:   126.06808 amu.
 Principal axes and moments of inertia in atomic units:
                           1         2         3
     Eigenvalues --   630.304651465.880741652.76117
           X            0.99970   0.02029   0.01370
           Y           -0.01971   0.99894  -0.04150
           Z           -0.01453   0.04122   0.99904
 This molecule is an asymmetric top.
 Rotational symmetry number  1.
 Warning -- assumption of classical behavior for rotation
           may cause significant error
 Rotational temperatures (Kelvin)      0.13742     0.05909     0.05241
 Rotational constants (GHZ):           2.86328     1.23117     1.09196
 Zero-point vibrational energy     412280.2 (Joules/Mol)
                                   98.53734 (Kcal/Mol)
 Warning -- explicit consideration of  12 degrees of freedom as
           vibrations may cause significant error
 Vibrational temperatures:    107.19   152.79   219.67   236.86   257.17
          (Kelvin)            362.96   426.08   558.01   573.90   673.09
                              755.75   867.33  1101.71  1137.79  1199.92
                             1252.00  1276.78  1311.71  1377.92  1420.17
                             1464.49  1473.95  1504.51  1573.76  1595.23
                             1671.22  1687.26  1692.45  1747.73  1801.85
                             1900.25  1955.52  1993.92  2033.90  2077.28
                             2116.23  2135.09  2142.41  2155.60  2205.05
                             2597.18  4181.69  4368.93  4376.59  4430.53
                             4436.25  4475.57  4482.20  4491.91  4511.43
                             4622.92

 Zero-point correction=                           0.157029 (Hartree/Particle)
 Thermal correction to Energy=                    0.166166
 Thermal correction to Enthalpy=                  0.167110
 Thermal correction to Gibbs Free Energy=         0.122918
 Sum of electronic and zero-point Energies=           -423.007251
 Sum of electronic and thermal Energies=              -422.998115
 Sum of electronic and thermal Enthalpies=            -422.997170
 Sum of electronic and thermal Free Energies=         -423.041362

                     E (Thermal)             CV                S
                      KCal/Mol        Cal/Mol-Kelvin    Cal/Mol-Kelvin
 Total                  104.271             33.421             93.009
 Electronic               0.000              0.000              0.000
 Translational            0.889              2.981             40.409
 Rotational               0.889              2.981             28.814
 Vibrational            102.493             27.459             23.786
 Vibration     1          0.599              1.966              4.031
 Vibration     2          0.605              1.944              3.337
 Vibration     3          0.619              1.900              2.639
 Vibration     4          0.623              1.886              2.496
 Vibration     5          0.629              1.868              2.342
 Vibration     6          0.664              1.759              1.715
 Vibration     7          0.690              1.681              1.439
 Vibration     8          0.756              1.496              1.008
 Vibration     9          0.765              1.473              0.967
 Vibration    10          0.825              1.321              0.744
 Vibration    11          0.880              1.194              0.598
 Vibration    12          0.961              1.026              0.445

 Optimization completed.
    -- Stationary point found.
 Normal termination of Gaussian 09 at Mon Jan 27 17:11:04 2020.
