 Gaussian 09, Revision D.01,
 Gaussian 09:  ES64L-G09RevD.01 24-Apr-2013

 -----------------------------
 # b3lyp 6-31G(2df,p) opt Freq
 -----------------------------

 -----
 titel
 -----
 Symbolic Z-matrix:
 Charge =  0 Multiplicity = 1

 SCF Done:  E(RB3LYP) =  -423.154518372     A.U. after   14 cycles
 Optimization completed.
    -- Stationary point found.
 Normal termination of Gaussian 09 at Mon Jan 27 23:01:16 2020.

 ----------------------------------------------------------------------
 #N Geom=AllCheck Guess=TCheck SCRF=Check GenChk RB3LYP/6-31G(2df,p) Fr
 eq
 ----------------------------------------------------------------------

 Structure from the checkpoint file:  "/scratch/puck/g09_ac6254eb-ae2d-4857-a52c-6cfd0d6f5259/Gau-65449.chk"
 -----
 titel
 -----
 Charge =  0 Multiplicity = 1

                         Standard orientation:
 ---------------------------------------------------------------------
 Center     Atomic      Atomic             Coordinates (Angstroms)
 Number     Number       Type             X           Y           Z
 ---------------------------------------------------------------------
      1          6           0       -2.944697   -0.137050   -0.224960
      2          6           0       -1.483577    0.100665   -0.059664
      3          6           0       -0.715221    1.161794   -0.339783
      4          6           0        0.693357    0.681241    0.029766
      5          8           0        1.817119    1.463827   -0.230033
      6          6           0        0.421245   -0.039031    1.396703
      7          6           0       -0.466882   -0.926793    0.463388
      8          6           0        0.656070   -0.742134   -0.621749
      9          8           0        1.795764   -1.532747   -0.402738
     10          1           0       -3.420589   -0.387278    0.731958
     11          1           0       -3.448306    0.743018   -0.635072
     12          1           0       -3.137345   -0.983027   -0.897132
     13          1           0       -0.971082    2.115741   -0.780962
     14          1           0        1.835125    2.198411    0.392187
     15          1           0        1.295672   -0.568364    1.777750
     16          1           0       -0.087625    0.534598    2.174868
     17          1           0       -0.814872   -1.915022    0.758663
     18          1           0        0.324347   -0.778325   -1.667956
     19          1           0        2.559843   -1.000537   -0.654330
 ---------------------------------------------------------------------

 SCF Done:  E(RB3LYP) =  -423.154518372     A.U. after    1 cycles

 The electronic state is 1-A.
 Alpha  occ. eigenvalues --  -19.14767 -19.13329 -10.23806 -10.22774 -10.19080
 Alpha  occ. eigenvalues --  -10.18598 -10.18386 -10.17676 -10.16936  -1.03674
 Alpha  occ. eigenvalues --   -1.01453  -0.88390  -0.75429  -0.69081  -0.65253
 Alpha  occ. eigenvalues --   -0.64349  -0.56053  -0.52498  -0.51176  -0.48715
 Alpha  occ. eigenvalues --   -0.47450  -0.43051  -0.41926  -0.41170  -0.39587
 Alpha  occ. eigenvalues --   -0.38155  -0.37708  -0.34418  -0.34039  -0.32372
 Alpha  occ. eigenvalues --   -0.30008  -0.27053  -0.25940  -0.21965
 Alpha virt. eigenvalues --    0.01858   0.06852   0.10577   0.11430   0.12927
 Alpha virt. eigenvalues --    0.14486   0.14756   0.15675   0.15973   0.17971
 Alpha virt. eigenvalues --    0.18246   0.19406   0.20234   0.21424   0.23472

 Mulliken charges:
               1
     1  C   -0.516215
     2  C    0.354967
     3  C   -0.300204
     4  C    0.328236
     5  O   -0.497652
     6  C   -0.286006
     7  C   -0.155269
     8  C    0.149138
     9  O   -0.456982
    10  H    0.127376
    11  H    0.125039
    12  H    0.130076
    13  H    0.096924
    14  H    0.283241
    15  H    0.108887
    16  H    0.083305
    17  H    0.070215
    18  H    0.063184
    19  H    0.291739
 Sum of Mulliken charges =   0.00000

 Dipole moment (field-independent basis, Debye):
    X=             -0.7911    Y=              1.5276    Z=              0.6026  Tot=              1.8228
 Quadrupole moment (field-independent basis, Debye-Ang):
   XX=            -50.5315   YY=            -52.5938   ZZ=            -53.0329
   XY=              3.1295   XZ=              1.1442   YZ=              1.6158

  Exact polarizability:  90.231   3.764  75.530   1.293  -1.895  64.691
 Approx polarizability: 124.214  11.019 121.444  -1.710  -5.030  98.685

                      1                      2                      3
                      A                      A                      A
 Frequencies --    143.5675               159.7463               176.0296
 Red. masses --      1.7970                 2.4097                 1.0733
 Frc consts  --      0.0218                 0.0362                 0.0196
 IR Inten    --     47.8886                 9.4721                 1.0200

                      4                      5                      6
                      A                      A                      A
 Frequencies --    212.3854               252.2127               284.8113
 Red. masses --      1.3693                 3.0179                 3.3427
 Frc consts  --      0.0364                 0.1131                 0.1598
 IR Inten    --     60.5466                13.4168                20.9457

                      7                      8                      9
                      A                      A                      A
 Frequencies --    305.4271               408.0550               440.1619
 Red. masses --      1.5741                 3.5396                 2.7618
 Frc consts  --      0.0865                 0.3473                 0.3153
 IR Inten    --     40.1390                17.3010                 5.7181

                     10                     11                     12
                      A                      A                      A
 Frequencies --    498.6985               522.4428               569.0241
 Red. masses --      3.4115                 3.6050                 2.7928
 Frc consts  --      0.4999                 0.5797                 0.5328
 IR Inten    --      8.2612                 0.4193                 5.5279

                     13                     14                     15
                      A                      A                      A
 Frequencies --    621.0607               668.4287               773.1821
 Red. masses --      3.7799                 3.5435                 1.5996
 Frc consts  --      0.8590                 0.9328                 0.5634
 IR Inten    --      9.2903                 2.7515                17.5058

                     16                     17                     18
                      A                      A                      A
 Frequencies --    794.4772               861.8379               888.7556
 Red. masses --      2.3199                 3.1957                 2.4936
 Frc consts  --      0.8627                 1.3985                 1.1605
 IR Inten    --      5.6355                 3.2660                10.3080

                     19                     20                     21
                      A                      A                      A
 Frequencies --    946.2416               965.7726              1000.2014
 Red. masses --      2.7227                 2.2917                 1.5795
 Frc consts  --      1.4363                 1.2594                 0.9310
 IR Inten    --     14.1202                 2.6309                 2.6176

                     22                     23                     24
                      A                      A                      A
 Frequencies --   1016.6384              1056.6174              1079.2672
 Red. masses --      2.1560                 1.6079                 1.9487
 Frc consts  --      1.3129                 1.0576                 1.3374
 IR Inten    --      6.6738                12.2722                10.9576

                     25                     26                     27
                      A                      A                      A
 Frequencies --   1092.6389              1110.5890              1135.9676
 Red. masses --      1.5942                 1.9316                 2.0274
 Frc consts  --      1.1213                 1.4037                 1.5414
 IR Inten    --     14.8376               102.0114                47.7188

                     28                     29                     30
                      A                      A                      A
 Frequencies --   1160.3668              1199.5544              1207.2646
 Red. masses --      1.6499                 1.4152                 1.6798
 Frc consts  --      1.3089                 1.1998                 1.4425
 IR Inten    --      7.1201                13.5894                35.8775

                     31                     32                     33
                      A                      A                      A
 Frequencies --   1229.6762              1278.5595              1295.2726
 Red. masses --      1.5420                 2.7025                 1.8919
 Frc consts  --      1.3738                 2.6029                 1.8702
 IR Inten    --      4.8330                91.1269                52.8304

                     34                     35                     36
                      A                      A                      A
 Frequencies --   1336.0312              1363.3068              1385.5328
 Red. masses --      1.3497                 2.2431                 1.4037
 Frc consts  --      1.4194                 2.4563                 1.5877
 IR Inten    --     48.5137                46.0093                 0.8946

                     37                     38                     39
                      A                      A                      A
 Frequencies --   1413.1311              1477.3485              1482.5663
 Red. masses --      1.2806                 1.0446                 1.1471
 Frc consts  --      1.5067                 1.3433                 1.4855
 IR Inten    --      0.5135                 5.6270                 5.5375

                     40                     41                     42
                      A                      A                      A
 Frequencies --   1486.6631              1686.8234              3014.9074
 Red. masses --      1.0750                 7.0004                 1.0379
 Frc consts  --      1.3998                11.7358                 5.5582
 IR Inten    --     10.4180                 9.6988                31.7188

                     43                     44                     45
                      A                      A                      A
 Frequencies --   3018.5496              3060.0290              3067.3831
 Red. masses --      1.0857                 1.0985                 1.0566
 Frc consts  --      5.8284                 6.0602                 5.8571
 IR Inten    --     66.8946                16.1087                35.9679

                     46                     47                     48
                      A                      A                      A
 Frequencies --   3106.7954              3136.1620              3143.9795
 Red. masses --      1.0990                 1.0914                 1.1086
 Frc consts  --      6.2499                 6.3245                 6.4561
 IR Inten    --     18.1826                25.1249                23.6485

                     49                     50                     51
                      A                      A                      A
 Frequencies --   3220.6921              3791.2243              3812.8468
 Red. masses --      1.0978                 1.0658                 1.0659
 Frc consts  --      6.7092                 9.0258                 9.1303
 IR Inten    --      6.6076                37.5729                28.7140

 - Thermochemistry -
 -------------------
 Temperature   298.150 Kelvin.  Pressure   1.00000 Atm.
 Atom     1 has atomic number  6 and mass  12.00000

 Molecular mass:   126.06808 amu.
 Principal axes and moments of inertia in atomic units:
                           1         2         3
     Eigenvalues --   636.468281263.957441540.77884
           X            0.99987   0.01011   0.01253
           Y           -0.01012   0.99995   0.00016
           Z           -0.01253  -0.00028   0.99992
 This molecule is an asymmetric top.
 Rotational symmetry number  1.
 Warning -- assumption of classical behavior for rotation
           may cause significant error
 Rotational temperatures (Kelvin)      0.13609     0.06853     0.05621
 Rotational constants (GHZ):           2.83556     1.42785     1.17132
 Zero-point vibrational energy     414858.4 (Joules/Mol)
                                   99.15353 (Kcal/Mol)
 Warning -- explicit consideration of  12 degrees of freedom as
           vibrations may cause significant error
 Vibrational temperatures:    206.56   229.84   253.27   305.57   362.88
          (Kelvin)            409.78   439.44   587.10   633.29   717.52
                              751.68   818.70   893.57   961.72  1112.44
                             1143.07  1239.99  1278.72  1361.43  1389.53
                             1439.06  1462.71  1520.23  1552.82  1572.06
                             1597.89  1634.40  1669.51  1725.89  1736.98
                             1769.23  1839.56  1863.61  1922.25  1961.49
                             1993.47  2033.18  2125.57  2133.08  2138.97
                             2426.96  4337.77  4343.01  4402.69  4413.27
                             4469.98  4512.23  4523.48  4633.85  5454.72
                             5485.83

 Zero-point correction=                           0.158011 (Hartree/Particle)
 Thermal correction to Energy=                    0.166776
 Thermal correction to Enthalpy=                  0.167720
 Thermal correction to Gibbs Free Energy=         0.125224
 Sum of electronic and zero-point Energies=           -422.996507
 Sum of electronic and thermal Energies=              -422.987742
 Sum of electronic and thermal Enthalpies=            -422.986798
 Sum of electronic and thermal Free Energies=         -423.029294

                     E (Thermal)             CV                S
                      KCal/Mol        Cal/Mol-Kelvin    Cal/Mol-Kelvin
 Total                  104.653             34.165             89.440
 Electronic               0.000              0.000              0.000
 Translational            0.889              2.981             40.409
 Rotational               0.889              2.981             28.607
 Vibrational            102.876             28.203             20.424
 Vibration     1          0.616              1.910              2.756
 Vibration     2          0.622              1.892              2.553
 Vibration     3          0.628              1.872              2.370
 Vibration     4          0.643              1.822              2.023
 Vibration     5          0.664              1.759              1.715
 Vibration     6          0.683              1.702              1.505
 Vibration     7          0.696              1.663              1.387
 Vibration     8          0.773              1.453              0.934
 Vibration     9          0.800              1.383              0.826
 Vibration    10          0.854              1.253              0.661
 Vibration    11          0.877              1.200              0.604
 Vibration    12          0.925              1.098              0.506

 Normal termination of Gaussian 09 at Mon Jan 27 23:45:17 2020.
