 Gaussian 09, Revision D.01,
 Gaussian 09:  ES64L-G09RevD.01 24-Apr-2013

 -----------------------------
 # b3lyp 6-31G(2df,p) opt Freq
 -----------------------------

 -----
 titel
 -----
 Symbolic Z-matrix:
 Charge =  0 Multiplicity = 1

 SCF Done:  E(RB3LYP) =  -423.158910344     A.U. after   14 cycles
 SCF Done:  E(RB3LYP) =  -423.158909815     A.U. after    7 cycles
 Optimization completed.
    -- Stationary point found.
 Normal termination of Gaussian 09 at Tue Jan 28 12:13:01 2020.

 ----------------------------------------------------------------------
 #N Geom=AllCheck Guess=TCheck SCRF=Check GenChk RB3LYP/6-31G(2df,p) Fr
 eq
 ----------------------------------------------------------------------

 Structure from the checkpoint file:  "/scratch/puck/g09_b20463df-5b0e-4812-b178-b1dbf6cdda1c/Gau-26072.chk"
 -----
 titel
 -----
 Charge =  0 Multiplicity = 1

                         Standard orientation:
 ---------------------------------------------------------------------
 Center     Atomic      Atomic             Coordinates (Angstroms)
 Number     Number       Type             X           Y           Z
 ---------------------------------------------------------------------
      1          6           0       -0.657283    2.563476    0.350468
      2          6           0       -0.668603    1.179869   -0.336366
      3          6           0       -1.707569    0.235959    0.309918
      4          6           0       -1.873604   -1.094393   -0.428001
      5          8           0       -2.884112   -1.906322    0.146097
      6          6           0        0.672584    0.601436   -0.318370
      7          6           0        1.783122    0.126176   -0.265154
      8          6           0        3.114189   -0.421207   -0.236942
      9          8           0        3.500429   -1.247068    0.558983
     10          1           0       -0.389263    2.467688    1.406476
     11          1           0        0.063203    3.233107   -0.125605
     12          1           0       -1.650495    3.016827    0.285262
     13          1           0       -0.952149    1.330391   -1.388216
     14          1           0       -1.415153    0.045272    1.350689
     15          1           0       -2.676573    0.746563    0.335211
     16          1           0       -2.193485   -0.908694   -1.460037
     17          1           0       -0.909935   -1.622200   -0.477154
     18          1           0       -2.569147   -2.206963    1.004433
     19          1           0        3.785447   -0.022764   -1.025026
 ---------------------------------------------------------------------

 SCF Done:  E(RB3LYP) =  -423.158909815     A.U. after    1 cycles

 The electronic state is 1-A.
 Alpha  occ. eigenvalues --  -19.14334 -19.13851 -10.28919 -10.23274 -10.23228
 Alpha  occ. eigenvalues --  -10.21215 -10.19817 -10.19704 -10.19324  -1.04898
 Alpha  occ. eigenvalues --   -1.01976  -0.84068  -0.76852  -0.73457  -0.67326
 Alpha  occ. eigenvalues --   -0.64198  -0.61199  -0.52295  -0.51161  -0.49930
 Alpha  occ. eigenvalues --   -0.46352  -0.44717  -0.44342  -0.42002  -0.40243
 Alpha  occ. eigenvalues --   -0.39844  -0.38555  -0.37920  -0.36315  -0.32728
 Alpha  occ. eigenvalues --   -0.29045  -0.28367  -0.26754  -0.26615
 Alpha virt. eigenvalues --   -0.06168   0.02852   0.07380   0.07977   0.10386
 Alpha virt. eigenvalues --    0.11269   0.13171   0.13458   0.13648   0.15577
 Alpha virt. eigenvalues --    0.16974   0.17129   0.19281   0.21274   0.21754

 Mulliken charges:
               1
     1  C   -0.392303
     2  C   -0.160247
     3  C   -0.192977
     4  C   -0.071966
     5  O   -0.415435
     6  C    0.157578
     7  C   -0.036211
     8  C    0.022618
     9  O   -0.230791
    10  H    0.134670
    11  H    0.130738
    12  H    0.125080
    13  H    0.116572
    14  H    0.102090
    15  H    0.110312
    16  H    0.110279
    17  H    0.107541
    18  H    0.284581
    19  H    0.097872
 Sum of Mulliken charges =   0.00000

 Dipole moment (field-independent basis, Debye):
    X=             -1.3496    Y=              2.6381    Z=             -0.6088  Tot=              3.0252
 Quadrupole moment (field-independent basis, Debye-Ang):
   XX=            -64.8510   YY=            -54.1124   ZZ=            -51.1561
   XY=              1.4096   XZ=             -6.3420   YZ=             -1.2130

  Exact polarizability: 109.603 -14.172  79.362  -0.364  -4.362  63.001
 Approx polarizability: 159.699 -32.780 113.035   7.845 -13.777  98.497

                      1                      2                      3
                      A                      A                      A
 Frequencies --     18.7854                56.7542                82.6200
 Red. masses --      3.9901                 4.9817                 1.8315
 Frc consts  --      0.0008                 0.0095                 0.0074
 IR Inten    --      8.5727                 1.5839                 3.5667

                      4                      5                      6
                      A                      A                      A
 Frequencies --    114.6053               127.0717               174.9212
 Red. masses --      4.0762                 2.7076                 3.1099
 Frc consts  --      0.0315                 0.0258                 0.0561
 IR Inten    --      2.8777                 4.3031                 1.3217

                      7                      8                      9
                      A                      A                      A
 Frequencies --    227.5016               241.2449               281.3969
 Red. masses --      1.5935                 2.1810                 3.0528
 Frc consts  --      0.0486                 0.0748                 0.1424
 IR Inten    --      1.0556                 1.0356                 2.1487

                     10                     11                     12
                      A                      A                      A
 Frequencies --    300.3053               372.2912               381.9894
 Red. masses --      1.1071                 4.1249                 5.9084
 Frc consts  --      0.0588                 0.3368                 0.5079
 IR Inten    --     98.8288                 3.8700                 5.0402

                     13                     14                     15
                      A                      A                      A
 Frequencies --    507.1881               575.9984               607.4408
 Red. masses --      3.7215                 4.6351                 3.8064
 Frc consts  --      0.5640                 0.9061                 0.8275
 IR Inten    --      2.5741                 2.4227                 1.0520

                     16                     17                     18
                      A                      A                      A
 Frequencies --    765.5824               804.9017               911.4012
 Red. masses --      2.5381                 1.4316                 1.9748
 Frc consts  --      0.8765                 0.5465                 0.9665
 IR Inten    --     42.1531                 5.3307                28.1296

                     19                     20                     21
                      A                      A                      A
 Frequencies --    981.3903               988.8968              1022.4924
 Red. masses --      1.6061                 2.8124                 1.7698
 Frc consts  --      0.9114                 1.6204                 1.0901
 IR Inten    --      1.9572                43.0926                 0.9300

                     22                     23                     24
                      A                      A                      A
 Frequencies --   1071.4941              1078.3894              1087.6672
 Red. masses --      2.3542                 3.4167                 1.9716
 Frc consts  --      1.5925                 2.3410                 1.3742
 IR Inten    --     15.0228               108.5115                 5.0384

                     25                     26                     27
                      A                      A                      A
 Frequencies --   1109.1531              1173.8369              1182.6024
 Red. masses --      2.1479                 1.6756                 1.7554
 Frc consts  --      1.5569                 1.3603                 1.4464
 IR Inten    --      3.1458                38.0286                 7.9835

                     28                     29                     30
                      A                      A                      A
 Frequencies --   1284.6542              1310.7175              1335.4598
 Red. masses --      1.2225                 1.2613                 1.3997
 Frc consts  --      1.1887                 1.2767                 1.4708
 IR Inten    --      0.4174                13.6030                 2.1083

                     31                     32                     33
                      A                      A                      A
 Frequencies --   1358.7884              1399.6996              1410.0324
 Red. masses --      1.3754                 1.2526                 1.2061
 Frc consts  --      1.4961                 1.4458                 1.4129
 IR Inten    --     28.7742                 6.3117                17.2642

                     34                     35                     36
                      A                      A                      A
 Frequencies --   1423.2158              1423.9440              1481.2506
 Red. masses --      1.1944                 1.2885                 1.0818
 Frc consts  --      1.4254                 1.5393                 1.3985
 IR Inten    --     17.8450                26.8437                 0.8169

                     37                     38                     39
                      A                      A                      A
 Frequencies --   1492.5879              1500.1903              1512.5483
 Red. masses --      1.0435                 1.0550                 1.0923
 Frc consts  --      1.3697                 1.3989                 1.4724
 IR Inten    --      6.5383                 1.0929                 0.5322

                     40                     41                     42
                      A                      A                      A
 Frequencies --   1765.6252              2321.4741              2916.6147
 Red. masses --     10.5389                11.9263                 1.0815
 Frc consts  --     19.3572                37.8690                 5.4206
 IR Inten    --    244.2389               178.1507               103.3687

                     43                     44                     45
                      A                      A                      A
 Frequencies --   3000.0995              3002.5740              3026.6116
 Red. masses --      1.0672                 1.0774                 1.0629
 Frc consts  --      5.6591                 5.7227                 5.7369
 IR Inten    --     33.0992                10.0768                24.3426

                     46                     47                     48
                      A                      A                      A
 Frequencies --   3045.0864              3057.9272              3084.3968
 Red. masses --      1.0343                 1.0940                 1.1044
 Frc consts  --      5.6507                 6.0274                 6.1903
 IR Inten    --     22.9728                14.8694                42.1591

                     49                     50                     51
                      A                      A                      A
 Frequencies --   3121.2938              3126.1858              3817.5958
 Red. masses --      1.1026                 1.1028                 1.0663
 Frc consts  --      6.3293                 6.3502                 9.1557
 IR Inten    --     22.6402                19.3420                19.1108

 - Thermochemistry -
 -------------------
 Temperature   298.150 Kelvin.  Pressure   1.00000 Atm.
 Atom     1 has atomic number  6 and mass  12.00000

 Molecular mass:   126.06808 amu.
 Principal axes and moments of inertia in atomic units:
                           1         2         3
     Eigenvalues --   932.798232287.408863044.34706
           X            0.99996  -0.00098  -0.00894
           Y            0.00107   0.99994   0.01073
           Z            0.00893  -0.01074   0.99990
 This molecule is an asymmetric top.
 Rotational symmetry number  1.
 Warning -- assumption of classical behavior for rotation
           may cause significant error
 Rotational temperatures (Kelvin)      0.09285     0.03787     0.02845
 Rotational constants (GHZ):           1.93476     0.78899     0.59282
 Zero-point vibrational energy     409520.6 (Joules/Mol)
                                   97.87777 (Kcal/Mol)
 Warning -- explicit consideration of  15 degrees of freedom as
           vibrations may cause significant error
 Vibrational temperatures:     27.03    81.66   118.87   164.89   182.83
          (Kelvin)            251.67   327.32   347.10   404.87   432.07
                              535.64   549.60   729.73   828.73   873.97
                             1101.50  1158.07  1311.30  1412.00  1422.80
                             1471.14  1541.64  1551.56  1564.91  1595.82
                             1688.89  1701.50  1848.33  1885.83  1921.43
                             1954.99  2013.85  2028.72  2047.69  2048.74
                             2131.19  2147.50  2158.44  2176.22  2540.34
                             3340.08  4196.35  4316.47  4320.03  4354.61
                             4381.19  4399.67  4437.75  4490.84  4497.88
                             5492.66

 Zero-point correction=                           0.155978 (Hartree/Particle)
 Thermal correction to Energy=                    0.166951
 Thermal correction to Enthalpy=                  0.167895
 Thermal correction to Gibbs Free Energy=         0.117478
 Sum of electronic and zero-point Energies=           -423.002932
 Sum of electronic and thermal Energies=              -422.991959
 Sum of electronic and thermal Enthalpies=            -422.991015
 Sum of electronic and thermal Free Energies=         -423.041432

                     E (Thermal)             CV                S
                      KCal/Mol        Cal/Mol-Kelvin    Cal/Mol-Kelvin
 Total                  104.763             36.825            106.113
 Electronic               0.000              0.000              0.000
 Translational            0.889              2.981             40.409
 Rotational               0.889              2.981             30.253
 Vibrational            102.986             30.863             35.451
 Vibration     1          0.593              1.986              6.759
 Vibration     2          0.596              1.975              4.567
 Vibration     3          0.600              1.961              3.828
 Vibration     4          0.608              1.937              3.189
 Vibration     5          0.611              1.926              2.990
 Vibration     6          0.627              1.873              2.382
 Vibration     7          0.651              1.799              1.899
 Vibration     8          0.658              1.777              1.794
 Vibration     9          0.681              1.708              1.525
 Vibration    10          0.693              1.673              1.415
 Vibration    11          0.744              1.529              1.070
 Vibration    12          0.751              1.509              1.031
 Vibration    13          0.862              1.234              0.640
 Vibration    14          0.932              1.083              0.493
 Vibration    15          0.966              1.016              0.437

 Normal termination of Gaussian 09 at Tue Jan 28 12:45:33 2020.
