 Gaussian 09, Revision D.01,
 Gaussian 09:  ES64L-G09RevD.01 24-Apr-2013

 -----------------------------
 # b3lyp 6-31G(2df,p) opt Freq
 -----------------------------

 -----
 titel
 -----
 Symbolic Z-matrix:
 Charge =  0 Multiplicity = 1

 SCF Done:  E(RB3LYP) =  -423.160015579     A.U. after   13 cycles
 Optimization completed.
    -- Stationary point found.
 Normal termination of Gaussian 09 at Tue Jan 28 02:27:22 2020.

 ----------------------------------------------------------------------
 #N Geom=AllCheck Guess=TCheck SCRF=Check GenChk RB3LYP/6-31G(2df,p) Fr
 eq
 ----------------------------------------------------------------------

 Structure from the checkpoint file:  "/scratch/puck/g09_fbf5c21b-85e2-494e-a4b0-f644e946667c/Gau-112430.chk"
 -----
 titel
 -----
 Charge =  0 Multiplicity = 1

                         Standard orientation:
 ---------------------------------------------------------------------
 Center     Atomic      Atomic             Coordinates (Angstroms)
 Number     Number       Type             X           Y           Z
 ---------------------------------------------------------------------
      1          8           0       -2.237064   -0.450289    0.641493
      2          6           0       -1.375339   -0.473591   -0.494088
      3          6           0       -0.098974   -1.341507   -0.304925
      4          6           0        1.002680   -0.318942    0.005489
      5          8           0        2.321695   -0.778395   -0.114487
      6          6           0        0.636730    0.522418    1.277195
      7          6           0        0.033949    1.571265    0.342309
      8          6           0       -0.828368    0.927550   -0.732963
      9          6           0        0.666703    0.920500   -0.872679
     10          1           0       -2.646605   -1.317862    0.718538
     11          1           0       -1.937360   -0.811830   -1.375948
     12          1           0       -0.234382   -2.084613    0.489874
     13          1           0        0.153545   -1.867150   -1.232608
     14          1           0        2.463470   -1.459307    0.552030
     15          1           0       -0.017593    0.062412    2.023167
     16          1           0        1.553334    0.893448    1.743664
     17          1           0       -0.075148    2.626523    0.562209
     18          1           0       -1.411446    1.619475   -1.329771
     19          1           0        1.250848    1.322208   -1.689234
 ---------------------------------------------------------------------

 SCF Done:  E(RB3LYP) =  -423.160015579     A.U. after    1 cycles

 The electronic state is 1-A.
 Alpha  occ. eigenvalues --  -19.13705 -19.13163 -10.23452 -10.23097 -10.18796
 Alpha  occ. eigenvalues --  -10.18486 -10.18103 -10.17441 -10.17122  -1.02325
 Alpha  occ. eigenvalues --   -1.01269  -0.90044  -0.74965  -0.72223  -0.65089
 Alpha  occ. eigenvalues --   -0.60340  -0.54723  -0.53526  -0.52699  -0.49814
 Alpha  occ. eigenvalues --   -0.45615  -0.44583  -0.43068  -0.41346  -0.39714
 Alpha  occ. eigenvalues --   -0.37340  -0.35838  -0.34710  -0.32153  -0.30452
 Alpha  occ. eigenvalues --   -0.27903  -0.27346  -0.25658  -0.24344
 Alpha virt. eigenvalues --    0.06902   0.08224   0.10518   0.12374   0.13524
 Alpha virt. eigenvalues --    0.13737   0.15203   0.15903   0.17200   0.17595
 Alpha virt. eigenvalues --    0.18176   0.19198   0.19802   0.21822   0.23391

 Mulliken charges:
               1
     1  O   -0.429889
     2  C    0.080204
     3  C   -0.297064
     4  C    0.401659
     5  O   -0.497921
     6  C   -0.290058
     7  C   -0.056285
     8  C   -0.036789
     9  C   -0.125637
    10  H    0.279864
    11  H    0.065069
    12  H    0.080068
    13  H    0.099590
    14  H    0.275525
    15  H    0.095885
    16  H    0.098153
    17  H    0.083492
    18  H    0.084788
    19  H    0.089346
 Sum of Mulliken charges =   0.00000

 Dipole moment (field-independent basis, Debye):
    X=             -0.5808    Y=             -1.5417    Z=              0.0827  Tot=              1.6495
 Quadrupole moment (field-independent basis, Debye-Ang):
   XX=            -55.5438   YY=            -47.3329   ZZ=            -52.3838
   XY=              2.0859   XZ=              4.1692   YZ=             -2.9914

  Exact polarizability:  76.519   0.452  74.964   1.984  -0.841  69.698
 Approx polarizability: 110.024  -0.822 107.102  -1.169  -0.477 107.725

                      1                      2                      3
                      A                      A                      A
 Frequencies --    140.9443               227.1782               240.8938
 Red. masses --      3.8152                 1.0690                 4.1153
 Frc consts  --      0.0447                 0.0325                 0.1407
 IR Inten    --      1.3519                82.9706                 4.5938

                      4                      5                      6
                      A                      A                      A
 Frequencies --    299.4628               321.4993               377.1209
 Red. masses --      1.4052                 2.0389                 3.5409
 Frc consts  --      0.0742                 0.1242                 0.2967
 IR Inten    --     81.1176                40.3142                 4.0129

                      7                      8                      9
                      A                      A                      A
 Frequencies --    409.8184               446.3392               516.8595
 Red. masses --      2.2928                 2.7314                 3.7901
 Frc consts  --      0.2269                 0.3206                 0.5966
 IR Inten    --      4.8616                 7.5465                 6.4944

                     10                     11                     12
                      A                      A                      A
 Frequencies --    609.9716               635.9040               701.5282
 Red. masses --      4.6561                 4.1030                 3.2830
 Frc consts  --      1.0207                 0.9775                 0.9519
 IR Inten    --      5.2703                 0.1137                 5.0324

                     13                     14                     15
                      A                      A                      A
 Frequencies --    763.0891               802.1958               852.6871
 Red. masses --      2.0177                 1.8460                 2.2639
 Frc consts  --      0.6923                 0.6999                 0.9698
 IR Inten    --      3.3042                 4.3612                 1.5950

                     16                     17                     18
                      A                      A                      A
 Frequencies --    872.6439               891.6042               940.7227
 Red. masses --      3.4019                 2.0889                 1.6255
 Frc consts  --      1.5263                 0.9784                 0.8475
 IR Inten    --      6.3131                 4.1366                10.4314

                     19                     20                     21
                      A                      A                      A
 Frequencies --    961.0082               965.1112              1007.2472
 Red. masses --      2.3729                 1.3609                 2.3597
 Frc consts  --      1.2912                 0.7468                 1.4105
 IR Inten    --     41.1539                 1.6982                 4.7059

                     22                     23                     24
                      A                      A                      A
 Frequencies --   1024.4030              1031.3063              1066.5740
 Red. masses --      2.3289                 1.9463                 1.3894
 Frc consts  --      1.4399                 1.2196                 0.9313
 IR Inten    --     14.4136                12.4823                 2.6899

                     25                     26                     27
                      A                      A                      A
 Frequencies --   1082.3477              1097.0007              1139.1773
 Red. masses --      1.5365                 2.4584                 1.6225
 Frc consts  --      1.0605                 1.7431                 1.2405
 IR Inten    --     12.3727                21.4935                 8.8457

                     28                     29                     30
                      A                      A                      A
 Frequencies --   1174.9169              1204.9523              1211.8891
 Red. masses --      1.6934                 1.9061                 1.7221
 Frc consts  --      1.3773                 1.6306                 1.4902
 IR Inten    --     57.5456                18.6991                15.9121

                     31                     32                     33
                      A                      A                      A
 Frequencies --   1228.9838              1239.3549              1260.2212
 Red. masses --      1.3451                 1.4914                 1.5705
 Frc consts  --      1.1970                 1.3497                 1.4695
 IR Inten    --     51.5617                12.5513                 4.0696

                     34                     35                     36
                      A                      A                      A
 Frequencies --   1291.2701              1324.5827              1348.8631
 Red. masses --      1.8446                 1.5758                 1.4356
 Frc consts  --      1.8121                 1.6289                 1.5390
 IR Inten    --    113.8004                23.4878                 3.9473

                     37                     38                     39
                      A                      A                      A
 Frequencies --   1379.7723              1407.8743              1426.7183
 Red. masses --      2.0697                 2.2008                 1.5353
 Frc consts  --      2.3216                 2.5701                 1.8412
 IR Inten    --      7.5974                 0.9823                 9.9256

                     40                     41                     42
                      A                      A                      A
 Frequencies --   1472.0251              1488.8341              2992.3914
 Red. masses --      1.1221                 1.1265                 1.0841
 Frc consts  --      1.4326                 1.4712                 5.7194
 IR Inten    --      0.6553                 1.4150                55.6385

                     43                     44                     45
                      A                      A                      A
 Frequencies --   3030.0528              3050.4782              3079.9875
 Red. masses --      1.0596                 1.0558                 1.1052
 Frc consts  --      5.7320                 5.7888                 6.1773
 IR Inten    --     39.6060                35.9417                27.3217

                     46                     47                     48
                      A                      A                      A
 Frequencies --   3111.3369              3174.4996              3183.0338
 Red. masses --      1.1092                 1.0902                 1.0904
 Frc consts  --      6.3262                 6.4733                 6.5088
 IR Inten    --     22.6854                10.0248                26.1450

                     49                     50                     51
                      A                      A                      A
 Frequencies --   3211.6155              3803.5998              3814.8979
 Red. masses --      1.0974                 1.0658                 1.0662
 Frc consts  --      6.6691                 9.0851                 9.1420
 IR Inten    --     11.3709                18.2259                15.7475

 - Thermochemistry -
 -------------------
 Temperature   298.150 Kelvin.  Pressure   1.00000 Atm.
 Atom     1 has atomic number  8 and mass  15.99491

 Molecular mass:   126.06808 amu.
 Principal axes and moments of inertia in atomic units:
                           1         2         3
     Eigenvalues --   644.177061095.439601282.70650
           X            0.99957   0.01783   0.02320
           Y           -0.01760   0.99979  -0.01010
           Z           -0.02338   0.00969   0.99968
 This molecule is an asymmetric top.
 Rotational symmetry number  1.
 Warning -- assumption of classical behavior for rotation
           may cause significant error
 Rotational temperatures (Kelvin)      0.13446     0.07907     0.06752
 Rotational constants (GHZ):           2.80162     1.64750     1.40698
 Zero-point vibrational energy     420707.4 (Joules/Mol)
                                  100.55149 (Kcal/Mol)
 Warning -- explicit consideration of  10 degrees of freedom as
           vibrations may cause significant error
 Vibrational temperatures:    202.79   326.86   346.59   430.86   462.57
          (Kelvin)            542.59   589.64   642.18   743.64   877.61
                              914.92  1009.34  1097.91  1154.18  1226.82
                             1255.54  1282.82  1353.49  1382.67  1388.58
                             1449.20  1473.89  1483.82  1534.56  1557.25
                             1578.34  1639.02  1690.44  1733.66  1743.64
                             1768.23  1783.15  1813.17  1857.85  1905.78
                             1940.71  1985.18  2025.61  2052.73  2117.91
                             2142.10  4305.38  4359.56  4388.95  4431.41
                             4476.51  4567.39  4579.67  4620.79  5472.52
                             5488.78

 Zero-point correction=                           0.160239 (Hartree/Particle)
 Thermal correction to Energy=                    0.167923
 Thermal correction to Enthalpy=                  0.168867
 Thermal correction to Gibbs Free Energy=         0.128675
 Sum of electronic and zero-point Energies=           -422.999777
 Sum of electronic and thermal Energies=              -422.992093
 Sum of electronic and thermal Enthalpies=            -422.991149
 Sum of electronic and thermal Free Energies=         -423.031341

                     E (Thermal)             CV                S
                      KCal/Mol        Cal/Mol-Kelvin    Cal/Mol-Kelvin
 Total                  105.373             31.612             84.591
 Electronic               0.000              0.000              0.000
 Translational            0.889              2.981             40.409
 Rotational               0.889              2.981             28.295
 Vibrational            103.596             25.651             15.888
 Vibration     1          0.615              1.912              2.791
 Vibration     2          0.651              1.800              1.901
 Vibration     3          0.658              1.778              1.796
 Vibration     4          0.692              1.675              1.420
 Vibration     5          0.707              1.632              1.302
 Vibration     6          0.748              1.519              1.051
 Vibration     7          0.774              1.449              0.927
 Vibration     8          0.806              1.369              0.807
 Vibration     9          0.872              1.213              0.617
 Vibration    10          0.969              1.011              0.433

 Normal termination of Gaussian 09 at Tue Jan 28 03:14:52 2020.
