 Gaussian 09, Revision D.01,
 Gaussian 09:  ES64L-G09RevD.01 24-Apr-2013

 -----------------------------
 # b3lyp 6-31G(2df,p) opt Freq
 -----------------------------

 -----
 titel
 -----
 Symbolic Z-matrix:
 Charge =  0 Multiplicity = 1

 SCF Done:  E(RB3LYP) =  -423.116077587     A.U. after   12 cycles
 Optimization completed.
    -- Stationary point found.
 Normal termination of Gaussian 09 at Tue Jan 28 02:54:09 2020.

 ----------------------------------------------------------------------
 #N Geom=AllCheck Guess=TCheck SCRF=Check GenChk RB3LYP/6-31G(2df,p) Fr
 eq
 ----------------------------------------------------------------------

 Structure from the checkpoint file:  "/scratch/puck/g09_a4930220-e96d-45ee-85ff-b4d725949c19/Gau-90246.chk"
 -----
 titel
 -----
 Charge =  0 Multiplicity = 1

                         Standard orientation:
 ---------------------------------------------------------------------
 Center     Atomic      Atomic             Coordinates (Angstroms)
 Number     Number       Type             X           Y           Z
 ---------------------------------------------------------------------
      1          8           0       -2.383819   -0.400441   -0.770163
      2          6           0       -1.583627    0.158046    0.256046
      3          6           0       -0.709963    1.327117   -0.363809
      4          6           0        0.630955    0.689910   -0.045909
      5          6           0        2.065757    0.505055   -0.536637
      6          8           0        1.909008   -0.939628   -0.359960
      7          6           0        0.454179   -0.796855   -0.401277
      8          6           0       -0.475783   -0.803995    0.828023
      9          6           0        0.455833    0.251810    1.457700
     10          1           0       -2.881181   -1.134359   -0.394312
     11          1           0       -2.211492    0.522427    1.081299
     12          1           0       -0.922733    1.411547   -1.431846
     13          1           0       -0.900354    2.289348    0.118462
     14          1           0        2.229645    0.754230   -1.593602
     15          1           0        2.880208    0.906697    0.074955
     16          1           0        0.053902   -1.141816   -1.357073
     17          1           0       -0.844906   -1.687532    1.356166
     18          1           0        0.006258    0.980888    2.137755
     19          1           0        1.365033   -0.167415    1.884361
 ---------------------------------------------------------------------

 SCF Done:  E(RB3LYP) =  -423.116077587     A.U. after    1 cycles

 The electronic state is 1-A.
 Alpha  occ. eigenvalues --  -19.14207 -19.13295 -10.24133 -10.23309 -10.22093
 Alpha  occ. eigenvalues --  -10.19679 -10.19468 -10.18864 -10.18327  -1.03554
 Alpha  occ. eigenvalues --   -1.02360  -0.87348  -0.72282  -0.70774  -0.66000
 Alpha  occ. eigenvalues --   -0.64174  -0.56419  -0.53238  -0.51365  -0.49899
 Alpha  occ. eigenvalues --   -0.47096  -0.44907  -0.43106  -0.40756  -0.39585
 Alpha  occ. eigenvalues --   -0.38645  -0.36930  -0.34223  -0.33517  -0.31417
 Alpha  occ. eigenvalues --   -0.29807  -0.27204  -0.26209  -0.24591
 Alpha virt. eigenvalues --    0.06472   0.07995   0.10300   0.11420   0.12828
 Alpha virt. eigenvalues --    0.14041   0.14241   0.15297   0.16040   0.16966
 Alpha virt. eigenvalues --    0.18384   0.18502   0.19887   0.20183   0.20781

 Mulliken charges:
               1
     1  O   -0.437814
     2  C    0.142893
     3  C   -0.343849
     4  C    0.283558
     5  C   -0.201178
     6  O   -0.313945
     7  C    0.139328
     8  C   -0.135780
     9  C   -0.263167
    10  H    0.282638
    11  H    0.070995
    12  H    0.119251
    13  H    0.099126
    14  H    0.103959
    15  H    0.106439
    16  H    0.085695
    17  H    0.054846
    18  H    0.087375
    19  H    0.119630
 Sum of Mulliken charges =   0.00000

 Dipole moment (field-independent basis, Debye):
    X=             -1.2618    Y=              0.7638    Z=              1.1184  Tot=              1.8510
 Quadrupole moment (field-independent basis, Debye-Ang):
   XX=            -53.5541   YY=            -52.4650   ZZ=            -53.3781
   XY=              6.4933   XZ=             -2.7168   YZ=             -0.6376

  Exact polarizability:  84.382   4.149  68.558  -2.129  -0.180  70.692
 Approx polarizability: 116.797   4.276 107.395  -1.601   1.222 107.137

                      1                      2                      3
                      A                      A                      A
 Frequencies --    160.6158               270.1108               294.4767
 Red. masses --      3.7678                 2.9719                 1.3167
 Frc consts  --      0.0573                 0.1278                 0.0673
 IR Inten    --      0.2745                 7.8515                95.3394

                      4                      5                      6
                      A                      A                      A
 Frequencies --    336.9114               369.9894               427.7478
 Red. masses --      2.1990                 2.9435                 2.4574
 Frc consts  --      0.1471                 0.2374                 0.2649
 IR Inten    --     15.2023                 1.7915                 1.9242

                      7                      8                      9
                      A                      A                      A
 Frequencies --    463.8271               477.1043               608.5772
 Red. masses --      2.6541                 3.3327                 4.1451
 Frc consts  --      0.3364                 0.4470                 0.9045
 IR Inten    --      6.5771                 5.1798                 5.5745

                     10                     11                     12
                      A                      A                      A
 Frequencies --    695.2988               744.6408               808.9117
 Red. masses --      3.6948                 4.0858                 2.6136
 Frc consts  --      1.0524                 1.3348                 1.0076
 IR Inten    --      3.5338                13.9327                 6.1320

                     13                     14                     15
                      A                      A                      A
 Frequencies --    833.9971               856.4335               900.8519
 Red. masses --      3.2497                 2.2812                 2.4060
 Frc consts  --      1.3317                 0.9858                 1.1504
 IR Inten    --      7.3819                 7.8618                 5.7272

                     16                     17                     18
                      A                      A                      A
 Frequencies --    916.9606               938.3550               963.4579
 Red. masses --      2.0460                 4.9709                 2.5948
 Frc consts  --      1.0136                 2.5788                 1.4191
 IR Inten    --      1.9807                53.2778                 1.3422

                     19                     20                     21
                      A                      A                      A
 Frequencies --    982.8929              1003.4851              1030.4656
 Red. masses --      2.3474                 2.4182                 1.7618
 Frc consts  --      1.3361                 1.4347                 1.1022
 IR Inten    --     10.4749                62.4993                17.8775

                     22                     23                     24
                      A                      A                      A
 Frequencies --   1039.4653              1059.9938              1084.4914
 Red. masses --      1.9675                 1.7465                 1.4385
 Frc consts  --      1.2525                 1.1562                 0.9968
 IR Inten    --      9.7060                 4.5063                10.2418

                     25                     26                     27
                      A                      A                      A
 Frequencies --   1125.5311              1160.5287              1172.7023
 Red. masses --      1.8666                 1.3367                 1.8552
 Frc consts  --      1.3932                 1.0607                 1.5032
 IR Inten    --     11.7343                 8.9870                11.3745

                     28                     29                     30
                      A                      A                      A
 Frequencies --   1193.7735              1221.7949              1235.3004
 Red. masses --      1.4808                 1.6103                 1.6574
 Frc consts  --      1.2433                 1.4163                 1.4901
 IR Inten    --      0.5314                14.3234                 4.6409

                     31                     32                     33
                      A                      A                      A
 Frequencies --   1250.4512              1258.4451              1263.9061
 Red. masses --      1.2531                 1.5636                 1.7086
 Frc consts  --      1.1544                 1.4590                 1.6081
 IR Inten    --     61.0080                 2.1578                 4.4755

                     34                     35                     36
                      A                      A                      A
 Frequencies --   1300.9466              1331.9012              1340.2749
 Red. masses --      1.4617                 1.3586                 1.6453
 Frc consts  --      1.4576                 1.4200                 1.7414
 IR Inten    --      1.9707                24.8245                12.9744

                     37                     38                     39
                      A                      A                      A
 Frequencies --   1364.0638              1411.5349              1486.7421
 Red. masses --      1.8774                 1.3924                 1.1048
 Frc consts  --      2.0582                 1.6346                 1.4388
 IR Inten    --      4.7933                 4.0605                 4.0360

                     40                     41                     42
                      A                      A                      A
 Frequencies --   1502.6424              1513.6942              2996.3985
 Red. masses --      1.1248                 1.1052                 1.0855
 Frc consts  --      1.4964                 1.4920                 5.7421
 IR Inten    --      1.5467                 0.9057                45.3093

                     43                     44                     45
                      A                      A                      A
 Frequencies --   3011.2793              3059.5578              3063.3558
 Red. masses --      1.0591                 1.0638                 1.0621
 Frc consts  --      5.6581                 5.8669                 5.8725
 IR Inten    --     81.1720                17.6517                66.6712

                     46                     47                     48
                      A                      A                      A
 Frequencies --   3073.5975              3078.1107              3089.5186
 Red. masses --      1.0843                 1.1062                 1.0892
 Frc consts  --      6.0351                 6.1751                 6.1255
 IR Inten    --     63.1930                40.6396                25.1451

                     49                     50                     51
                      A                      A                      A
 Frequencies --   3118.4495              3154.1340              3811.8475
 Red. masses --      1.1060                 1.1020                 1.0659
 Frc consts  --      6.3372                 6.4593                 9.1254
 IR Inten    --     20.2842                13.4847                23.2205

 - Thermochemistry -
 -------------------
 Temperature   298.150 Kelvin.  Pressure   1.00000 Atm.
 Atom     1 has atomic number  8 and mass  15.99491

 Molecular mass:   126.06808 amu.
 Principal axes and moments of inertia in atomic units:
                           1         2         3
     Eigenvalues --   532.937411252.881141280.06256
           X            0.99975   0.01925  -0.01168
           Y           -0.02040   0.99392  -0.10823
           Z            0.00952   0.10844   0.99406
 This molecule is an asymmetric top.
 Rotational symmetry number  1.
 Warning -- assumption of classical behavior for rotation
           may cause significant error
 Rotational temperatures (Kelvin)      0.16252     0.06913     0.06766
 Rotational constants (GHZ):           3.38640     1.44047     1.40989
 Zero-point vibrational energy     423834.2 (Joules/Mol)
                                  101.29880 (Kcal/Mol)
 Warning -- explicit consideration of   9 degrees of freedom as
           vibrations may cause significant error
 Vibrational temperatures:    231.09   388.63   423.69   484.74   532.33
          (Kelvin)            615.43   667.34   686.45   875.61  1000.38
                             1071.37  1163.84  1199.93  1232.22  1296.12
                             1319.30  1350.08  1386.20  1414.16  1443.79
                             1482.61  1495.56  1525.09  1560.34  1619.39
                             1669.74  1687.25  1717.57  1757.89  1777.32
                             1799.12  1810.62  1818.48  1871.77  1916.31
                             1928.35  1962.58  2030.88  2139.09  2161.96
                             2177.87  4311.14  4332.55  4402.02  4407.48
                             4422.22  4428.71  4445.12  4486.75  4538.09
                             5484.39

 Zero-point correction=                           0.161430 (Hartree/Particle)
 Thermal correction to Energy=                    0.168439
 Thermal correction to Enthalpy=                  0.169383
 Thermal correction to Gibbs Free Energy=         0.130453
 Sum of electronic and zero-point Energies=           -422.954648
 Sum of electronic and thermal Energies=              -422.947639
 Sum of electronic and thermal Enthalpies=            -422.946694
 Sum of electronic and thermal Free Energies=         -422.985624

                     E (Thermal)             CV                S
                      KCal/Mol        Cal/Mol-Kelvin    Cal/Mol-Kelvin
 Total                  105.697             29.404             81.934
 Electronic               0.000              0.000              0.000
 Translational            0.889              2.981             40.409
 Rotational               0.889              2.981             28.238
 Vibrational            103.920             23.442             13.288
 Vibration     1          0.622              1.891              2.543
 Vibration     2          0.674              1.728              1.596
 Vibration     3          0.689              1.684              1.448
 Vibration     4          0.718              1.602              1.227
 Vibration     5          0.742              1.534              1.080
 Vibration     6          0.789              1.410              0.866
 Vibration     7          0.821              1.330              0.755
 Vibration     8          0.834              1.301              0.718
 Vibration     9          0.967              1.014              0.435

 Optimization completed.
    -- Stationary point found.
 Normal termination of Gaussian 09 at Tue Jan 28 03:39:04 2020.
 Normal termination of Gaussian 09 at Tue Jan 28 02:46:39 2020.
