 Gaussian 09, Revision D.01,
 Gaussian 09:  ES64L-G09RevD.01 24-Apr-2013

 -----------------------------
 # b3lyp 6-31G(2df,p) opt Freq
 -----------------------------

 -----
 titel
 -----
 Symbolic Z-matrix:
 Charge =  0 Multiplicity = 1

 SCF Done:  E(RB3LYP) =  -423.161228994     A.U. after   15 cycles
 Optimization completed.
    -- Stationary point found.
 Normal termination of Gaussian 09 at Tue Jan 28 08:17:49 2020.

 ----------------------------------------------------------------------
 #N Geom=AllCheck Guess=TCheck SCRF=Check GenChk RB3LYP/6-31G(2df,p) Fr
 eq
 ----------------------------------------------------------------------

 Structure from the checkpoint file:  "/scratch/puck/g09_551550ca-fadb-49b1-9f98-ed2b6541244c/Gau-79839.chk"
 -----
 titel
 -----
 Charge =  0 Multiplicity = 1

                         Standard orientation:
 ---------------------------------------------------------------------
 Center     Atomic      Atomic             Coordinates (Angstroms)
 Number     Number       Type             X           Y           Z
 ---------------------------------------------------------------------
      1          6           0        3.744359    0.084418    0.847448
      2          6           0        3.127799   -0.194138   -0.535665
      3          6           0        1.669337   -0.146152   -0.531628
      4          6           0        0.465014   -0.097936   -0.523922
      5          6           0       -0.990262   -0.037804   -0.462985
      6          6           0       -1.576071   -1.314768    0.190664
      7          8           0       -2.974025   -1.232120    0.368304
      8          6           0       -1.417384    1.188195    0.352084
      9          8           0       -2.093508    2.082158   -0.075736
     10          1           0        4.835811    0.038575    0.792395
     11          1           0        3.458659    1.076293    1.207698
     12          1           0        3.404869   -0.652212    1.580574
     13          1           0        3.511168    0.533433   -1.262277
     14          1           0        3.456256   -1.178598   -0.892800
     15          1           0       -1.416775    0.085374   -1.466986
     16          1           0       -1.275260   -2.187601   -0.405396
     17          1           0       -1.148326   -1.436932    1.190680
     18          1           0       -3.388842   -1.152191   -0.497086
     19          1           0       -1.034048    1.182659    1.396682
 ---------------------------------------------------------------------

 SCF Done:  E(RB3LYP) =  -423.161228994     A.U. after    1 cycles

 The electronic state is 1-A.
 Alpha  occ. eigenvalues --  -19.15006 -19.14318 -10.27527 -10.24630 -10.22064
 Alpha  occ. eigenvalues --  -10.21464 -10.18879 -10.18529 -10.18139  -1.05183
 Alpha  occ. eigenvalues --   -1.03223  -0.81877  -0.79477  -0.71791  -0.66464
 Alpha  occ. eigenvalues --   -0.64075  -0.59231  -0.51960  -0.51025  -0.47541
 Alpha  occ. eigenvalues --   -0.46635  -0.46162  -0.45203  -0.42779  -0.40761
 Alpha  occ. eigenvalues --   -0.39649  -0.37912  -0.37584  -0.36893  -0.34410
 Alpha  occ. eigenvalues --   -0.29325  -0.27824  -0.25993  -0.24189
 Alpha virt. eigenvalues --   -0.02528   0.04196   0.05307   0.07500   0.10144
 Alpha virt. eigenvalues --    0.11803   0.13174   0.14276   0.14812   0.15426
 Alpha virt. eigenvalues --    0.16438   0.17497   0.19292   0.20110   0.20688

 Mulliken charges:
               1
     1  C   -0.366330
     2  C   -0.315919
     3  C    0.102560
     4  C    0.019193
     5  C   -0.277638
     6  C   -0.070907
     7  O   -0.405937
     8  C    0.189275
     9  O   -0.243904
    10  H    0.118301
    11  H    0.131212
    12  H    0.128620
    13  H    0.134681
    14  H    0.132312
    15  H    0.111580
    16  H    0.109820
    17  H    0.126360
    18  H    0.291171
    19  H    0.085548
 Sum of Mulliken charges =   0.00000

 Dipole moment (field-independent basis, Debye):
    X=              2.4030    Y=             -2.0440    Z=             -0.7085  Tot=              3.2333
 Quadrupole moment (field-independent basis, Debye-Ang):
   XX=            -50.9618   YY=            -58.4665   ZZ=            -51.9975
   XY=              4.6397   XZ=              4.0400   YZ=              2.5858

  Exact polarizability: 114.586  -4.553  68.853   2.271   0.549  64.872
 Approx polarizability: 159.115 -11.584 100.004   3.248  -2.526  95.524

                      1                      2                      3
                      A                      A                      A
 Frequencies --     21.2941                57.8644                73.1426
 Red. masses --      2.5172                 5.2612                 3.7281
 Frc consts  --      0.0007                 0.0104                 0.0118
 IR Inten    --      0.1731                 3.5468                 0.4683

                      4                      5                      6
                      A                      A                      A
 Frequencies --     91.2278               121.8466               199.5546
 Red. masses --      3.4560                 2.5183                 2.5687
 Frc consts  --      0.0169                 0.0220                 0.0603
 IR Inten    --      3.3921                 4.6028                 2.0159

                      7                      8                      9
                      A                      A                      A
 Frequencies --    209.7561               253.6480               304.7899
 Red. masses --      1.6120                 2.2875                 1.5418
 Frc consts  --      0.0418                 0.0867                 0.0844
 IR Inten    --      2.1193                28.3038                34.6230

                     10                     11                     12
                      A                      A                      A
 Frequencies --    325.9232               380.4498               414.7795
 Red. masses --      1.7016                 4.5844                 3.4370
 Frc consts  --      0.1065                 0.3910                 0.3484
 IR Inten    --     53.0460                14.9158                14.8371

                     13                     14                     15
                      A                      A                      A
 Frequencies --    492.6099               511.1619               552.9713
 Red. masses --      7.3128                 3.9404                 4.8635
 Frc consts  --      1.0455                 0.6066                 0.8762
 IR Inten    --      0.7577                17.5762                 1.0606

                     16                     17                     18
                      A                      A                      A
 Frequencies --    773.7470               786.2310               866.9538
 Red. masses --      3.0247                 1.1760                 1.7271
 Frc consts  --      1.0669                 0.4283                 0.7648
 IR Inten    --      1.2676                 1.9822                21.1989

                     19                     20                     21
                      A                      A                      A
 Frequencies --    957.5277               985.9032              1042.8566
 Red. masses --      2.3649                 2.7196                 2.3117
 Frc consts  --      1.2775                 1.5575                 1.4813
 IR Inten    --      2.9973                 2.9570                67.7209

                     22                     23                     24
                      A                      A                      A
 Frequencies --   1070.5698              1081.8306              1104.6268
 Red. masses --      3.0136                 1.9017                 1.4693
 Frc consts  --      2.0350                 1.3113                 1.0563
 IR Inten    --     40.5187                 4.3271                 0.2003

                     25                     26                     27
                      A                      A                      A
 Frequencies --   1106.4765              1167.1562              1181.0176
 Red. masses --      3.4336                 2.1359                 1.3330
 Frc consts  --      2.4768                 1.7143                 1.0955
 IR Inten    --     47.1189                 0.8790                36.6031

                     28                     29                     30
                      A                      A                      A
 Frequencies --   1274.7131              1286.1205              1317.2296
 Red. masses --      1.5055                 1.1489                 1.2210
 Frc consts  --      1.4413                 1.1197                 1.2482
 IR Inten    --      1.5817                 0.0212                 6.5282

                     31                     32                     33
                      A                      A                      A
 Frequencies --   1351.1048              1379.2985              1402.1438
 Red. masses --      1.5313                 1.2936                 1.1977
 Frc consts  --      1.6470                 1.4500                 1.3874
 IR Inten    --     24.8576                 5.6785                41.3604

                     34                     35                     36
                      A                      A                      A
 Frequencies --   1410.4196              1421.2286              1474.6692
 Red. masses --      1.2109                 1.2084                 1.0728
 Frc consts  --      1.4192                 1.4380                 1.3746
 IR Inten    --      1.1671                13.3951                 3.2355

                     37                     38                     39
                      A                      A                      A
 Frequencies --   1495.4115              1504.1399              1505.5007
 Red. masses --      1.0396                 1.0829                 1.0586
 Frc consts  --      1.3697                 1.4435                 1.4137
 IR Inten    --      5.0643                 0.8233                 1.2214

                     40                     41                     42
                      A                      A                      A
 Frequencies --   1843.2512              2359.3848              2887.8921
 Red. masses --     10.3351                11.8710                 1.0841
 Frc consts  --     20.6887                38.9346                 5.3270
 IR Inten    --    204.1331                 3.1858                77.7274

                     43                     44                     45
                      A                      A                      A
 Frequencies --   3009.6469              3022.3324              3029.1440
 Red. masses --      1.0674                 1.0588                 1.0821
 Frc consts  --      5.6967                 5.6984                 5.8500
 IR Inten    --     38.6302                24.4501                13.9653

                     46                     47                     48
                      A                      A                      A
 Frequencies --   3046.2648              3050.2785              3088.1851
 Red. masses --      1.0343                 1.1011                 1.0975
 Frc consts  --      5.6552                 6.0360                 6.1667
 IR Inten    --     26.5542                 8.0604                23.5600

                     49                     50                     51
                      A                      A                      A
 Frequencies --   3120.3799              3125.1894              3813.1041
 Red. masses --      1.1023                 1.1030                 1.0662
 Frc consts  --      6.3236                 6.3470                 9.1333
 IR Inten    --     28.6899                23.3423                28.8964

 - Thermochemistry -
 -------------------
 Temperature   298.150 Kelvin.  Pressure   1.00000 Atm.
 Atom     1 has atomic number  6 and mass  12.00000

 Molecular mass:   126.06808 amu.
 Principal axes and moments of inertia in atomic units:
                           1         2         3
     Eigenvalues --   654.977692592.701152973.63185
           X            0.99987   0.01105   0.01159
           Y           -0.01127   0.99977   0.01836
           Z           -0.01138  -0.01848   0.99976
 This molecule is an asymmetric top.
 Rotational symmetry number  1.
 Warning -- assumption of classical behavior for rotation
           may cause significant error
 Rotational temperatures (Kelvin)      0.13224     0.03341     0.02913
 Rotational constants (GHZ):           2.75542     0.69609     0.60691
 Zero-point vibrational energy     408841.4 (Joules/Mol)
                                   97.71545 (Kcal/Mol)
 Warning -- explicit consideration of  15 degrees of freedom as
           vibrations may cause significant error
 Vibrational temperatures:     30.64    83.25   105.24   131.26   175.31
          (Kelvin)            287.11   301.79   364.94   438.52   468.93
                              547.38   596.77   708.75   735.45   795.60
                             1113.25  1131.21  1247.35  1377.67  1418.49
                             1500.44  1540.31  1556.51  1589.31  1591.97
                             1679.28  1699.22  1834.03  1850.44  1895.20
                             1943.94  1984.50  2017.37  2029.28  2044.83
                             2121.72  2151.56  2164.12  2166.08  2652.02
                             3394.62  4155.03  4330.21  4348.46  4358.26
                             4382.89  4388.66  4443.20  4489.53  4496.44
                             5486.20

 Zero-point correction=                           0.155719 (Hartree/Particle)
 Thermal correction to Energy=                    0.166727
 Thermal correction to Enthalpy=                  0.167671
 Thermal correction to Gibbs Free Energy=         0.117284
 Sum of electronic and zero-point Energies=           -423.005510
 Sum of electronic and thermal Energies=              -422.994502
 Sum of electronic and thermal Enthalpies=            -422.993558
 Sum of electronic and thermal Free Energies=         -423.043945

                     E (Thermal)             CV                S
                      KCal/Mol        Cal/Mol-Kelvin    Cal/Mol-Kelvin
 Total                  104.623             37.056            106.050
 Electronic               0.000              0.000              0.000
 Translational            0.889              2.981             40.409
 Rotational               0.889              2.981             30.003
 Vibrational            102.845             31.095             35.638
 Vibration     1          0.593              1.985              6.510
 Vibration     2          0.596              1.974              4.529
 Vibration     3          0.599              1.967              4.067
 Vibration     4          0.602              1.955              3.634
 Vibration     5          0.609              1.931              3.071
 Vibration     6          0.638              1.841              2.137
 Vibration     7          0.642              1.826              2.046
 Vibration     8          0.665              1.757              1.705
 Vibration     9          0.696              1.665              1.390
 Vibration    10          0.710              1.624              1.280
 Vibration    11          0.750              1.512              1.037
 Vibration    12          0.778              1.438              0.910
 Vibration    13          0.848              1.266              0.677
 Vibration    14          0.866              1.225              0.631
 Vibration    15          0.908              1.133              0.538

 Optimization completed on the basis of negligible forces.
    -- Stationary point found.
 Normal termination of Gaussian 09 at Tue Jan 28 09:05:54 2020.
