 Gaussian 09, Revision D.01,
 Gaussian 09:  ES64L-G09RevD.01 24-Apr-2013

 -----------------------------
 # b3lyp 6-31G(2df,p) opt Freq
 -----------------------------

 -----
 titel
 -----
 Symbolic Z-matrix:
 Charge =  0 Multiplicity = 1

 SCF Done:  E(RB3LYP) =  -423.176742526     A.U. after   14 cycles
 Optimization completed.
    -- Stationary point found.
 Normal termination of Gaussian 09 at Mon Jan 27 17:27:28 2020.

 ----------------------------------------------------------------------
 #N Geom=AllCheck Guess=TCheck SCRF=Check GenChk RB3LYP/6-31G(2df,p) Fr
 eq
 ----------------------------------------------------------------------

 Structure from the checkpoint file:  "/scratch/puck/g09_411aa0d4-7227-4016-a445-ab2fdb157971/Gau-147302.chk"
 -----
 titel
 -----
 Charge =  0 Multiplicity = 1

                         Standard orientation:
 ---------------------------------------------------------------------
 Center     Atomic      Atomic             Coordinates (Angstroms)
 Number     Number       Type             X           Y           Z
 ---------------------------------------------------------------------
      1          6           0        2.706988   -0.050624    0.525774
      2          6           0        1.317756    0.011491   -0.039970
      3          8           0        0.857037   -1.177074   -0.749868
      4          6           0        0.155991   -0.762411    0.420262
      5          6           0       -1.124299    0.032891    0.141380
      6          6           0       -2.134370   -0.735124   -0.714004
      7          8           0       -1.664872    0.337546    1.430503
      8          6           0       -0.576973    1.272789   -0.557692
      9          6           0        0.753824    1.266003   -0.639666
     10          1           0        3.453492    0.130639   -0.255479
     11          1           0        2.841574    0.708999    1.302846
     12          1           0        2.900271   -1.034683    0.958946
     13          1           0        0.170586   -1.439172    1.271232
     14          1           0       -1.666137   -1.077551   -1.639729
     15          1           0       -2.510932   -1.600934   -0.161400
     16          1           0       -2.987297   -0.097025   -0.974994
     17          1           0       -2.468869    0.851720    1.301738
     18          1           0       -1.234642    2.032124   -0.969728
     19          1           0        1.371130    2.032020   -1.095013
 ---------------------------------------------------------------------

 SCF Done:  E(RB3LYP) =  -423.176742526     A.U. after    1 cycles

 The electronic state is 1-A.
 Alpha  occ. eigenvalues --  -19.14294 -19.13837 -10.24211 -10.23840 -10.22508
 Alpha  occ. eigenvalues --  -10.18738 -10.18518 -10.18313 -10.17554  -1.06454
 Alpha  occ. eigenvalues --   -1.01956  -0.81426  -0.75689  -0.72255  -0.67071
 Alpha  occ. eigenvalues --   -0.62255  -0.56101  -0.55599  -0.51153  -0.47288
 Alpha  occ. eigenvalues --   -0.44575  -0.43246  -0.42697  -0.41778  -0.41202
 Alpha  occ. eigenvalues --   -0.38409  -0.37911  -0.36178  -0.35769  -0.33569
 Alpha  occ. eigenvalues --   -0.30534  -0.27413  -0.25746  -0.24435
 Alpha virt. eigenvalues --   -0.00351   0.07800   0.10333   0.11236   0.12885
 Alpha virt. eigenvalues --    0.13481   0.14729   0.15908   0.16569   0.17209
 Alpha virt. eigenvalues --    0.18101   0.18433   0.19395   0.20659   0.22689

 Mulliken charges:
               1
     1  C   -0.494831
     2  C    0.384196
     3  O   -0.301446
     4  C   -0.051718
     5  C    0.313630
     6  C   -0.441319
     7  O   -0.471894
     8  C   -0.132012
     9  C   -0.140422
    10  H    0.127400
    11  H    0.129604
    12  H    0.133705
    13  H    0.097523
    14  H    0.143756
    15  H    0.124128
    16  H    0.102474
    17  H    0.278333
    18  H    0.095720
    19  H    0.103173
 Sum of Mulliken charges =   0.00000

 Dipole moment (field-independent basis, Debye):
    X=             -0.6807    Y=              1.5669    Z=              0.0823  Tot=              1.7103
 Quadrupole moment (field-independent basis, Debye-Ang):
   XX=            -45.8059   YY=            -52.5534   ZZ=            -56.4552
   XY=             -0.4743   XZ=              1.7454   YZ=             -2.8389

  Exact polarizability:  96.530   1.289  70.299  -0.408  -5.096  62.016
 Approx polarizability: 135.065   0.096 106.220  -6.858  -4.109  97.512

                      1                      2                      3
                      A                      A                      A
 Frequencies --    123.4150               181.0498               193.4192
 Red. masses --      2.9851                 1.2501                 1.4683
 Frc consts  --      0.0268                 0.0241                 0.0324
 IR Inten    --      2.1970                17.9793                37.9114

                      4                      5                      6
                      A                      A                      A
 Frequencies --    198.9693               247.0687               267.7932
 Red. masses --      1.4753                 1.0956                 2.3631
 Frc consts  --      0.0344                 0.0394                 0.0998
 IR Inten    --     44.0471                 0.7108                 2.3329

                      7                      8                      9
                      A                      A                      A
 Frequencies --    324.4007               351.7862               400.9417
 Red. masses --      2.7957                 3.8234                 3.3190
 Frc consts  --      0.1733                 0.2788                 0.3144
 IR Inten    --      1.0080                 9.1541                 8.0879

                     10                     11                     12
                      A                      A                      A
 Frequencies --    419.5758               497.7986               575.0004
 Red. masses --      3.2803                 3.5092                 3.8114
 Frc consts  --      0.3402                 0.5124                 0.7424
 IR Inten    --      5.1659                 3.3912                 1.4831

                     13                     14                     15
                      A                      A                      A
 Frequencies --    617.7985               648.4189               755.1051
 Red. masses --      3.9751                 4.1691                 4.5694
 Frc consts  --      0.8939                 1.0328                 1.5350
 IR Inten    --      5.8670                 3.7542                 6.8660

                     16                     17                     18
                      A                      A                      A
 Frequencies --    783.4194               840.4546               851.0331
 Red. masses --      1.6954                 4.1717                 2.8542
 Frc consts  --      0.6131                 1.7362                 1.2180
 IR Inten    --     13.0264                 6.2923                32.2043

                     19                     20                     21
                      A                      A                      A
 Frequencies --    921.3898               941.8959               953.6943
 Red. masses --      2.0508                 1.9980                 1.5986
 Frc consts  --      1.0258                 1.0443                 0.8567
 IR Inten    --      2.0698                15.1685                13.9411

                     22                     23                     24
                      A                      A                      A
 Frequencies --    966.2225              1036.9264              1048.4967
 Red. masses --      1.4499                 2.0512                 1.7344
 Frc consts  --      0.7975                 1.2994                 1.1234
 IR Inten    --      9.4030                17.9108                10.1124

                     25                     26                     27
                      A                      A                      A
 Frequencies --   1092.1475              1099.6216              1136.0355
 Red. masses --      1.2839                 1.7621                 1.7159
 Frc consts  --      0.9023                 1.2554                 1.3048
 IR Inten    --      3.6340                47.0375                69.7740

                     28                     29                     30
                      A                      A                      A
 Frequencies --   1150.0274              1186.9775              1252.8684
 Red. masses --      2.4254                 2.0621                 1.9037
 Frc consts  --      1.8900                 1.7118                 1.7606
 IR Inten    --     19.1558                15.4905                 7.5018

                     31                     32                     33
                      A                      A                      A
 Frequencies --   1278.6515              1359.2924              1378.2341
 Red. masses --      1.8214                 2.1384                 1.9271
 Frc consts  --      1.7546                 2.3279                 2.1568
 IR Inten    --     19.2849                20.7947                14.2111

                     34                     35                     36
                      A                      A                      A
 Frequencies --   1394.7741              1410.0468              1451.1104
 Red. masses --      1.2842                 1.2829                 2.8816
 Frc consts  --      1.4719                 1.5028                 3.5750
 IR Inten    --     11.9805                 2.2547                13.1808

                     37                     38                     39
                      A                      A                      A
 Frequencies --   1484.4457              1490.8110              1494.4345
 Red. masses --      1.0910                 1.0672                 1.1045
 Frc consts  --      1.4164                 1.3974                 1.4534
 IR Inten    --      4.4962                 4.7553                 3.8678

                     40                     41                     42
                      A                      A                      A
 Frequencies --   1497.3651              1666.6175              3029.3899
 Red. masses --      1.0939                 6.8755                 1.0388
 Frc consts  --      1.4450                11.2518                 5.6168
 IR Inten    --      6.0719                 1.5116                26.6251

                     43                     44                     45
                      A                      A                      A
 Frequencies --   3036.0423              3097.5838              3099.1385
 Red. masses --      1.0367                 1.1002                 1.0973
 Frc consts  --      5.6302                 6.2198                 6.2097
 IR Inten    --     20.7833                16.3371                18.8331

                     46                     47                     48
                      A                      A                      A
 Frequencies --   3127.3756              3133.0719              3147.3998
 Red. masses --      1.1007                 1.1011                 1.0912
 Frc consts  --      6.3426                 6.3684                 6.3687
 IR Inten    --     11.3345                 9.7709                16.9831

                     49                     50                     51
                      A                      A                      A
 Frequencies --   3173.2364              3204.3323              3812.7300
 Red. masses --      1.0863                 1.1028                 1.0662
 Frc consts  --      6.4444                 6.6713                 9.1322
 IR Inten    --      9.3153                15.9733                21.2522

 - Thermochemistry -
 -------------------
 Temperature   298.150 Kelvin.  Pressure   1.00000 Atm.
 Atom     1 has atomic number  6 and mass  12.00000

 Molecular mass:   126.06808 amu.
 Principal axes and moments of inertia in atomic units:
                           1         2         3
     Eigenvalues --   594.144441342.429131412.48736
           X            0.99919   0.02194   0.03362
           Y           -0.01698   0.98984  -0.14118
           Z           -0.03638   0.14050   0.98941
 This molecule is an asymmetric top.
 Rotational symmetry number  1.
 Warning -- assumption of classical behavior for rotation
           may cause significant error
 Rotational temperatures (Kelvin)      0.14578     0.06452     0.06132
 Rotational constants (GHZ):           3.03755     1.34438     1.27770
 Zero-point vibrational energy     411693.8 (Joules/Mol)
                                   98.39719 (Kcal/Mol)
 Warning -- explicit consideration of  13 degrees of freedom as
           vibrations may cause significant error
 Vibrational temperatures:    177.57   260.49   278.29   286.27   355.48
          (Kelvin)            385.29   466.74   506.14   576.86   603.68
                              716.22   827.30   888.87   932.93  1086.43
                             1127.16  1209.23  1224.45  1325.67  1355.18
                             1372.15  1390.18  1491.90  1508.55  1571.35
                             1582.11  1634.50  1654.63  1707.79  1802.60
                             1839.69  1955.72  1982.97  2006.77  2028.74
                             2087.82  2135.78  2144.94  2150.16  2154.37
                             2397.89  4358.61  4368.18  4456.73  4458.96
                             4499.59  4507.79  4528.40  4565.57  4610.31
                             5485.66

 Zero-point correction=                           0.156806 (Hartree/Particle)
 Thermal correction to Energy=                    0.165790
 Thermal correction to Enthalpy=                  0.166734
 Thermal correction to Gibbs Free Energy=         0.123898
 Sum of electronic and zero-point Energies=           -423.019937
 Sum of electronic and thermal Energies=              -423.010952
 Sum of electronic and thermal Enthalpies=            -423.010008
 Sum of electronic and thermal Free Energies=         -423.052844

                     E (Thermal)             CV                S
                      KCal/Mol        Cal/Mol-Kelvin    Cal/Mol-Kelvin
 Total                  104.035             34.786             90.156
 Electronic               0.000              0.000              0.000
 Translational            0.889              2.981             40.409
 Rotational               0.889              2.981             28.512
 Vibrational            102.257             28.824             21.236
 Vibration     1          0.610              1.929              3.046
 Vibration     2          0.630              1.865              2.318
 Vibration     3          0.635              1.849              2.195
 Vibration     4          0.637              1.841              2.143
 Vibration     5          0.661              1.768              1.751
 Vibration     6          0.673              1.732              1.610
 Vibration     7          0.709              1.627              1.288
 Vibration     8          0.728              1.572              1.158
 Vibration     9          0.767              1.468              0.959
 Vibration    10          0.782              1.428              0.893
 Vibration    11          0.853              1.255              0.664
 Vibration    12          0.931              1.085              0.495
 Vibration    13          0.978              0.994              0.420

 Normal termination of Gaussian 09 at Mon Jan 27 18:11:35 2020.
