 Gaussian 09, Revision D.01,
 Gaussian 09:  ES64L-G09RevD.01 24-Apr-2013

 -----------------------------
 # b3lyp 6-31G(2df,p) opt Freq
 -----------------------------

 -----
 titel
 -----
 Symbolic Z-matrix:
 Charge =  0 Multiplicity = 1

 SCF Done:  E(RB3LYP) =  -423.210580479     A.U. after   14 cycles
 Optimization completed.
    -- Stationary point found.
 Normal termination of Gaussian 09 at Mon Jan 27 22:03:21 2020.

 ----------------------------------------------------------------------
 #N Geom=AllCheck Guess=TCheck SCRF=Check GenChk RB3LYP/6-31G(2df,p) Fr
 eq
 ----------------------------------------------------------------------

 Structure from the checkpoint file:  "/scratch/puck/g09_c50da899-ab86-46f1-b2a7-0c13bfe0ddad/Gau-189746.chk"
 -----
 titel
 -----
 Charge =  0 Multiplicity = 1

                         Standard orientation:
 ---------------------------------------------------------------------
 Center     Atomic      Atomic             Coordinates (Angstroms)
 Number     Number       Type             X           Y           Z
 ---------------------------------------------------------------------
      1          6           0       -1.263567    2.497645    0.118458
      2          6           0       -0.676575    1.134533    0.400677
      3          6           0       -1.034749   -0.049730   -0.461631
      4          6           0       -1.340025   -1.368884    0.153863
      5          8           0       -2.148509   -2.133299   -0.318009
      6          6           0        0.392980    0.547608   -0.480248
      7          6           0        1.542911   -0.179385    0.147894
      8          6           0        2.823715   -0.212508   -0.661676
      9          8           0        1.459969   -0.697146    1.242324
     10          1           0       -2.257532    2.593844    0.567108
     11          1           0       -0.630239    3.289603    0.531482
     12          1           0       -1.364252    2.672493   -0.957385
     13          1           0       -0.530447    0.888178    1.450048
     14          1           0       -1.613515    0.143932   -1.359825
     15          1           0       -0.792828   -1.598572    1.087419
     16          1           0        0.622748    1.077961   -1.399200
     17          1           0        3.170501    0.807618   -0.863998
     18          1           0        3.592877   -0.763010   -0.119696
     19          1           0        2.642866   -0.684155   -1.634499
 ---------------------------------------------------------------------

 SCF Done:  E(RB3LYP) =  -423.210580479     A.U. after    1 cycles

 The electronic state is 1-A.
 Alpha  occ. eigenvalues --  -19.13630 -19.12962 -10.28216 -10.26384 -10.22089
 Alpha  occ. eigenvalues --  -10.21844 -10.21530 -10.19780 -10.19727  -1.04818
 Alpha  occ. eigenvalues --   -1.03631  -0.89069  -0.76324  -0.73454  -0.67562
 Alpha  occ. eigenvalues --   -0.61786  -0.58756  -0.53260  -0.49039  -0.48760
 Alpha  occ. eigenvalues --   -0.45378  -0.44454  -0.43649  -0.42279  -0.41993
 Alpha  occ. eigenvalues --   -0.41098  -0.39802  -0.39338  -0.37600  -0.36724
 Alpha  occ. eigenvalues --   -0.31239  -0.30365  -0.26448  -0.23875
 Alpha virt. eigenvalues --   -0.03632  -0.00829   0.07882   0.09992   0.10493
 Alpha virt. eigenvalues --    0.12603   0.14261   0.14665   0.15251   0.15693
 Alpha virt. eigenvalues --    0.16588   0.16924   0.18473   0.20453   0.21906

 Mulliken charges:
               1
     1  C   -0.416958
     2  C   -0.025492
     3  C   -0.121875
     4  C    0.138387
     5  O   -0.270873
     6  C   -0.145977
     7  C    0.386950
     8  C   -0.485757
     9  O   -0.321041
    10  H    0.134321
    11  H    0.129279
    12  H    0.121742
    13  H    0.122154
    14  H    0.109643
    15  H    0.113660
    16  H    0.096042
    17  H    0.142738
    18  H    0.146398
    19  H    0.146658
 Sum of Mulliken charges =   0.00000

 Dipole moment (field-independent basis, Debye):
    X=              1.7738    Y=              3.6952    Z=             -1.5406  Tot=              4.3789
 Quadrupole moment (field-independent basis, Debye-Ang):
   XX=            -55.5169   YY=            -57.2975   ZZ=            -53.8617
   XY=             -5.5554   XZ=             -5.2809   YZ=             -0.0814

  Exact polarizability:  88.138   1.609  81.777   0.087  -1.680  67.955
 Approx polarizability: 119.526  10.150 117.067   4.778  -3.438 113.059

                      1                      2                      3
                      A                      A                      A
 Frequencies --     45.8669                88.1529               135.7374
 Red. masses --      4.0033                 5.8983                 1.1668
 Frc consts  --      0.0050                 0.0270                 0.0127
 IR Inten    --      2.6429                 6.4654                 0.5588

                      4                      5                      6
                      A                      A                      A
 Frequencies --    158.9471               180.9843               205.5742
 Red. masses --      2.4687                 3.2213                 1.4050
 Frc consts  --      0.0367                 0.0622                 0.0350
 IR Inten    --      0.5037                 4.6866                 1.2131

                      7                      8                      9
                      A                      A                      A
 Frequencies --    235.9773               249.0785               361.4301
 Red. masses --      2.4636                 1.9976                 3.6765
 Frc consts  --      0.0808                 0.0730                 0.2830
 IR Inten    --      3.7685                 4.2136                 2.8333

                     10                     11                     12
                      A                      A                      A
 Frequencies --    366.8103               420.9013               489.9528
 Red. masses --      3.0366                 3.0441                 4.8577
 Frc consts  --      0.2407                 0.3177                 0.6871
 IR Inten    --      2.2608                 0.8037                12.8212

                     13                     14                     15
                      A                      A                      A
 Frequencies --    593.3623               618.4981               757.2082
 Red. masses --      3.0317                 3.1880                 3.7376
 Frc consts  --      0.6289                 0.7185                 1.2626
 IR Inten    --      7.6905                 4.7266                 3.7483

                     16                     17                     18
                      A                      A                      A
 Frequencies --    825.2488               877.1089               938.1387
 Red. masses --      2.2433                 2.4651                 2.1766
 Frc consts  --      0.9001                 1.1173                 1.1287
 IR Inten    --      1.8709                16.0357                 9.5703

                     19                     20                     21
                      A                      A                      A
 Frequencies --    963.2926               982.2895              1038.6598
 Red. masses --      1.2525                 1.7207                 2.3357
 Frc consts  --      0.6848                 0.9782                 1.4846
 IR Inten    --     19.9197                65.3189                23.0457

                     22                     23                     24
                      A                      A                      A
 Frequencies --   1052.1386              1060.9606              1109.7880
 Red. masses --      1.9335                 1.8616                 1.6424
 Frc consts  --      1.2610                 1.2346                 1.1918
 IR Inten    --      1.6946                16.3115                 6.6711

                     25                     26                     27
                      A                      A                      A
 Frequencies --   1123.1658              1147.3925              1177.2888
 Red. masses --      1.4329                 1.4484                 1.9284
 Frc consts  --      1.0650                 1.1234                 1.5747
 IR Inten    --     12.0623                17.4804                41.8837

                     28                     29                     30
                      A                      A                      A
 Frequencies --   1203.0180              1220.7359              1290.5279
 Red. masses --      2.3685                 1.5817                 1.3259
 Frc consts  --      2.0196                 1.3887                 1.3011
 IR Inten    --     48.5925                18.6428                 5.2156

                     31                     32                     33
                      A                      A                      A
 Frequencies --   1362.7464              1383.1986              1416.6968
 Red. masses --      1.4175                 1.4054                 1.2318
 Frc consts  --      1.5510                 1.5842                 1.4566
 IR Inten    --     17.9946                47.3184                 5.9833

                     34                     35                     36
                      A                      A                      A
 Frequencies --   1424.8329              1460.5795              1466.0433
 Red. masses --      1.3158                 1.2535                 1.6512
 Frc consts  --      1.5739                 1.5756                 2.0910
 IR Inten    --      4.3170                28.4113                33.4736

                     37                     38                     39
                      A                      A                      A
 Frequencies --   1473.8270              1490.2035              1501.2440
 Red. masses --      1.0527                 1.0441                 1.0929
 Frc consts  --      1.3472                 1.3661                 1.4512
 IR Inten    --     10.8937                 1.6424                10.5814

                     40                     41                     42
                      A                      A                      A
 Frequencies --   1790.5061              1805.5462              2964.9380
 Red. masses --     10.2663                 9.4297                 1.0854
 Frc consts  --     19.3917                18.1119                 5.6219
 IR Inten    --    113.5350               227.8176                33.3412

                     43                     44                     45
                      A                      A                      A
 Frequencies --   3033.8481              3034.5458              3093.5997
 Red. masses --      1.0374                 1.0350                 1.0981
 Frc consts  --      5.6256                 5.6154                 6.1918
 IR Inten    --      1.7693                25.4812                 5.8528

                     46                     47                     48
                      A                      A                      A
 Frequencies --   3102.0214              3104.6938              3146.3601
 Red. masses --      1.1015                 1.1006                 1.0884
 Frc consts  --      6.2448                 6.2503                 6.3481
 IR Inten    --     16.8703                15.6159                 2.9634

                     49                     50                     51
                      A                      A                      A
 Frequencies --   3155.9052              3158.1640              3169.4136
 Red. masses --      1.0961                 1.0929                 1.0881
 Frc consts  --      6.4320                 6.4226                 6.4398
 IR Inten    --      8.9128                 4.1619                 9.4501

 - Thermochemistry -
 -------------------
 Temperature   298.150 Kelvin.  Pressure   1.00000 Atm.
 Atom     1 has atomic number  6 and mass  12.00000

 Molecular mass:   126.06808 amu.
 Principal axes and moments of inertia in atomic units:
                           1         2         3
     Eigenvalues --   994.713071383.755952011.56677
           X            0.99337  -0.11144  -0.02836
           Y            0.11135   0.99377  -0.00458
           Z            0.02870   0.00139   0.99959
 This molecule is an asymmetric top.
 Rotational symmetry number  1.
 Warning -- assumption of classical behavior for rotation
           may cause significant error
 Rotational temperatures (Kelvin)      0.08707     0.06259     0.04306
 Rotational constants (GHZ):           1.81433     1.30423     0.89718
 Zero-point vibrational energy     409464.7 (Joules/Mol)
                                   97.86441 (Kcal/Mol)
 Warning -- explicit consideration of  14 degrees of freedom as
           vibrations may cause significant error
 Vibrational temperatures:     65.99   126.83   195.30   228.69   260.40
          (Kelvin)            295.78   339.52   358.37   520.02   527.76
                              605.58   704.93   853.71   889.88  1089.45
                             1187.35  1261.96  1349.77  1385.96  1413.29
                             1494.40  1513.79  1526.48  1596.74  1615.98
                             1650.84  1693.85  1730.87  1756.36  1856.78
                             1960.69  1990.11  2038.31  2050.01  2101.45
                             2109.31  2120.51  2144.07  2159.95  2576.14
                             2597.78  4265.88  4365.03  4366.03  4450.99
                             4463.11  4466.96  4526.90  4540.64  4543.89
                             4560.07

 Zero-point correction=                           0.155957 (Hartree/Particle)
 Thermal correction to Energy=                    0.165982
 Thermal correction to Enthalpy=                  0.166926
 Thermal correction to Gibbs Free Energy=         0.120283
 Sum of electronic and zero-point Energies=           -423.054624
 Sum of electronic and thermal Energies=              -423.044598
 Sum of electronic and thermal Enthalpies=            -423.043654
 Sum of electronic and thermal Free Energies=         -423.090298

                     E (Thermal)             CV                S
                      KCal/Mol        Cal/Mol-Kelvin    Cal/Mol-Kelvin
 Total                  104.155             35.320             98.169
 Electronic               0.000              0.000              0.000
 Translational            0.889              2.981             40.409
 Rotational               0.889              2.981             29.406
 Vibrational            102.378             29.358             28.355
 Vibration     1          0.595              1.979              4.988
 Vibration     2          0.601              1.958              3.701
 Vibration     3          0.614              1.918              2.863
 Vibration     4          0.621              1.893              2.562
 Vibration     5          0.630              1.866              2.318
 Vibration     6          0.640              1.832              2.083
 Vibration     7          0.655              1.786              1.833
 Vibration     8          0.662              1.764              1.737
 Vibration     9          0.736              1.552              1.116
 Vibration    10          0.740              1.541              1.093
 Vibration    11          0.783              1.425              0.889
 Vibration    12          0.846              1.272              0.684
 Vibration    13          0.951              1.046              0.461
 Vibration    14          0.978              0.993              0.419

 Normal termination of Gaussian 09 at Mon Jan 27 22:41:04 2020.
