 Gaussian 09, Revision D.01,
 Gaussian 09:  ES64L-G09RevD.01 24-Apr-2013

 -----------------------------
 # b3lyp 6-31G(2df,p) opt Freq
 -----------------------------

 -----
 titel
 -----
 Symbolic Z-matrix:
 Charge =  0 Multiplicity = 1

 SCF Done:  E(RB3LYP) =  -423.162682354     A.U. after   15 cycles
 Optimization completed.
    -- Stationary point found.
 Normal termination of Gaussian 09 at Mon Jan 27 14:16:01 2020.

 ----------------------------------------------------------------------
 #N Geom=AllCheck Guess=TCheck SCRF=Check GenChk RB3LYP/6-31G(2df,p) Fr
 eq
 ----------------------------------------------------------------------

 Structure from the checkpoint file:  "/scratch/puck/g09_09cecd19-ecc2-4eb0-b810-59f3a4342e0b/Gau-157946.chk"
 -----
 titel
 -----
 Charge =  0 Multiplicity = 1

                         Standard orientation:
 ---------------------------------------------------------------------
 Center     Atomic      Atomic             Coordinates (Angstroms)
 Number     Number       Type             X           Y           Z
 ---------------------------------------------------------------------
      1          6           0        2.544973   -0.861905   -0.978848
      2          6           0        1.816311    0.062650    0.015359
      3          6           0        1.971776    1.541208   -0.389515
      4          8           0        2.331435   -0.138140    1.338441
      5          6           0        0.392545   -0.291872    0.070023
      6          6           0       -0.773515   -0.589935    0.071704
      7          6           0       -2.197958   -0.887596    0.095035
      8          6           0       -3.053291    0.374117    0.234115
      9          8           0       -4.096547    0.537734   -0.336884
     10          1           0        3.608005   -0.597074   -1.021570
     11          1           0        2.454860   -1.901438   -0.656613
     12          1           0        2.129199   -0.766264   -1.985581
     13          1           0        1.536989    1.729802   -1.374892
     14          1           0        1.477781    2.182836    0.343301
     15          1           0        3.034929    1.806035   -0.428589
     16          1           0        3.267829    0.089425    1.312779
     17          1           0       -2.528264   -1.429546   -0.797141
     18          1           0       -2.432866   -1.525145    0.961453
     19          1           0       -2.632616    1.134611    0.927148
 ---------------------------------------------------------------------

 SCF Done:  E(RB3LYP) =  -423.162682354     A.U. after    1 cycles

 The electronic state is 1-A.
 Alpha  occ. eigenvalues --  -19.14822 -19.14000 -10.28139 -10.26646 -10.22163
 Alpha  occ. eigenvalues --  -10.18582 -10.18518 -10.18514 -10.17930  -1.05615
 Alpha  occ. eigenvalues --   -1.02505  -0.80954  -0.78876  -0.71458  -0.69991
 Alpha  occ. eigenvalues --   -0.62623  -0.59132  -0.51310  -0.49323  -0.48285
 Alpha  occ. eigenvalues --   -0.46941  -0.44866  -0.44166  -0.42470  -0.41977
 Alpha  occ. eigenvalues --   -0.40061  -0.38571  -0.37805  -0.36556  -0.33805
 Alpha  occ. eigenvalues --   -0.28735  -0.27424  -0.26616  -0.24793
 Alpha virt. eigenvalues --   -0.02843   0.03618   0.04924   0.06826   0.11659
 Alpha virt. eigenvalues --    0.12223   0.12928   0.13816   0.15737   0.16213
 Alpha virt. eigenvalues --    0.17710   0.18455   0.19215   0.19488   0.21061

 Mulliken charges:
               1
     1  C   -0.403663
     2  C    0.150351
     3  C   -0.404016
     4  O   -0.453155
     5  C    0.195175
     6  C   -0.026644
     7  C   -0.415625
     8  C    0.172419
     9  O   -0.231187
    10  H    0.104716
    11  H    0.134620
    12  H    0.126388
    13  H    0.126542
    14  H    0.133078
    15  H    0.104798
    16  H    0.278200
    17  H    0.153701
    18  H    0.159000
    19  H    0.095303
 Sum of Mulliken charges =   0.00000

 Dipole moment (field-independent basis, Debye):
    X=              2.9113    Y=             -0.1857    Z=             -0.2431  Tot=              2.9274
 Quadrupole moment (field-independent basis, Debye-Ang):
   XX=            -56.2965   YY=            -52.3388   ZZ=            -54.5896
   XY=              5.6778   XZ=             -5.0388   YZ=              1.0932

  Exact polarizability: 115.075   4.225  68.831   1.514   1.579  62.844
 Approx polarizability: 160.848   9.529  95.469   8.034   0.120  94.967

                      1                      2                      3
                      A                      A                      A
 Frequencies --      8.8882                47.1967                86.6342
 Red. masses --      3.4518                 5.4909                 2.7580
 Frc consts  --      0.0002                 0.0072                 0.0122
 IR Inten    --      1.8793                 3.8500                 3.5317

                      4                      5                      6
                      A                      A                      A
 Frequencies --    117.4392               173.0128               240.2354
 Red. masses --      3.5166                 3.3097                 1.0349
 Frc consts  --      0.0286                 0.0584                 0.0352
 IR Inten    --      6.6850                 2.3508                90.0987

                      7                      8                      9
                      A                      A                      A
 Frequencies --    240.5395               276.4810               301.2919
 Red. masses --      1.0407                 1.1329                 2.5931
 Frc consts  --      0.0355                 0.0510                 0.1387
 IR Inten    --      7.7441                 1.2232                 1.9009

                     10                     11                     12
                      A                      A                      A
 Frequencies --    338.7915               360.6467               387.4923
 Red. masses --      3.8274                 2.4984                 3.9630
 Frc consts  --      0.2588                 0.1915                 0.3506
 IR Inten    --      2.0261                 0.9300                 0.5031

                     13                     14                     15
                      A                      A                      A
 Frequencies --    451.0022               494.9886               562.5181
 Red. masses --      4.0708                 3.6105                 5.3810
 Frc consts  --      0.4879                 0.5212                 1.0032
 IR Inten    --     36.9816                 3.0331                 2.1413

                     16                     17                     18
                      A                      A                      A
 Frequencies --    571.4738               659.4907               750.3027
 Red. masses --      5.5285                 2.6540                 1.8692
 Frc consts  --      1.0638                 0.6801                 0.6200
 IR Inten    --      2.4799                 2.0089                 0.8373

                     19                     20                     21
                      A                      A                      A
 Frequencies --    862.3346               918.4888               960.3616
 Red. masses --      2.6633                 1.5674                 2.3144
 Frc consts  --      1.1668                 0.7791                 1.2577
 IR Inten    --     23.1349                 0.0338                18.1205

                     22                     23                     24
                      A                      A                      A
 Frequencies --   1017.8371              1034.0778              1041.2017
 Red. masses --      1.3158                 3.6232                 1.7905
 Frc consts  --      0.8031                 2.2827                 1.1436
 IR Inten    --      0.3012                48.9399                 1.9516

                     25                     26                     27
                      A                      A                      A
 Frequencies --   1077.7752              1171.4901              1181.5322
 Red. masses --      2.1601                 1.7675                 3.4171
 Frc consts  --      1.4783                 1.4292                 2.8106
 IR Inten    --     10.9547               129.1371                24.6937

                     28                     29                     30
                      A                      A                      A
 Frequencies --   1194.4957              1211.1663              1287.6535
 Red. masses --      2.1915                 1.1978                 1.5426
 Frc consts  --      1.8423                 1.0352                 1.5070
 IR Inten    --     13.0675                 5.2999                11.6660

                     31                     32                     33
                      A                      A                      A
 Frequencies --   1389.6374              1391.2387              1411.5282
 Red. masses --      1.7166                 1.2845                 1.2221
 Frc consts  --      1.9531                 1.4648                 1.4347
 IR Inten    --     59.0377                12.4958                 1.8924

                     34                     35                     36
                      A                      A                      A
 Frequencies --   1414.8952              1438.8021              1476.5045
 Red. masses --      1.1702                 1.1010                 1.0474
 Frc consts  --      1.3803                 1.3429                 1.3453
 IR Inten    --      8.4781                 6.3872                 0.3945

                     37                     38                     39
                      A                      A                      A
 Frequencies --   1479.7375              1492.4844              1509.2139
 Red. masses --      1.0492                 1.0528                 1.0980
 Frc consts  --      1.3535                 1.3817                 1.4735
 IR Inten    --      1.1580                 0.9630                 5.9628

                     40                     41                     42
                      A                      A                      A
 Frequencies --   1841.2062              2370.4733              2902.7176
 Red. masses --     10.2639                11.9124                 1.0851
 Frc consts  --     20.5007                39.4383                 5.3869
 IR Inten    --    213.1826                 3.4802                76.6491

                     43                     44                     45
                      A                      A                      A
 Frequencies --   3002.6687              3029.9292              3035.0605
 Red. masses --      1.0666                 1.0385                 1.0385
 Frc consts  --      5.6659                 5.6172                 5.6364
 IR Inten    --     13.0014                 9.0680                33.7757

                     46                     47                     48
                      A                      A                      A
 Frequencies --   3079.6792              3103.3559              3109.8019
 Red. masses --      1.0918                 1.0974                 1.0969
 Frc consts  --      6.1010                 6.2271                 6.2502
 IR Inten    --      4.7479                 3.3624                45.4027

                     49                     50                     51
                      A                      A                      A
 Frequencies --   3134.1664              3136.5133              3797.4013
 Red. masses --      1.1025                 1.1028                 1.0657
 Frc consts  --      6.3808                 6.3918                 9.0545
 IR Inten    --     11.5552                19.0300                11.7073

 - Thermochemistry -
 -------------------
 Temperature   298.150 Kelvin.  Pressure   1.00000 Atm.
 Atom     1 has atomic number  6 and mass  12.00000

 Molecular mass:   126.06808 amu.
 Principal axes and moments of inertia in atomic units:
                           1         2         3
     Eigenvalues --   486.885612934.148943019.82314
           X            0.99982   0.01208  -0.01475
           Y           -0.01102   0.99750   0.06981
           Z            0.01555  -0.06964   0.99745
 This molecule is an asymmetric top.
 Rotational symmetry number  1.
 Warning -- assumption of classical behavior for rotation
           may cause significant error
 Rotational temperatures (Kelvin)      0.17789     0.02952     0.02868
 Rotational constants (GHZ):           3.70670     0.61508     0.59763
 Zero-point vibrational energy     404181.4 (Joules/Mol)
                                   96.60168 (Kcal/Mol)
 Warning -- explicit consideration of  16 degrees of freedom as
           vibrations may cause significant error
 Vibrational temperatures:     12.79    67.91   124.65   168.97   248.93
          (Kelvin)            345.64   346.08   397.79   433.49   487.44
                              518.89   557.51   648.89   712.18   809.34
                              822.22   948.86  1079.52  1240.71  1321.50
                             1381.74  1464.44  1487.81  1498.06  1550.68
                             1685.51  1699.96  1718.61  1742.60  1852.64
                             1999.38  2001.68  2030.87  2035.72  2070.11
                             2124.36  2129.01  2147.35  2171.42  2649.08
                             3410.58  4176.36  4320.17  4359.39  4366.77
                             4430.97  4465.03  4474.31  4509.36  4512.74
                             5463.61

 Zero-point correction=                           0.153945 (Hartree/Particle)
 Thermal correction to Energy=                    0.165016
 Thermal correction to Enthalpy=                  0.165960
 Thermal correction to Gibbs Free Energy=         0.115228
 Sum of electronic and zero-point Energies=           -423.008738
 Sum of electronic and thermal Energies=              -422.997666
 Sum of electronic and thermal Enthalpies=            -422.996722
 Sum of electronic and thermal Free Energies=         -423.047454

                     E (Thermal)             CV                S
                      KCal/Mol        Cal/Mol-Kelvin    Cal/Mol-Kelvin
 Total                  103.549             38.397            106.774
 Electronic               0.000              0.000              0.000
 Translational            0.889              2.981             40.409
 Rotational               0.889              2.981             29.846
 Vibrational            101.772             32.436             36.520
 Vibration     1          0.593              1.987              8.245
 Vibration     2          0.595              1.979              4.932
 Vibration     3          0.601              1.959              3.735
 Vibration     4          0.608              1.935              3.142
 Vibration     5          0.627              1.876              2.403
 Vibration     6          0.657              1.779              1.801
 Vibration     7          0.658              1.778              1.799
 Vibration     8          0.678              1.717              1.555
 Vibration     9          0.693              1.671              1.410
 Vibration    10          0.719              1.598              1.218
 Vibration    11          0.735              1.553              1.119
 Vibration    12          0.756              1.497              1.010
 Vibration    13          0.810              1.359              0.793
 Vibration    14          0.851              1.261              0.671
 Vibration    15          0.918              1.112              0.519
 Vibration    16          0.928              1.093              0.501

 Optimization completed.
    -- Stationary point found.
 Normal termination of Gaussian 09 at Mon Jan 27 14:50:30 2020.
