 Gaussian 09, Revision D.01,
 Gaussian 09:  ES64L-G09RevD.01 24-Apr-2013

 -----------------------------
 # b3lyp 6-31G(2df,p) opt Freq
 -----------------------------

 -----
 titel
 -----
 Symbolic Z-matrix:
 Charge =  0 Multiplicity = 1

 SCF Done:  E(RB3LYP) =  -423.127998278     A.U. after   14 cycles
 Optimization completed.
    -- Stationary point found.
 Normal termination of Gaussian 09 at Mon Jan 27 22:01:41 2020.

 ----------------------------------------------------------------------
 #N Geom=AllCheck Guess=TCheck SCRF=Check GenChk RB3LYP/6-31G(2df,p) Fr
 eq
 ----------------------------------------------------------------------

 Structure from the checkpoint file:  "/scratch/puck/g09_f0b3a23c-6529-4fd1-b7ed-f710880e95ad/Gau-175804.chk"
 -----
 titel
 -----
 Charge =  0 Multiplicity = 1

                         Standard orientation:
 ---------------------------------------------------------------------
 Center     Atomic      Atomic             Coordinates (Angstroms)
 Number     Number       Type             X           Y           Z
 ---------------------------------------------------------------------
      1          6           0        1.866211    1.354493   -0.024151
      2          6           0        0.586571    0.548244   -0.048826
      3          8           0       -0.490148    1.440944   -0.206444
      4          6           0       -1.737473    0.946165    0.258719
      5          6           0       -1.969452   -0.497432   -0.186972
      6          6           0       -0.656373   -1.256735   -0.032172
      7          6           0        0.433987   -0.683125    0.924708
      8          8           0        1.458379   -1.383832    0.132925
      9          6           0        0.558244   -0.783804   -0.871784
     10          1           0        1.864534    2.036061    0.831848
     11          1           0        2.730667    0.693838    0.038236
     12          1           0        1.936687    1.962500   -0.931283
     13          1           0       -1.759619    0.991828    1.359462
     14          1           0       -2.502282    1.629733   -0.119164
     15          1           0       -2.760634   -0.948300    0.422095
     16          1           0       -2.301226   -0.540600   -1.231439
     17          1           0       -0.745554   -2.343547    0.015513
     18          1           0        0.519663   -0.744284    2.011013
     19          1           0        0.781627   -0.960963   -1.925264
 ---------------------------------------------------------------------

 SCF Done:  E(RB3LYP) =  -423.127998278     A.U. after    1 cycles

 The electronic state is 1-A.
 Alpha  occ. eigenvalues --  -19.14359 -19.13507 -10.24492 -10.24347 -10.23851
 Alpha  occ. eigenvalues --  -10.23313 -10.19929 -10.19035 -10.16884  -1.06676
 Alpha  occ. eigenvalues --   -1.03104  -0.80108  -0.77624  -0.70673  -0.65568
 Alpha  occ. eigenvalues --   -0.63892  -0.60825  -0.52059  -0.51271  -0.48285
 Alpha  occ. eigenvalues --   -0.47091  -0.44819  -0.43058  -0.40225  -0.39035
 Alpha  occ. eigenvalues --   -0.38462  -0.37884  -0.36592  -0.34620  -0.32593
 Alpha  occ. eigenvalues --   -0.31174  -0.30252  -0.25285  -0.23286
 Alpha virt. eigenvalues --    0.07233   0.10713   0.11783   0.12141   0.12255
 Alpha virt. eigenvalues --    0.12999   0.13782   0.14110   0.16049   0.16594
 Alpha virt. eigenvalues --    0.17306   0.18102   0.19230   0.20079   0.21545

 Mulliken charges:
               1
     1  C   -0.466756
     2  C    0.434583
     3  O   -0.313847
     4  C   -0.074599
     5  C   -0.265746
     6  C   -0.015349
     7  C   -0.042610
     8  O   -0.309659
     9  C   -0.006738
    10  H    0.118998
    11  H    0.140127
    12  H    0.123630
    13  H    0.094788
    14  H    0.109674
    15  H    0.105525
    16  H    0.109617
    17  H    0.082769
    18  H    0.088633
    19  H    0.086962
 Sum of Mulliken charges =   0.00000

 Dipole moment (field-independent basis, Debye):
    X=             -1.8625    Y=              0.0008    Z=              0.2292  Tot=              1.8766
 Quadrupole moment (field-independent basis, Debye-Ang):
   XX=            -52.7739   YY=            -57.3070   ZZ=            -50.0763
   XY=              3.1841   XZ=             -0.8945   YZ=              1.0948

  Exact polarizability:  81.987   2.132  73.207  -0.771   0.814  68.414
 Approx polarizability: 112.233  -2.108 107.064  -0.820  -0.734 109.582

                      1                      2                      3
                      A                      A                      A
 Frequencies --    188.0222               211.3641               224.4246
 Red. masses --      2.6745                 1.1624                 1.8719
 Frc consts  --      0.0557                 0.0306                 0.0555
 IR Inten    --      2.0629                 0.3765                 1.2955

                      4                      5                      6
                      A                      A                      A
 Frequencies --    325.6941               335.6184               432.4469
 Red. masses --      2.7805                 2.1994                 3.2992
 Frc consts  --      0.1738                 0.1460                 0.3635
 IR Inten    --      3.1387                 0.8360                 2.5437

                      7                      8                      9
                      A                      A                      A
 Frequencies --    441.8882               502.4653               579.6166
 Red. masses --      5.2863                 4.5000                 6.0974
 Frc consts  --      0.6082                 0.6694                 1.2069
 IR Inten    --      5.4613                 1.2365                 1.8622

                     10                     11                     12
                      A                      A                      A
 Frequencies --    655.9719               696.2871               767.2415
 Red. masses --      3.8983                 2.2307                 3.8674
 Frc consts  --      0.9883                 0.6372                 1.3413
 IR Inten    --      2.2687                 0.4806                10.1214

                     13                     14                     15
                      A                      A                      A
 Frequencies --    812.8256               837.2285               870.6855
 Red. masses --      2.6704                 2.6013                 2.4125
 Frc consts  --      1.0395                 1.0743                 1.0775
 IR Inten    --      0.4435                 0.6290                 6.3138

                     16                     17                     18
                      A                      A                      A
 Frequencies --    884.6536               915.4825               933.9300
 Red. masses --      3.2911                 2.6446                 1.8589
 Frc consts  --      1.5175                 1.3059                 0.9553
 IR Inten    --      8.5160                10.7699                25.3890

                     19                     20                     21
                      A                      A                      A
 Frequencies --    955.7111              1020.7569              1062.5071
 Red. masses --      2.3897                 1.1675                 1.6313
 Frc consts  --      1.2860                 0.7167                 1.0851
 IR Inten    --      6.5116                 2.1693                15.5429

                     22                     23                     24
                      A                      A                      A
 Frequencies --   1091.9608              1109.1879              1121.2234
 Red. masses --      2.5076                 2.2972                 4.8215
 Frc consts  --      1.7616                 1.6651                 3.5712
 IR Inten    --      3.6210                15.2126                49.0509

                     25                     26                     27
                      A                      A                      A
 Frequencies --   1143.5035              1150.7448              1183.5120
 Red. masses --      1.6837                 1.3536                 2.2097
 Frc consts  --      1.2972                 1.0561                 1.8236
 IR Inten    --      5.4023                 2.9963                66.1936

                     28                     29                     30
                      A                      A                      A
 Frequencies --   1195.1014              1220.2813              1259.2061
 Red. masses --      1.7047                 2.2759                 1.4236
 Frc consts  --      1.4346                 1.9967                 1.3299
 IR Inten    --     13.4509                12.7120                24.5383

                     31                     32                     33
                      A                      A                      A
 Frequencies --   1262.1885              1270.0422              1325.4089
 Red. masses --      1.4473                 1.5887                 2.0625
 Frc consts  --      1.3585                 1.5098                 2.1348
 IR Inten    --     28.8824                14.7021                18.1544

                     34                     35                     36
                      A                      A                      A
 Frequencies --   1349.5999              1376.6573              1401.7868
 Red. masses --      1.6834                 1.5866                 1.4017
 Frc consts  --      1.8066                 1.7717                 1.6228
 IR Inten    --      9.3146                10.8914                14.6713

                     37                     38                     39
                      A                      A                      A
 Frequencies --   1415.6602              1483.7928              1490.6906
 Red. masses --      1.3437                 1.0875                 1.0568
 Frc consts  --      1.5867                 1.4106                 1.3836
 IR Inten    --     10.4487                 2.4753                 2.3023

                     40                     41                     42
                      A                      A                      A
 Frequencies --   1492.2241              1509.5828              2974.5932
 Red. masses --      1.0510                 1.0953                 1.0719
 Frc consts  --      1.3789                 1.4706                 5.5879
 IR Inten    --      4.0739                 1.2074                47.9258

                     43                     44                     45
                      A                      A                      A
 Frequencies --   3031.5915              3048.4061              3073.7481
 Red. masses --      1.0605                 1.0373                 1.1006
 Frc consts  --      5.7427                 5.6794                 6.1265
 IR Inten    --     27.5867                20.3603                26.9887

                     46                     47                     48
                      A                      A                      A
 Frequencies --   3092.2415              3097.7707              3101.1302
 Red. masses --      1.0939                 1.0870                 1.0891
 Frc consts  --      6.1627                 6.1455                 6.1710
 IR Inten    --     35.8075                22.6228                85.5969

                     49                     50                     51
                      A                      A                      A
 Frequencies --   3108.9903              3111.7841              3158.3020
 Red. masses --      1.1008                 1.0954                 1.0994
 Frc consts  --      6.2691                 6.2495                 6.4613
 IR Inten    --     17.2976                14.4561                 6.5298

 - Thermochemistry -
 -------------------
 Temperature   298.150 Kelvin.  Pressure   1.00000 Atm.
 Atom     1 has atomic number  6 and mass  12.00000

 Molecular mass:   126.06808 amu.
 Principal axes and moments of inertia in atomic units:
                           1         2         3
     Eigenvalues --   675.09869 899.865891328.15172
           X            0.99165   0.12888  -0.00516
           Y           -0.12880   0.99158   0.01305
           Z            0.00680  -0.01228   0.99990
 This molecule is an asymmetric top.
 Rotational symmetry number  1.
 Warning -- assumption of classical behavior for rotation
           may cause significant error
 Rotational temperatures (Kelvin)      0.12830     0.09625     0.06521
 Rotational constants (GHZ):           2.67330     2.00557     1.35884
 Zero-point vibrational energy     420521.7 (Joules/Mol)
                                  100.50709 (Kcal/Mol)
 Warning -- explicit consideration of   9 degrees of freedom as
           vibrations may cause significant error
 Vibrational temperatures:    270.52   304.11   322.90   468.60   482.88
          (Kelvin)            622.19   635.78   722.93   833.94   943.80
                             1001.80  1103.89  1169.47  1204.58  1252.72
                             1272.82  1317.17  1343.72  1375.05  1468.64
                             1528.71  1571.09  1595.87  1613.19  1645.24
                             1655.66  1702.81  1719.48  1755.71  1811.71
                             1816.01  1827.31  1906.97  1941.77  1980.70
                             2016.86  2036.82  2134.84  2144.77  2146.98
                             2171.95  4279.77  4361.78  4385.97  4422.43
                             4449.04  4457.00  4461.83  4473.14  4477.16
                             4544.09

 Zero-point correction=                           0.160168 (Hartree/Particle)
 Thermal correction to Energy=                    0.167423
 Thermal correction to Enthalpy=                  0.168367
 Thermal correction to Gibbs Free Energy=         0.128986
 Sum of electronic and zero-point Energies=           -422.967830
 Sum of electronic and thermal Energies=              -422.960576
 Sum of electronic and thermal Enthalpies=            -422.959632
 Sum of electronic and thermal Free Energies=         -422.999012

                     E (Thermal)             CV                S
                      KCal/Mol        Cal/Mol-Kelvin    Cal/Mol-Kelvin
 Total                  105.059             29.857             82.883
 Electronic               0.000              0.000              0.000
 Translational            0.889              2.981             40.409
 Rotational               0.889              2.981             28.180
 Vibrational            103.282             23.895             14.294
 Vibration     1          0.633              1.856              2.247
 Vibration     2          0.643              1.824              2.032
 Vibration     3          0.649              1.804              1.923
 Vibration     4          0.710              1.624              1.281
 Vibration     5          0.717              1.604              1.233
 Vibration     6          0.793              1.400              0.851
 Vibration     7          0.802              1.379              0.821
 Vibration     8          0.858              1.245              0.652
 Vibration     9          0.936              1.075              0.486

 Normal termination of Gaussian 09 at Mon Jan 27 22:55:35 2020.
