 Gaussian 09, Revision D.01,
 Gaussian 09:  ES64L-G09RevD.01 24-Apr-2013

 -----------------------------
 # b3lyp 6-31G(2df,p) opt Freq
 -----------------------------

 -----
 titel
 -----
 Symbolic Z-matrix:
 Charge =  0 Multiplicity = 1

 SCF Done:  E(RB3LYP) =  -423.130231306     A.U. after   14 cycles
 Optimization completed.
    -- Stationary point found.
 Normal termination of Gaussian 09 at Mon Jan 27 17:07:29 2020.

 ----------------------------------------------------------------------
 #N Geom=AllCheck Guess=TCheck SCRF=Check GenChk RB3LYP/6-31G(2df,p) Fr
 eq
 ----------------------------------------------------------------------

 Structure from the checkpoint file:  "/scratch/puck/g09_257a1e3a-b040-490d-b2fe-f350d81f479e/Gau-165913.chk"
 -----
 titel
 -----
 Charge =  0 Multiplicity = 1

                         Standard orientation:
 ---------------------------------------------------------------------
 Center     Atomic      Atomic             Coordinates (Angstroms)
 Number     Number       Type             X           Y           Z
 ---------------------------------------------------------------------
      1          6           0       -1.168990   -1.172496    1.446502
      2          6           0       -0.779128   -0.410763    0.221361
      3          6           0       -0.690261   -0.878638   -1.258335
      4          6           0       -0.550628    0.653870   -1.214948
      5          8           0       -1.665116    0.701121   -0.255118
      6          6           0        0.446832    0.540208    0.000637
      7          6           0        0.575627    1.771256    0.893603
      8          6           0        1.806627   -0.068325   -0.228522
      9          8           0        2.113847   -1.209698    0.017744
     10          1           0       -0.413258   -1.936811    1.649265
     11          1           0       -1.235809   -0.507628    2.313114
     12          1           0       -2.138392   -1.659337    1.305595
     13          1           0        0.159611   -1.490442   -1.559056
     14          1           0       -1.638360   -1.223095   -1.671707
     15          1           0       -0.553119    1.385444   -2.023598
     16          1           0        1.277225    2.495798    0.465101
     17          1           0       -0.399673    2.246736    1.002766
     18          1           0        0.949705    1.499710    1.886814
     19          1           0        2.561748    0.647571   -0.631095
 ---------------------------------------------------------------------

 SCF Done:  E(RB3LYP) =  -423.130231306     A.U. after    1 cycles

 The electronic state is 1-A.
 Alpha  occ. eigenvalues --  -19.14651 -19.13641 -10.27516 -10.25759 -10.25748
 Alpha  occ. eigenvalues --  -10.21217 -10.19228 -10.18609 -10.18579  -1.06257
 Alpha  occ. eigenvalues --   -1.05004  -0.81282  -0.75541  -0.74276  -0.65198
 Alpha  occ. eigenvalues --   -0.62040  -0.61474  -0.51888  -0.48507  -0.47811
 Alpha  occ. eigenvalues --   -0.46200  -0.45051  -0.43779  -0.42992  -0.40467
 Alpha  occ. eigenvalues --   -0.39320  -0.38043  -0.37369  -0.35408  -0.33826
 Alpha  occ. eigenvalues --   -0.32382  -0.30799  -0.26056  -0.23998
 Alpha virt. eigenvalues --   -0.03232   0.08890   0.09765   0.11031   0.11234
 Alpha virt. eigenvalues --    0.13246   0.13547   0.14532   0.14645   0.15969
 Alpha virt. eigenvalues --    0.16945   0.17325   0.17825   0.18425   0.19744

 Mulliken charges:
               1
     1  C   -0.524537
     2  C    0.386579
     3  C   -0.278106
     4  C   -0.003000
     5  O   -0.345405
     6  C    0.213818
     7  C   -0.488294
     8  C    0.078634
     9  O   -0.258284
    10  H    0.149801
    11  H    0.132114
    12  H    0.134573
    13  H    0.122071
    14  H    0.107125
    15  H    0.096244
    16  H    0.119710
    17  H    0.152342
    18  H    0.126880
    19  H    0.077737
 Sum of Mulliken charges =   0.00000

 Dipole moment (field-independent basis, Debye):
    X=              0.1099    Y=              1.0297    Z=             -0.3245  Tot=              1.0852
 Quadrupole moment (field-independent basis, Debye-Ang):
   XX=            -59.2532   YY=            -54.2441   ZZ=            -49.8324
   XY=              7.0326   XZ=             -1.0499   YZ=             -0.7689

  Exact polarizability:  77.535   3.388  78.422   0.160  -1.148  72.490
 Approx polarizability: 115.293  -4.660 121.888   0.765  -4.926 105.730

                      1                      2                      3
                      A                      A                      A
 Frequencies --     85.4596               138.5158               191.3517
 Red. masses --      4.3237                 3.8789                 1.6955
 Frc consts  --      0.0186                 0.0438                 0.0366
 IR Inten    --      7.3073                 5.6875                 0.3184

                      4                      5                      6
                      A                      A                      A
 Frequencies --    199.0376               219.7364               275.5076
 Red. masses --      1.0826                 1.2137                 3.3013
 Frc consts  --      0.0253                 0.0345                 0.1476
 IR Inten    --      0.0718                 0.3499                 3.5465

                      7                      8                      9
                      A                      A                      A
 Frequencies --    329.3682               339.6841               374.2957
 Red. masses --      2.7110                 2.3974                 2.9490
 Frc consts  --      0.1733                 0.1630                 0.2434
 IR Inten    --      3.5512                 2.6127                 1.5900

                     10                     11                     12
                      A                      A                      A
 Frequencies --    468.4360               549.8077               623.6282
 Red. masses --      3.6809                 2.8333                 3.9011
 Frc consts  --      0.4759                 0.5046                 0.8939
 IR Inten    --      0.2598                 3.6817                 9.5234

                     13                     14                     15
                      A                      A                      A
 Frequencies --    670.0291               683.1167               740.5651
 Red. masses --      4.2140                 3.1246                 4.0051
 Frc consts  --      1.1146                 0.8591                 1.2942
 IR Inten    --     19.0772                 5.0487                12.7422

                     16                     17                     18
                      A                      A                      A
 Frequencies --    808.2819               875.8145               899.5204
 Red. masses --      3.1359                 2.8665                 2.4493
 Frc consts  --      1.2071                 1.2955                 1.1677
 IR Inten    --      2.7913                36.4574                 7.0170

                     19                     20                     21
                      A                      A                      A
 Frequencies --    927.8677               965.7810               995.7148
 Red. masses --      1.5927                 2.1064                 1.8062
 Frc consts  --      0.8079                 1.1576                 1.0551
 IR Inten    --     23.1863                 7.1116                 1.7658

                     22                     23                     24
                      A                      A                      A
 Frequencies --   1023.7075              1034.3276              1097.1418
 Red. masses --      1.1962                 1.6989                 1.8206
 Frc consts  --      0.7386                 1.0709                 1.2912
 IR Inten    --      7.7312                 5.2843                 4.4315

                     25                     26                     27
                      A                      A                      A
 Frequencies --   1134.6968              1147.9265              1179.4194
 Red. masses --      1.8213                 1.7061                 2.4679
 Frc consts  --      1.3816                 1.3246                 2.0227
 IR Inten    --      4.6253                 2.5002                 1.8085

                     28                     29                     30
                      A                      A                      A
 Frequencies --   1201.8339              1222.4341              1241.5561
 Red. masses --      1.6509                 1.9234                 2.2009
 Frc consts  --      1.4049                 1.6934                 1.9989
 IR Inten    --     11.5010                 6.7015                11.2558

                     31                     32                     33
                      A                      A                      A
 Frequencies --   1257.3104              1348.8567              1391.0069
 Red. masses --      2.7197                 2.3214                 1.2359
 Frc consts  --      2.5332                 2.4885                 1.4089
 IR Inten    --     11.4726                13.6206                 6.6035

                     34                     35                     36
                      A                      A                      A
 Frequencies --   1411.2414              1426.4567              1479.7635
 Red. masses --      1.6816                 1.2176                 1.0493
 Frc consts  --      1.9732                 1.4598                 1.3538
 IR Inten    --     23.1034                 4.1089                 3.9573

                     37                     38                     39
                      A                      A                      A
 Frequencies --   1484.2073              1489.7436              1499.3615
 Red. masses --      1.0511                 1.0657                 1.1871
 Frc consts  --      1.3643                 1.3935                 1.5723
 IR Inten    --      8.9565                 0.5684                 4.9581

                     40                     41                     42
                      A                      A                      A
 Frequencies --   1507.4382              1809.7584              2853.6630
 Red. masses --      1.0708                10.7302                 1.0816
 Frc consts  --      1.4336                20.7061                 5.1895
 IR Inten    --      7.5571               132.7517               128.1132

                     43                     44                     45
                      A                      A                      A
 Frequencies --   3034.3046              3042.0466              3089.6595
 Red. masses --      1.0380                 1.0345                 1.0550
 Frc consts  --      5.6306                 5.6406                 5.9338
 IR Inten    --     26.1584                12.3461                23.6940

                     46                     47                     48
                      A                      A                      A
 Frequencies --   3091.0894              3115.2727              3116.8362
 Red. masses --      1.1005                 1.1016                 1.0923
 Frc consts  --      6.1951                 6.2992                 6.2517
 IR Inten    --     18.0254                11.6964                47.6146

                     49                     50                     51
                      A                      A                      A
 Frequencies --   3124.9994              3145.6761              3167.6926
 Red. masses --      1.1014                 1.0977                 1.1124
 Frc consts  --      6.3370                 6.4000                 6.5763
 IR Inten    --      6.1531                 1.6894                14.4922

 - Thermochemistry -
 -------------------
 Temperature   298.150 Kelvin.  Pressure   1.00000 Atm.
 Atom     1 has atomic number  6 and mass  12.00000

 Molecular mass:   126.06808 amu.
 Principal axes and moments of inertia in atomic units:
                           1         2         3
     Eigenvalues --   815.709971116.508751232.21222
           X            0.99067   0.13503  -0.01859
           Y           -0.13466   0.99069   0.02002
           Z            0.02112  -0.01733   0.99963
 This molecule is an asymmetric top.
 Rotational symmetry number  1.
 Warning -- assumption of classical behavior for rotation
           may cause significant error
 Rotational temperatures (Kelvin)      0.10618     0.07758     0.07029
 Rotational constants (GHZ):           2.21248     1.61641     1.46464
 Zero-point vibrational energy     409906.1 (Joules/Mol)
                                   97.96991 (Kcal/Mol)
 Warning -- explicit consideration of  11 degrees of freedom as
           vibrations may cause significant error
 Vibrational temperatures:    122.96   199.29   275.31   286.37   316.15
          (Kelvin)            396.39   473.89   488.73   538.53   673.97
                              791.05   897.26   964.02   982.85  1065.51
                             1162.94  1260.10  1294.21  1334.99  1389.54
                             1432.61  1472.88  1488.16  1578.54  1632.57
                             1651.61  1696.92  1729.17  1758.81  1786.32
                             1808.99  1940.70  2001.35  2030.46  2052.35
                             2129.05  2135.44  2143.41  2157.24  2168.86
                             2603.84  4105.78  4365.68  4376.82  4445.33
                             4447.38  4482.18  4484.43  4496.17  4525.92
                             4557.60

 Zero-point correction=                           0.156125 (Hartree/Particle)
 Thermal correction to Energy=                    0.165109
 Thermal correction to Enthalpy=                  0.166054
 Thermal correction to Gibbs Free Energy=         0.122799
 Sum of electronic and zero-point Energies=           -422.974106
 Sum of electronic and thermal Energies=              -422.965122
 Sum of electronic and thermal Enthalpies=            -422.964178
 Sum of electronic and thermal Free Energies=         -423.007432

                     E (Thermal)             CV                S
                      KCal/Mol        Cal/Mol-Kelvin    Cal/Mol-Kelvin
 Total                  103.608             33.951             91.036
 Electronic               0.000              0.000              0.000
 Translational            0.889              2.981             40.409
 Rotational               0.889              2.981             28.508
 Vibrational            101.830             27.989             22.119
 Vibration     1          0.601              1.959              3.761
 Vibration     2          0.614              1.915              2.824
 Vibration     3          0.634              1.852              2.215
 Vibration     4          0.637              1.841              2.142
 Vibration     5          0.647              1.811              1.961
 Vibration     6          0.677              1.719              1.561
 Vibration     7          0.712              1.617              1.263
 Vibration     8          0.720              1.596              1.214
 Vibration     9          0.745              1.525              1.062
 Vibration    10          0.826              1.320              0.742
 Vibration    11          0.905              1.140              0.545

 Normal termination of Gaussian 09 at Mon Jan 27 17:55:15 2020.
