 Gaussian 09, Revision D.01,
 Gaussian 09:  ES64L-G09RevD.01 24-Apr-2013

 -----------------------------
 # b3lyp 6-31G(2df,p) opt Freq
 -----------------------------

 -----
 titel
 -----
 Symbolic Z-matrix:
 Charge =  0 Multiplicity = 1

 SCF Done:  E(RB3LYP) =  -423.121709601     A.U. after   14 cycles
 Optimization completed.
    -- Stationary point found.
 Normal termination of Gaussian 09 at Tue Jan 28 08:18:33 2020.

 ----------------------------------------------------------------------
 #N Geom=AllCheck Guess=TCheck SCRF=Check GenChk RB3LYP/6-31G(2df,p) Fr
 eq
 ----------------------------------------------------------------------

 Structure from the checkpoint file:  "/scratch/puck/g09_6280818b-64a1-44e2-a472-d326f9ff65ea/Gau-79702.chk"
 -----
 titel
 -----
 Charge =  0 Multiplicity = 1

                         Standard orientation:
 ---------------------------------------------------------------------
 Center     Atomic      Atomic             Coordinates (Angstroms)
 Number     Number       Type             X           Y           Z
 ---------------------------------------------------------------------
      1          6           0       -0.413142    1.836692    1.168202
      2          6           0       -0.706481    0.438198    0.612243
      3          6           0       -1.648621    0.487742   -0.604788
      4          8           0       -2.220352   -0.767435   -0.910791
      5          6           0        0.581169   -0.307907    0.259589
      6          6           0        1.072622   -1.398164    1.128741
      7          8           0        0.392552   -1.707045   -0.085513
      8          6           0        1.528650    0.382757   -0.585629
      9          6           0        2.303887    0.975494   -1.287485
     10          1           0       -1.340258    2.312979    1.500001
     11          1           0        0.268985    1.791663    2.022968
     12          1           0        0.046808    2.476292    0.409083
     13          1           0       -1.217109   -0.157500    1.378262
     14          1           0       -2.483419    1.162901   -0.385553
     15          1           0       -1.105638    0.912325   -1.466221
     16          1           0       -1.509717   -1.419535   -0.902075
     17          1           0        2.133164   -1.639894    1.135024
     18          1           0        0.528470   -1.622751    2.044940
     19          1           0        2.992616    1.490492   -1.911245
 ---------------------------------------------------------------------

 SCF Done:  E(RB3LYP) =  -423.121709601     A.U. after    1 cycles

 The electronic state is 1-A.
 Alpha  occ. eigenvalues --  -19.17278 -19.11882 -10.27437 -10.25229 -10.22200
 Alpha  occ. eigenvalues --  -10.20134 -10.19644 -10.19221 -10.18466  -1.09016
 Alpha  occ. eigenvalues --   -1.00325  -0.81336  -0.76212  -0.69301  -0.67651
 Alpha  occ. eigenvalues --   -0.65929  -0.60909  -0.53996  -0.51660  -0.50125
 Alpha  occ. eigenvalues --   -0.48263  -0.44704  -0.43856  -0.42306  -0.40627
 Alpha  occ. eigenvalues --   -0.38910  -0.36708  -0.36396  -0.34971  -0.31091
 Alpha  occ. eigenvalues --   -0.29232  -0.28700  -0.27281  -0.25299
 Alpha virt. eigenvalues --    0.01395   0.03217   0.08446   0.10096   0.11363
 Alpha virt. eigenvalues --    0.11528   0.11904   0.13882   0.15147   0.16084
 Alpha virt. eigenvalues --    0.17033   0.17480   0.18635   0.20646   0.20888

 Mulliken charges:
               1
     1  C   -0.418714
     2  C   -0.088510
     3  C   -0.048178
     4  O   -0.435533
     5  C    0.177933
     6  C   -0.220364
     7  O   -0.280045
     8  C    0.335569
     9  C   -0.435816
    10  H    0.122157
    11  H    0.118477
    12  H    0.135038
    13  H    0.088201
    14  H    0.100560
    15  H    0.093120
    16  H    0.297630
    17  H    0.129436
    18  H    0.124412
    19  H    0.204628
 Sum of Mulliken charges =   0.00000

 Dipole moment (field-independent basis, Debye):
    X=              2.1874    Y=              1.3587    Z=              1.7237  Tot=              3.0987
 Quadrupole moment (field-independent basis, Debye-Ang):
   XX=            -55.4057   YY=            -52.8223   ZZ=            -50.8710
   XY=             -1.5259   XZ=             -3.6200   YZ=             -3.9996

  Exact polarizability:  81.688   3.374  77.115  -7.485  -9.791  72.928
 Approx polarizability: 116.221  13.819 117.002 -15.074 -18.546 111.069

                      1                      2                      3
                      A                      A                      A
 Frequencies --     52.3377               143.5866               155.0850
 Red. masses --      5.0237                 3.7476                 3.5818
 Frc consts  --      0.0081                 0.0455                 0.0508
 IR Inten    --      0.2681                 0.0953                 3.4173

                      4                      5                      6
                      A                      A                      A
 Frequencies --    182.6941               218.1668               242.7478
 Red. masses --      2.4249                 1.1967                 2.9255
 Frc consts  --      0.0477                 0.0336                 0.1016
 IR Inten    --      1.2839                 0.8281                 5.4325

                      7                      8                      9
                      A                      A                      A
 Frequencies --    249.2552               297.2887               365.4451
 Red. masses --      2.9364                 2.9161                 4.7712
 Frc consts  --      0.1075                 0.1518                 0.3754
 IR Inten    --      3.1552                 0.3230                 8.4414

                     10                     11                     12
                      A                      A                      A
 Frequencies --    410.9365               437.8122               502.5507
 Red. masses --      1.1615                 3.0008                 4.2848
 Frc consts  --      0.1156                 0.3389                 0.6376
 IR Inten    --     91.4478                 2.0788                12.7018

                     13                     14                     15
                      A                      A                      A
 Frequencies --    565.6696               597.6098               630.9514
 Red. masses --      5.7348                 5.1222                 1.2263
 Frc consts  --      1.0812                 1.0778                 0.2876
 IR Inten    --      2.8293                 9.7648                40.4379

                     16                     17                     18
                      A                      A                      A
 Frequencies --    652.7298               668.4509               828.5286
 Red. masses --      3.2288                 1.2532                 6.9960
 Frc consts  --      0.8105                 0.3299                 2.8295
 IR Inten    --      3.0238                33.4275                21.2814

                     19                     20                     21
                      A                      A                      A
 Frequencies --    864.8129               912.7343               942.7446
 Red. masses --      1.6645                 1.5159                 1.5633
 Frc consts  --      0.7335                 0.7441                 0.8186
 IR Inten    --      9.3321                 3.9714                 2.9543

                     22                     23                     24
                      A                      A                      A
 Frequencies --    967.6542              1049.1102              1080.2380
 Red. masses --      4.4367                 1.5390                 4.8219
 Frc consts  --      2.4477                 0.9980                 3.3152
 IR Inten    --     38.5985                16.2630                73.8026

                     25                     26                     27
                      A                      A                      A
 Frequencies --   1105.8364              1131.5099              1151.1041
 Red. masses --      2.5347                 1.3542                 1.9517
 Frc consts  --      1.8262                 1.0215                 1.5237
 IR Inten    --     35.8948                 3.9999                 0.8696

                     28                     29                     30
                      A                      A                      A
 Frequencies --   1168.2780              1216.6571              1268.5668
 Red. masses --      1.3612                 1.3161                 2.2989
 Frc consts  --      1.0946                 1.1478                 2.1797
 IR Inten    --      1.7971                 7.2590                15.8068

                     31                     32                     33
                      A                      A                      A
 Frequencies --   1303.9766              1314.1150              1387.3925
 Red. masses --      1.3541                 2.1825                 1.3242
 Frc consts  --      1.3566                 2.2206                 1.5017
 IR Inten    --      1.7653                27.9002                 2.5434

                     34                     35                     36
                      A                      A                      A
 Frequencies --   1398.7851              1410.0124              1453.9765
 Red. masses --      1.7998                 1.2251                 1.2209
 Frc consts  --      2.0748                 1.4351                 1.5206
 IR Inten    --      4.4317                 3.9190                74.7433

                     37                     38                     39
                      A                      A                      A
 Frequencies --   1495.0758              1500.8998              1514.0342
 Red. masses --      1.0481                 1.0578                 1.0894
 Frc consts  --      1.3804                 1.4040                 1.4713
 IR Inten    --      6.8016                 3.9253                 2.1904

                     40                     41                     42
                      A                      A                      A
 Frequencies --   1514.6723              2236.9186              2964.9639
 Red. masses --      1.2071                 5.9493                 1.0703
 Frc consts  --      1.6317                17.5394                 5.5434
 IR Inten    --      0.4129                 2.3323                43.2437

                     43                     44                     45
                      A                      A                      A
 Frequencies --   3040.1350              3040.2723              3060.6844
 Red. masses --      1.0776                 1.0404                 1.0921
 Frc consts  --      5.8679                 5.6662                 6.0276
 IR Inten    --     21.9456                12.1900                38.9808

                     46                     47                     48
                      A                      A                      A
 Frequencies --   3088.8040              3109.0647              3117.3710
 Red. masses --      1.0507                 1.1015                 1.1015
 Frc consts  --      5.9061                 6.2735                 6.3068
 IR Inten    --     21.1129                23.4399                22.4255

                     49                     50                     51
                      A                      A                      A
 Frequencies --   3184.8957              3500.0134              3791.3305
 Red. masses --      1.1199                 1.1623                 1.0657
 Frc consts  --      6.6931                 8.3890                 9.0256
 IR Inten    --     14.5251                69.3846                71.4163

 - Thermochemistry -
 -------------------
 Temperature   298.150 Kelvin.  Pressure   1.00000 Atm.
 Atom     1 has atomic number  6 and mass  12.00000

 Molecular mass:   126.06808 amu.
 Principal axes and moments of inertia in atomic units:
                           1         2         3
     Eigenvalues --   946.875471279.069711515.80607
           X            0.99903  -0.04307  -0.00883
           Y            0.04301   0.99905  -0.00664
           Z            0.00911   0.00626   0.99994
 This molecule is an asymmetric top.
 Rotational symmetry number  1.
 Warning -- assumption of classical behavior for rotation
           may cause significant error
 Rotational temperatures (Kelvin)      0.09147     0.06772     0.05714
 Rotational constants (GHZ):           1.90600     1.41098     1.19061
 Zero-point vibrational energy     409652.1 (Joules/Mol)
                                   97.90921 (Kcal/Mol)
 Warning -- explicit consideration of  14 degrees of freedom as
           vibrations may cause significant error
 Vibrational temperatures:     75.30   206.59   223.13   262.86   313.89
          (Kelvin)            349.26   358.62   427.73   525.79   591.25
                              629.91   723.06   813.87   859.83   907.80
                              939.13   961.75  1192.07  1244.27  1313.22
                             1356.40  1392.24  1509.43  1554.22  1591.05
                             1627.99  1656.18  1680.89  1750.50  1825.18
                             1876.13  1890.72  1996.15  2012.54  2028.69
                             2091.95  2151.08  2159.46  2178.35  2179.27
                             3218.42  4265.92  4374.07  4374.27  4403.64
                             4444.09  4473.25  4485.20  4582.35  5035.73
                             5454.87

 Zero-point correction=                           0.156028 (Hartree/Particle)
 Thermal correction to Energy=                    0.165905
 Thermal correction to Enthalpy=                  0.166849
 Thermal correction to Gibbs Free Energy=         0.121423
 Sum of electronic and zero-point Energies=           -422.965681
 Sum of electronic and thermal Energies=              -422.955805
 Sum of electronic and thermal Enthalpies=            -422.954860
 Sum of electronic and thermal Free Energies=         -423.000286

                     E (Thermal)             CV                S
                      KCal/Mol        Cal/Mol-Kelvin    Cal/Mol-Kelvin
 Total                  104.107             36.650             95.607
 Electronic               0.000              0.000              0.000
 Translational            0.889              2.981             40.409
 Rotational               0.889              2.981             28.997
 Vibrational            102.330             30.688             26.201
 Vibration     1          0.596              1.977              4.727
 Vibration     2          0.616              1.910              2.756
 Vibration     3          0.620              1.897              2.609
 Vibration     4          0.630              1.863              2.301
 Vibration     5          0.646              1.813              1.974
 Vibration     6          0.659              1.775              1.783
 Vibration     7          0.662              1.764              1.736
 Vibration     8          0.691              1.679              1.432
 Vibration     9          0.739              1.543              1.099
 Vibration    10          0.775              1.446              0.923
 Vibration    11          0.798              1.388              0.834
 Vibration    12          0.858              1.244              0.652
 Vibration    13          0.922              1.106              0.513
 Vibration    14          0.956              1.037              0.454

 Optimization completed.
    -- Stationary point found.
 Normal termination of Gaussian 09 at Tue Jan 28 09:07:58 2020.
