 Gaussian 09, Revision D.01,
 Gaussian 09:  ES64L-G09RevD.01 24-Apr-2013

 -----------------------------
 # b3lyp 6-31G(2df,p) opt Freq
 -----------------------------

 -----
 titel
 -----
 Symbolic Z-matrix:
 Charge =  0 Multiplicity = 1

 SCF Done:  E(RB3LYP) =  -423.185978209     A.U. after   14 cycles
 Optimization completed.
    -- Stationary point found.
 Normal termination of Gaussian 09 at Tue Jan 28 03:58:24 2020.

 ----------------------------------------------------------------------
 #N Geom=AllCheck Guess=TCheck SCRF=Check GenChk RB3LYP/6-31G(2df,p) Fr
 eq
 ----------------------------------------------------------------------

 Structure from the checkpoint file:  "/scratch/puck/g09_f89645fe-277d-4bdb-af30-b13be65e5ba2/Gau-95024.chk"
 -----
 titel
 -----
 Charge =  0 Multiplicity = 1

                         Standard orientation:
 ---------------------------------------------------------------------
 Center     Atomic      Atomic             Coordinates (Angstroms)
 Number     Number       Type             X           Y           Z
 ---------------------------------------------------------------------
      1          6           0       -2.827519   -0.023767    0.710688
      2          6           0       -1.772018    0.111538   -0.381406
      3          8           0       -0.946112   -1.072349   -0.393417
      4          6           0        0.397801   -0.687969   -0.594742
      5          6           0        1.460848   -1.171191    0.402629
      6          8           0        2.460806   -0.144498    0.349706
      7          6           0        1.847437    1.130656    0.074374
      8          6           0        0.442885    0.786653   -0.298016
      9          6           0       -0.791313    1.250152   -0.164112
     10          1           0       -3.511485    0.831004    0.692599
     11          1           0       -3.411975   -0.934497    0.553349
     12          1           0       -2.355506   -0.078581    1.695843
     13          1           0       -2.280262    0.197801   -1.357691
     14          1           0        0.721165   -0.925800   -1.622139
     15          1           0        1.011929   -1.259103    1.403442
     16          1           0        1.951720   -2.111484    0.141313
     17          1           0        1.896715    1.782351    0.957051
     18          1           0        2.416291    1.610142   -0.732407
     19          1           0       -1.104866    2.246510    0.121844
 ---------------------------------------------------------------------

 SCF Done:  E(RB3LYP) =  -423.185978209     A.U. after    1 cycles

 The electronic state is 1-A.
 Alpha  occ. eigenvalues --  -19.13848 -19.13796 -10.23974 -10.23808 -10.23116
 Alpha  occ. eigenvalues --  -10.22569 -10.19213 -10.18954 -10.17776  -1.04293
 Alpha  occ. eigenvalues --   -1.02440  -0.80247  -0.77624  -0.73156  -0.68575
 Alpha  occ. eigenvalues --   -0.60410  -0.58208  -0.55931  -0.50694  -0.49219
 Alpha  occ. eigenvalues --   -0.47271  -0.44501  -0.44251  -0.41265  -0.40200
 Alpha  occ. eigenvalues --   -0.39441  -0.37925  -0.37365  -0.35003  -0.32464
 Alpha  occ. eigenvalues --   -0.31029  -0.27400  -0.25067  -0.23889
 Alpha virt. eigenvalues --    0.00328   0.09072   0.10717   0.11841   0.12378
 Alpha virt. eigenvalues --    0.13622   0.14080   0.15212   0.15882   0.16763
 Alpha virt. eigenvalues --    0.17594   0.17791   0.19775   0.20921   0.22310

 Mulliken charges:
               1
     1  C   -0.390222
     2  C    0.105159
     3  O   -0.292074
     4  C    0.044529
     5  C   -0.100212
     6  O   -0.274792
     7  C   -0.165285
     8  C    0.286456
     9  C   -0.288347
    10  H    0.113359
    11  H    0.129541
    12  H    0.121249
    13  H    0.081492
    14  H    0.082094
    15  H    0.096582
    16  H    0.110676
    17  H    0.114494
    18  H    0.118101
    19  H    0.107201
 Sum of Mulliken charges =   0.00000

 Dipole moment (field-independent basis, Debye):
    X=             -1.0522    Y=              1.5262    Z=             -0.1481  Tot=              1.8597
 Quadrupole moment (field-independent basis, Debye-Ang):
   XX=            -55.7334   YY=            -51.3622   ZZ=            -52.9149
   XY=             -1.3134   XZ=             -1.5359   YZ=              0.0922

  Exact polarizability:  97.971  -3.937  74.634  -2.317   1.229  61.037
 Approx polarizability: 135.861  -9.177 110.140  -3.784   2.699  91.660

                      1                      2                      3
                      A                      A                      A
 Frequencies --     78.4754               157.8506               178.0173
 Red. masses --      4.0412                 2.4261                 2.7391
 Frc consts  --      0.0147                 0.0356                 0.0511
 IR Inten    --      0.0256                 4.6023                 5.3087

                      4                      5                      6
                      A                      A                      A
 Frequencies --    227.8751               311.1084               323.8137
 Red. masses --      1.0757                 2.8395                 2.8960
 Frc consts  --      0.0329                 0.1619                 0.1789
 IR Inten    --      0.0576                 1.8691                 0.4276

                      7                      8                      9
                      A                      A                      A
 Frequencies --    407.3814               467.5338               593.9886
 Red. masses --      3.0358                 3.2476                 4.0402
 Frc consts  --      0.2968                 0.4183                 0.8399
 IR Inten    --      1.5159                 1.6330                 1.2689

                     10                     11                     12
                      A                      A                      A
 Frequencies --    642.5645               675.8385               749.7879
 Red. masses --      2.6534                 5.3951                 4.7206
 Frc consts  --      0.6455                 1.4519                 1.5636
 IR Inten    --      2.9390                 4.9131                 4.4492

                     13                     14                     15
                      A                      A                      A
 Frequencies --    825.2037               851.0596               862.8031
 Red. masses --      1.8183                 1.9601                 2.5561
 Frc consts  --      0.7295                 0.8365                 1.1211
 IR Inten    --     11.1697                16.4493                 1.4303

                     16                     17                     18
                      A                      A                      A
 Frequencies --    908.6696               916.7447              1006.2766
 Red. masses --      3.7251                 2.1758                 1.6548
 Frc consts  --      1.8122                 1.0774                 0.9872
 IR Inten    --     29.7240                 5.6644                15.1890

                     19                     20                     21
                      A                      A                      A
 Frequencies --   1018.1329              1036.0016              1060.3692
 Red. masses --      2.7997                 2.1419                 5.1623
 Frc consts  --      1.7099                 1.3545                 3.4199
 IR Inten    --     22.4252                20.0208                64.3328

                     22                     23                     24
                      A                      A                      A
 Frequencies --   1095.2744              1101.0934              1122.2831
 Red. masses --      2.4280                 2.0126                 2.0507
 Frc consts  --      1.7161                 1.4377                 1.5218
 IR Inten    --      8.0332                 4.3056                13.5450

                     25                     26                     27
                      A                      A                      A
 Frequencies --   1137.6667              1180.1059              1203.5793
 Red. masses --      2.9179                 2.0321                 1.2691
 Frc consts  --      2.2251                 1.6674                 1.0832
 IR Inten    --     61.5037                19.6373                 4.5930

                     28                     29                     30
                      A                      A                      A
 Frequencies --   1211.7492              1263.2540              1300.5298
 Red. masses --      1.2188                 1.3396                 1.8909
 Frc consts  --      1.0544                 1.2595                 1.8843
 IR Inten    --      5.3784                 4.6012                 3.1716

                     31                     32                     33
                      A                      A                      A
 Frequencies --   1319.9513              1325.1308              1363.4447
 Red. masses --      1.3060                 1.4267                 1.3411
 Frc consts  --      1.3406                 1.4761                 1.4689
 IR Inten    --      4.0640                 7.0627                41.7331

                     34                     35                     36
                      A                      A                      A
 Frequencies --   1373.2962              1397.6185              1402.9885
 Red. masses --      1.3805                 1.4821                 1.2774
 Frc consts  --      1.5340                 1.7057                 1.4815
 IR Inten    --      4.3603                 2.9579                 6.5382

                     37                     38                     39
                      A                      A                      A
 Frequencies --   1484.5190              1496.2067              1505.5055
 Red. masses --      1.0530                 1.0476                 1.0858
 Frc consts  --      1.3673                 1.3817                 1.4499
 IR Inten    --      2.5047                 2.1135                 0.1518

                     40                     41                     42
                      A                      A                      A
 Frequencies --   1517.1751              1754.9002              2944.9270
 Red. masses --      1.0925                 8.9342                 1.0817
 Frc consts  --      1.4816                16.2110                 5.5270
 IR Inten    --      1.9526                 1.5666                68.0151

                     43                     44                     45
                      A                      A                      A
 Frequencies --   2958.6713              2996.1663              3009.6450
 Red. masses --      1.0814                 1.0674                 1.0581
 Frc consts  --      5.5772                 5.6454                 5.6471
 IR Inten    --     51.1129                69.3845                45.3451

                     46                     47                     48
                      A                      A                      A
 Frequencies --   3038.5439              3039.9536              3103.3296
 Red. masses --      1.1064                 1.0346                 1.0971
 Frc consts  --      6.0186                 5.6330                 6.2251
 IR Inten    --     31.6613                17.9713                38.4908

                     49                     50                     51
                      A                      A                      A
 Frequencies --   3114.3062              3123.0921              3211.6081
 Red. masses --      1.1012                 1.1028                 1.0960
 Frc consts  --      6.2926                 6.3375                 6.6604
 IR Inten    --     19.6877                21.3959                 5.4796

 - Thermochemistry -
 -------------------
 Temperature   298.150 Kelvin.  Pressure   1.00000 Atm.
 Atom     1 has atomic number  6 and mass  12.00000

 Molecular mass:   126.06808 amu.
 Principal axes and moments of inertia in atomic units:
                           1         2         3
     Eigenvalues --   476.644701448.535651700.39397
           X            0.99989  -0.00481  -0.01402
           Y            0.00480   0.99999  -0.00094
           Z            0.01403   0.00087   0.99990
 This molecule is an asymmetric top.
 Rotational symmetry number  1.
 Warning -- assumption of classical behavior for rotation
           may cause significant error
 Rotational temperatures (Kelvin)      0.18172     0.05979     0.05094
 Rotational constants (GHZ):           3.78634     1.24591     1.06137
 Zero-point vibrational energy     421061.7 (Joules/Mol)
                                  100.63615 (Kcal/Mol)
 Warning -- explicit consideration of   9 degrees of freedom as
           vibrations may cause significant error
 Vibrational temperatures:    112.91   227.11   256.13   327.86   447.62
          (Kelvin)            465.90   586.13   672.68   854.62   924.51
                              972.38  1078.78  1187.28  1224.48  1241.38
                             1307.37  1318.99  1447.81  1464.86  1490.57
                             1525.63  1575.85  1584.23  1614.71  1636.85
                             1697.91  1731.68  1743.43  1817.54  1871.17
                             1899.11  1906.57  1961.69  1975.86  2010.86
                             2018.58  2135.89  2152.71  2166.08  2182.87
                             2524.91  4237.09  4256.86  4310.81  4330.20
                             4371.78  4373.81  4464.99  4480.79  4493.43
                             4620.78

 Zero-point correction=                           0.160374 (Hartree/Particle)
 Thermal correction to Energy=                    0.168270
 Thermal correction to Enthalpy=                  0.169215
 Thermal correction to Gibbs Free Energy=         0.127791
 Sum of electronic and zero-point Energies=           -423.025604
 Sum of electronic and thermal Energies=              -423.017708
 Sum of electronic and thermal Enthalpies=            -423.016764
 Sum of electronic and thermal Free Energies=         -423.058187

                     E (Thermal)             CV                S
                      KCal/Mol        Cal/Mol-Kelvin    Cal/Mol-Kelvin
 Total                  105.591             30.286             87.183
 Electronic               0.000              0.000              0.000
 Translational            0.889              2.981             40.409
 Rotational               0.889              2.981             28.553
 Vibrational            103.814             24.324             18.221
 Vibration     1          0.600              1.964              3.929
 Vibration     2          0.621              1.894              2.575
 Vibration     3          0.628              1.869              2.349
 Vibration     4          0.651              1.799              1.896
 Vibration     5          0.700              1.653              1.356
 Vibration     6          0.708              1.628              1.291
 Vibration     7          0.772              1.454              0.936
 Vibration     8          0.825              1.322              0.744
 Vibration     9          0.952              1.045              0.460

 Normal termination of Gaussian 09 at Tue Jan 28 04:44:19 2020.
