 Gaussian 09, Revision D.01,
 Gaussian 09:  ES64L-G09RevD.01 24-Apr-2013

 -----------------------------
 # b3lyp 6-31G(2df,p) opt Freq
 -----------------------------

 -----
 titel
 -----
 Symbolic Z-matrix:
 Charge =  0 Multiplicity = 1

 SCF Done:  E(RB3LYP) =  -423.254526363     A.U. after   14 cycles
 Optimization completed.
    -- Stationary point found.
 Normal termination of Gaussian 09 at Tue Jan 28 13:19:17 2020.

 ----------------------------------------------------------------------
 #N Geom=AllCheck Guess=TCheck SCRF=Check GenChk RB3LYP/6-31G(2df,p) Fr
 eq
 ----------------------------------------------------------------------

 Structure from the checkpoint file:  "/scratch/puck/g09_c77ef755-cbcf-4d43-8bfe-c2d63401c38e/Gau-7820.chk"
 -----
 titel
 -----
 Charge =  0 Multiplicity = 1

                         Standard orientation:
 ---------------------------------------------------------------------
 Center     Atomic      Atomic             Coordinates (Angstroms)
 Number     Number       Type             X           Y           Z
 ---------------------------------------------------------------------
      1          6           0        3.224034    0.281861    0.208860
      2          6           0        2.041206   -0.661725    0.438549
      3          6           0        0.876482   -0.404742   -0.522787
      4          8           0        0.371137    0.927841   -0.344043
      5          6           0       -0.964909    0.885133   -0.045032
      6          8           0       -1.620019    1.870184    0.154969
      7          6           0       -1.392294   -0.542284   -0.024428
      8          6           0       -2.804052   -0.914682    0.277769
      9          6           0       -0.321666   -1.285353   -0.308313
     10          1           0        3.630826    0.167599   -0.801983
     11          1           0        2.916980    1.323481    0.332077
     12          1           0        4.029835    0.075330    0.918960
     13          1           0        2.356052   -1.705199    0.311457
     14          1           0        1.666567   -0.565370    1.464130
     15          1           0        1.240334   -0.477808   -1.558575
     16          1           0       -3.484970   -0.455282   -0.446751
     17          1           0       -2.949194   -1.997172    0.260665
     18          1           0       -3.098946   -0.533858    1.261360
     19          1           0       -0.269235   -2.365173   -0.376456
 ---------------------------------------------------------------------

 SCF Done:  E(RB3LYP) =  -423.254526363     A.U. after    1 cycles

 The electronic state is 1-A.
 Alpha  occ. eigenvalues --  -19.17501 -19.11590 -10.29591 -10.25539 -10.20955
 Alpha  occ. eigenvalues --  -10.20858 -10.19840 -10.19363 -10.18090  -1.09401
 Alpha  occ. eigenvalues --   -1.01532  -0.82824  -0.79573  -0.72853  -0.68708
 Alpha  occ. eigenvalues --   -0.61999  -0.59473  -0.54974  -0.50347  -0.47730
 Alpha  occ. eigenvalues --   -0.46058  -0.44057  -0.42476  -0.42151  -0.41202
 Alpha  occ. eigenvalues --   -0.39759  -0.39652  -0.37316  -0.36002  -0.35015
 Alpha  occ. eigenvalues --   -0.34346  -0.29593  -0.26969  -0.26432
 Alpha virt. eigenvalues --   -0.03398   0.07780   0.09122   0.10636   0.12038
 Alpha virt. eigenvalues --    0.12689   0.13138   0.14548   0.15531   0.15954
 Alpha virt. eigenvalues --    0.17159   0.18067   0.19482   0.22152   0.22185

 Mulliken charges:
               1
     1  C   -0.385446
     2  C   -0.182670
     3  C    0.069118
     4  O   -0.235768
     5  C    0.384502
     6  O   -0.349119
     7  C    0.164562
     8  C   -0.488561
     9  C   -0.214900
    10  H    0.115971
    11  H    0.144976
    12  H    0.116733
    13  H    0.101631
    14  H    0.110940
    15  H    0.104992
    16  H    0.149212
    17  H    0.124683
    18  H    0.149162
    19  H    0.119983
 Sum of Mulliken charges =   0.00000

 Dipole moment (field-independent basis, Debye):
    X=              1.3131    Y=             -4.1773    Z=             -0.2745  Tot=              4.3874
 Quadrupole moment (field-independent basis, Debye-Ang):
   XX=            -51.0137   YY=            -57.7665   ZZ=            -52.1408
   XY=              4.0755   XZ=              0.0359   YZ=              0.2354

  Exact polarizability: 103.635  -7.209  77.796  -5.196   2.555  56.911
 Approx polarizability: 137.875 -24.965 126.448 -12.112   7.944  88.427

                      1                      2                      3
                      A                      A                      A
 Frequencies --     85.4171               110.2064               121.5849
 Red. masses --      2.9904                 1.2016                 2.1000
 Frc consts  --      0.0129                 0.0086                 0.0183
 IR Inten    --      0.2734                 1.0664                 0.2136

                      4                      5                      6
                      A                      A                      A
 Frequencies --    137.1785               226.1386               251.2123
 Red. masses --      2.5979                 1.4597                 3.1592
 Frc consts  --      0.0288                 0.0440                 0.1175
 IR Inten    --      0.8576                 0.2667                 3.8095

                      7                      8                      9
                      A                      A                      A
 Frequencies --    268.6566               357.4035               390.6061
 Red. masses --      2.1212                 3.6725                 3.2615
 Frc consts  --      0.0902                 0.2764                 0.2932
 IR Inten    --      0.1223                 0.1477                 1.1918

                     10                     11                     12
                      A                      A                      A
 Frequencies --    484.0627               558.0350               611.3940
 Red. masses --      3.0485                 3.4819                 6.2891
 Frc consts  --      0.4209                 0.6388                 1.3851
 IR Inten    --      3.3234                 2.4524                 5.9015

                     13                     14                     15
                      A                      A                      A
 Frequencies --    712.9259               770.5623               792.8400
 Red. masses --      2.3593                 3.7175                 5.5249
 Frc consts  --      0.7065                 1.3005                 2.0462
 IR Inten    --      0.9404                 6.0104                 0.8448

                     16                     17                     18
                      A                      A                      A
 Frequencies --    820.6373               866.8808               903.4185
 Red. masses --      1.7897                 1.8121                 1.6908
 Frc consts  --      0.7101                 0.8023                 0.8131
 IR Inten    --      1.5506                10.3927                17.8750

                     19                     20                     21
                      A                      A                      A
 Frequencies --    975.1512               999.8480              1033.2206
 Red. masses --      2.5270                 1.7611                 1.5075
 Frc consts  --      1.4158                 1.0373                 0.9482
 IR Inten    --     27.9807                 9.6349                32.3603

                     22                     23                     24
                      A                      A                      A
 Frequencies --   1061.1826              1067.9554              1093.9357
 Red. masses --      3.0588                 1.5564                 3.6893
 Frc consts  --      2.0295                 1.0458                 2.6012
 IR Inten    --     39.3949                 1.3439                92.3923

                     25                     26                     27
                      A                      A                      A
 Frequencies --   1125.6802              1146.4156              1220.6613
 Red. masses --      2.3580                 1.8992                 2.0384
 Frc consts  --      1.7605                 1.4707                 1.7895
 IR Inten    --     14.8213                 8.0637                 7.8726

                     28                     29                     30
                      A                      A                      A
 Frequencies --   1283.7130              1301.0583              1330.8568
 Red. masses --      1.2920                 1.4793                 2.2358
 Frc consts  --      1.2544                 1.4754                 2.3332
 IR Inten    --      2.8327                35.1903                 2.1044

                     31                     32                     33
                      A                      A                      A
 Frequencies --   1364.7239              1380.1610              1412.0615
 Red. masses --      1.5081                 1.5407                 1.2393
 Frc consts  --      1.6549                 1.7291                 1.4559
 IR Inten    --     14.3054                 0.9119                 0.8004

                     34                     35                     36
                      A                      A                      A
 Frequencies --   1415.3491              1472.9524              1476.6258
 Red. masses --      1.2784                 1.0429                 1.0769
 Frc consts  --      1.5089                 1.3331                 1.3835
 IR Inten    --      0.8919                 5.8619                 1.1268

                     37                     38                     39
                      A                      A                      A
 Frequencies --   1484.1199              1496.9184              1508.2907
 Red. masses --      1.0608                 1.0415                 1.0555
 Frc consts  --      1.3767                 1.3750                 1.4147
 IR Inten    --      7.7231                 4.2730                 4.6560

                     40                     41                     42
                      A                      A                      A
 Frequencies --   1720.3209              1861.5065              2999.4481
 Red. masses --      7.7791                12.8787                 1.0821
 Frc consts  --     13.5644                26.2937                 5.7360
 IR Inten    --      6.4114               403.8630                21.3859

                     43                     44                     45
                      A                      A                      A
 Frequencies --   3029.8193              3039.6482              3040.2917
 Red. masses --      1.0606                 1.0378                 1.0362
 Frc consts  --      5.7366                 5.6494                 5.6431
 IR Inten    --     20.9290                30.0398                 8.7635

                     46                     47                     48
                      A                      A                      A
 Frequencies --   3071.3948              3094.9852              3107.0599
 Red. masses --      1.1004                 1.0987                 1.1004
 Frc consts  --      6.1158                 6.2011                 6.2592
 IR Inten    --     16.3232                 7.2462                33.4994

                     49                     50                     51
                      A                      A                      A
 Frequencies --   3127.3554              3128.2841              3210.6404
 Red. masses --      1.1017                 1.1021                 1.0961
 Frc consts  --      6.3482                 6.3548                 6.6568
 IR Inten    --     17.4329                13.6743                 4.5252

 - Thermochemistry -
 -------------------
 Temperature   298.150 Kelvin.  Pressure   1.00000 Atm.
 Atom     1 has atomic number  6 and mass  12.00000

 Molecular mass:   126.06808 amu.
 Principal axes and moments of inertia in atomic units:
                           1         2         3
     Eigenvalues --   551.180491627.882312044.76737
           X            0.99959   0.02853   0.00003
           Y           -0.02853   0.99959  -0.00348
           Z           -0.00013   0.00347   0.99999
 This molecule is an asymmetric top.
 Rotational symmetry number  1.
 Warning -- assumption of classical behavior for rotation
           may cause significant error
 Rotational temperatures (Kelvin)      0.15714     0.05321     0.04236
 Rotational constants (GHZ):           3.27432     1.10864     0.88261
 Zero-point vibrational energy     416006.1 (Joules/Mol)
                                   99.42785 (Kcal/Mol)
 Warning -- explicit consideration of  12 degrees of freedom as
           vibrations may cause significant error
 Vibrational temperatures:    122.90   158.56   174.93   197.37   325.36
          (Kelvin)            361.44   386.54   514.22   561.99   696.46
                              802.89   879.66  1025.74  1108.67  1140.72
                             1180.71  1247.25  1299.82  1403.02  1438.56
                             1486.57  1526.80  1536.55  1573.93  1619.60
                             1649.43  1756.26  1846.97  1871.93  1914.80
                             1963.53  1985.74  2031.64  2036.37  2119.25
                             2124.53  2135.31  2153.73  2170.09  2475.15
                             2678.29  4315.53  4359.23  4373.37  4374.30
                             4419.05  4452.99  4470.36  4499.56  4500.90
                             4619.39

 Zero-point correction=                           0.158448 (Hartree/Particle)
 Thermal correction to Energy=                    0.167638
 Thermal correction to Enthalpy=                  0.168583
 Thermal correction to Gibbs Free Energy=         0.124178
 Sum of electronic and zero-point Energies=           -423.096078
 Sum of electronic and thermal Energies=              -423.086888
 Sum of electronic and thermal Enthalpies=            -423.085944
 Sum of electronic and thermal Free Energies=         -423.130348

                     E (Thermal)             CV                S
                      KCal/Mol        Cal/Mol-Kelvin    Cal/Mol-Kelvin
 Total                  105.195             33.340             93.457
 Electronic               0.000              0.000              0.000
 Translational            0.889              2.981             40.409
 Rotational               0.889              2.981             28.997
 Vibrational            103.417             27.379             24.052
 Vibration     1          0.601              1.959              3.762
 Vibration     2          0.606              1.941              3.265
 Vibration     3          0.609              1.931              3.075
 Vibration     4          0.614              1.916              2.843
 Vibration     5          0.650              1.801              1.909
 Vibration     6          0.663              1.761              1.722
 Vibration     7          0.673              1.731              1.605
 Vibration     8          0.733              1.560              1.133
 Vibration     9          0.758              1.490              0.998
 Vibration    10          0.840              1.285              0.699
 Vibration    11          0.914              1.122              0.528
 Vibration    12          0.971              1.008              0.430

 Optimization completed.
    -- Stationary point found.
 Normal termination of Gaussian 09 at Tue Jan 28 14:04:09 2020.
