 Gaussian 09, Revision D.01,
 Gaussian 09:  ES64L-G09RevD.01 24-Apr-2013

 -----------------------------
 # b3lyp 6-31G(2df,p) opt Freq
 -----------------------------

 -----
 titel
 -----
 Symbolic Z-matrix:
 Charge =  0 Multiplicity = 1

 SCF Done:  E(RB3LYP) =  -423.127791830     A.U. after   13 cycles
 Optimization completed.
    -- Stationary point found.
 Normal termination of Gaussian 09 at Mon Jan 27 22:02:50 2020.

 ----------------------------------------------------------------------
 #N Geom=AllCheck Guess=TCheck SCRF=Check GenChk RB3LYP/6-31G(2df,p) Fr
 eq
 ----------------------------------------------------------------------

 Structure from the checkpoint file:  "/scratch/puck/g09_cb29526a-d830-4f62-8f7b-19eee92d9bd8/Gau-176309.chk"
 -----
 titel
 -----
 Charge =  0 Multiplicity = 1

                         Standard orientation:
 ---------------------------------------------------------------------
 Center     Atomic      Atomic             Coordinates (Angstroms)
 Number     Number       Type             X           Y           Z
 ---------------------------------------------------------------------
      1          6           0        1.995301    1.521807   -0.163629
      2          6           0        0.814022    0.600437   -0.088000
      3          6           0       -0.634722    1.090534   -0.128473
      4          6           0       -0.119910    0.320833    1.079239
      5          6           0       -0.555844   -0.976388    0.268649
      6          6           0       -1.524243   -0.079657   -0.551446
      7          8           0       -2.842862   -0.006303   -0.057548
      8          6           0        0.786315   -0.877705   -0.502571
      9          8           0        1.852088   -1.631199    0.034323
     10          1           0        2.190089    1.833653   -1.196086
     11          1           0        1.836735    2.425672    0.433661
     12          1           0        2.895635    1.021728    0.207863
     13          1           0       -0.861422    2.148579   -0.197114
     14          1           0       -0.062903    0.584901    2.125701
     15          1           0       -0.892746   -1.927784    0.676743
     16          1           0       -1.624195   -0.306697   -1.618396
     17          1           0       -2.790435    0.273553    0.864541
     18          1           0        0.766682   -1.121691   -1.570903
     19          1           0        1.903236   -1.431058    0.977177
 ---------------------------------------------------------------------

 SCF Done:  E(RB3LYP) =  -423.127791830     A.U. after    1 cycles

 The electronic state is 1-A.
 Alpha  occ. eigenvalues --  -19.13805 -19.13544 -10.23485 -10.23334 -10.20300
 Alpha  occ. eigenvalues --  -10.19946 -10.19581 -10.19148 -10.18432  -1.02629
 Alpha  occ. eigenvalues --   -1.01915  -0.92306  -0.74762  -0.70301  -0.67442
 Alpha  occ. eigenvalues --   -0.62992  -0.56443  -0.55568  -0.51292  -0.47803
 Alpha  occ. eigenvalues --   -0.46697  -0.46219  -0.43069  -0.41224  -0.40219
 Alpha  occ. eigenvalues --   -0.37738  -0.36986  -0.35864  -0.34736  -0.31694
 Alpha  occ. eigenvalues --   -0.29795  -0.26154  -0.25776  -0.24214
 Alpha virt. eigenvalues --    0.07021   0.08211   0.10007   0.11481   0.11584
 Alpha virt. eigenvalues --    0.12606   0.13227   0.14633   0.15686   0.16821
 Alpha virt. eigenvalues --    0.17735   0.18185   0.19653   0.21115   0.22611

 Mulliken charges:
               1
     1  C   -0.509275
     2  C    0.307108
     3  C   -0.162222
     4  C   -0.192435
     5  C   -0.152519
     6  C    0.150765
     7  O   -0.443996
     8  C    0.097460
     9  O   -0.444813
    10  H    0.125526
    11  H    0.119078
    12  H    0.126179
    13  H    0.090243
    14  H    0.092207
    15  H    0.076730
    16  H    0.083301
    17  H    0.277909
    18  H    0.080515
    19  H    0.278237
 Sum of Mulliken charges =   0.00000

 Dipole moment (field-independent basis, Debye):
    X=              0.6371    Y=              1.4809    Z=              1.7506  Tot=              2.3799
 Quadrupole moment (field-independent basis, Debye-Ang):
   XX=            -60.8628   YY=            -54.3056   ZZ=            -48.7006
   XY=              1.9527   XZ=             -0.8446   YZ=             -0.7115

  Exact polarizability:  83.024   1.481  72.591  -0.504   0.334  68.464
 Approx polarizability: 114.693  -1.972 105.863  -0.624  -0.213 111.461

                      1                      2                      3
                      A                      A                      A
 Frequencies --    175.2813               185.6637               209.1870
 Red. masses --      3.2892                 1.5063                 1.8506
 Frc consts  --      0.0595                 0.0306                 0.0477
 IR Inten    --      2.0493                 1.2002                 1.1895

                      4                      5                      6
                      A                      A                      A
 Frequencies --    216.6814               258.5382               317.4303
 Red. masses --      2.7004                 3.4407                 1.7054
 Frc consts  --      0.0747                 0.1355                 0.1012
 IR Inten    --      0.9455                 4.6914                 4.1439

                      7                      8                      9
                      A                      A                      A
 Frequencies --    346.7372               377.4607               429.1348
 Red. masses --      1.3869                 1.3484                 3.3768
 Frc consts  --      0.0982                 0.1132                 0.3664
 IR Inten    --     15.1721               142.4715                 3.2645

                     10                     11                     12
                      A                      A                      A
 Frequencies --    462.5724               562.3500               639.9554
 Red. masses --      5.4179                 4.0508                 2.9802
 Frc consts  --      0.6830                 0.7548                 0.7191
 IR Inten    --      2.5572                 0.4008                 2.0110

                     13                     14                     15
                      A                      A                      A
 Frequencies --    800.4495               812.4520               834.0573
 Red. masses --      2.3995                 2.0335                 2.3018
 Frc consts  --      0.9058                 0.7908                 0.9434
 IR Inten    --      7.8924                16.8913                 2.4072

                     16                     17                     18
                      A                      A                      A
 Frequencies --    838.9887               881.8666               905.7320
 Red. masses --      2.4881                 1.8404                 2.3828
 Frc consts  --      1.0319                 0.8433                 1.1517
 IR Inten    --      0.4362                 7.3614                 6.5058

                     19                     20                     21
                      A                      A                      A
 Frequencies --    913.8662               951.8458               975.3760
 Red. masses --      1.8877                 2.0236                 1.9685
 Frc consts  --      0.9289                 1.0802                 1.1034
 IR Inten    --     12.0313                14.3019                 3.6101

                     22                     23                     24
                      A                      A                      A
 Frequencies --   1022.3073              1043.9260              1059.3471
 Red. masses --      1.7669                 2.6333                 3.0059
 Frc consts  --      1.0880                 1.6908                 1.9875
 IR Inten    --      7.9458                46.3880               119.9528

                     25                     26                     27
                      A                      A                      A
 Frequencies --   1090.2220              1115.7977              1131.4892
 Red. masses --      1.5971                 2.5687                 1.9602
 Frc consts  --      1.1184                 1.8842                 1.4786
 IR Inten    --      9.6495                15.9547                10.4792

                     28                     29                     30
                      A                      A                      A
 Frequencies --   1163.8566              1169.8204              1220.5598
 Red. masses --      1.5211                 1.8493                 1.7046
 Frc consts  --      1.2140                 1.4910                 1.4962
 IR Inten    --     28.3043                40.1172                 8.7618

                     31                     32                     33
                      A                      A                      A
 Frequencies --   1233.0851              1273.4593              1281.0993
 Red. masses --      1.4735                 1.6323                 1.6028
 Frc consts  --      1.3201                 1.5596                 1.5499
 IR Inten    --     28.3061                 7.4410                 2.9146

                     34                     35                     36
                      A                      A                      A
 Frequencies --   1291.4220              1303.1229              1396.1422
 Red. masses --      1.6907                 2.2650                 1.6270
 Frc consts  --      1.6614                 2.2662                 1.8685
 IR Inten    --      3.9713                 3.2310                 7.7944

                     37                     38                     39
                      A                      A                      A
 Frequencies --   1419.6705              1437.7933              1441.7477
 Red. masses --      1.5473                 1.6749                 1.3892
 Frc consts  --      1.8374                 2.0400                 1.7014
 IR Inten    --     34.6470               118.9236                24.9289

                     40                     41                     42
                      A                      A                      A
 Frequencies --   1483.2508              1499.6625              3028.0876
 Red. masses --      1.0443                 1.0591                 1.0355
 Frc consts  --      1.3537                 1.4033                 5.5942
 IR Inten    --      4.0539                 6.8438                33.6488

                     43                     44                     45
                      A                      A                      A
 Frequencies --   3045.6384              3057.7219              3090.3605
 Red. masses --      1.0848                 1.0856                 1.1003
 Frc consts  --      5.9288                 5.9804                 6.1910
 IR Inten    --     10.6250                85.6816                19.4008

                     46                     47                     48
                      A                      A                      A
 Frequencies --   3101.8663              3137.9870              3179.8383
 Red. masses --      1.1010                 1.0914                 1.0915
 Frc consts  --      6.2417                 6.3321                 6.5024
 IR Inten    --     16.6532                23.7905                14.8005

                     49                     50                     51
                      A                      A                      A
 Frequencies --   3214.2414              3777.5788              3780.5898
 Red. masses --      1.0974                 1.0651                 1.0651
 Frc consts  --      6.6799                 8.9549                 8.9690
 IR Inten    --      6.6151                 7.2099                 9.8182

 - Thermochemistry -
 -------------------
 Temperature   298.150 Kelvin.  Pressure   1.00000 Atm.
 Atom     1 has atomic number  6 and mass  12.00000

 Molecular mass:   126.06808 amu.
 Principal axes and moments of inertia in atomic units:
                           1         2         3
     Eigenvalues --   603.281981260.053541607.85076
           X            0.99918   0.04043  -0.00326
           Y           -0.04044   0.99918  -0.00328
           Z            0.00312   0.00340   0.99999
 This molecule is an asymmetric top.
 Rotational symmetry number  1.
 Warning -- assumption of classical behavior for rotation
           may cause significant error
 Rotational temperatures (Kelvin)      0.14357     0.06874     0.05387
 Rotational constants (GHZ):           2.99154     1.43227     1.12246
 Zero-point vibrational energy     416224.6 (Joules/Mol)
                                   99.48006 (Kcal/Mol)
 Warning -- explicit consideration of  11 degrees of freedom as
           vibrations may cause significant error
 Vibrational temperatures:    252.19   267.13   300.97   311.76   371.98
          (Kelvin)            456.71   498.88   543.08   617.43   665.54
                              809.10   920.75  1151.67  1168.94  1200.02
                             1207.12  1268.81  1303.14  1314.85  1369.49
                             1403.35  1470.87  1501.97  1524.16  1568.58
                             1605.38  1627.96  1674.53  1683.11  1756.11
                             1774.13  1832.22  1843.21  1858.07  1874.90
                             2008.73  2042.59  2068.66  2074.35  2134.06
                             2157.68  4356.74  4381.99  4399.37  4446.33
                             4462.89  4514.86  4575.07  4624.57  5435.09
                             5439.42

 Zero-point correction=                           0.158532 (Hartree/Particle)
 Thermal correction to Energy=                    0.166912
 Thermal correction to Enthalpy=                  0.167856
 Thermal correction to Gibbs Free Energy=         0.126222
 Sum of electronic and zero-point Energies=           -422.969260
 Sum of electronic and thermal Energies=              -422.960880
 Sum of electronic and thermal Enthalpies=            -422.959936
 Sum of electronic and thermal Free Energies=         -423.001570

                     E (Thermal)             CV                S
                      KCal/Mol        Cal/Mol-Kelvin    Cal/Mol-Kelvin
 Total                  104.739             33.235             87.626
 Electronic               0.000              0.000              0.000
 Translational            0.889              2.981             40.409
 Rotational               0.889              2.981             28.593
 Vibrational            102.961             27.273             18.625
 Vibration     1          0.627              1.873              2.378
 Vibration     2          0.632              1.859              2.271
 Vibration     3          0.642              1.827              2.051
 Vibration     4          0.646              1.816              1.987
 Vibration     5          0.667              1.748              1.672
 Vibration     6          0.704              1.640              1.323
 Vibration     7          0.725              1.582              1.181
 Vibration     8          0.748              1.518              1.049
 Vibration     9          0.790              1.407              0.861
 Vibration    10          0.820              1.333              0.759
 Vibration    11          0.918              1.113              0.519

 Normal termination of Gaussian 09 at Mon Jan 27 22:55:00 2020.
