 Gaussian 09, Revision D.01,
 Gaussian 09:  ES64L-G09RevD.01 24-Apr-2013

 -----------------------------
 # b3lyp 6-31G(2df,p) opt Freq
 -----------------------------

 -----
 titel
 -----
 Symbolic Z-matrix:
 Charge =  0 Multiplicity = 1

 SCF Done:  E(RB3LYP) =  -423.192396980     A.U. after   13 cycles
 Optimization completed.
    -- Stationary point found.
 Normal termination of Gaussian 09 at Mon Jan 27 11:19:03 2020.

 ----------------------------------------------------------------------
 #N Geom=AllCheck Guess=TCheck SCRF=Check GenChk RB3LYP/6-31G(2df,p) Fr
 eq
 ----------------------------------------------------------------------

 Structure from the checkpoint file:  "/scratch/puck/g09_3c11aba6-308f-4466-bbdb-2160debab8cf/Gau-162688.chk"
 -----
 titel
 -----
 Charge =  0 Multiplicity = 1

                         Standard orientation:
 ---------------------------------------------------------------------
 Center     Atomic      Atomic             Coordinates (Angstroms)
 Number     Number       Type             X           Y           Z
 ---------------------------------------------------------------------
      1          6           0       -2.276535    0.024410   -0.197552
      2          6           0       -1.043984    0.764166   -0.642084
      3          6           0       -1.049712   -0.750389   -0.606279
      4          6           0       -0.068743   -1.089235    0.510630
      5          8           0       -0.124030    0.039083    1.368192
      6          6           0       -0.058863    1.151976    0.457003
      7          6           0        1.386163    1.198017   -0.062355
      8          6           0        1.731002   -0.152900   -0.721764
      9          8           0        1.240864   -1.274452    0.018416
     10          1           0       -2.550134    0.047751    0.851505
     11          1           0       -3.110552    0.009127   -0.890515
     12          1           0       -1.040230    1.314794   -1.575250
     13          1           0       -1.047550   -1.358424   -1.502222
     14          1           0       -0.298896   -1.976894    1.103030
     15          1           0       -0.331210    2.050605    1.017092
     16          1           0        1.535031    2.009010   -0.784484
     17          1           0        2.044053    1.381195    0.792680
     18          1           0        1.335142   -0.179648   -1.746248
     19          1           0        2.813711   -0.290840   -0.784042
 ---------------------------------------------------------------------

 SCF Done:  E(RB3LYP) =  -423.192396980     A.U. after    1 cycles

 The electronic state is 1-A.
 Alpha  occ. eigenvalues --  -19.13905 -19.13693 -10.27218 -10.23590 -10.22843
 Alpha  occ. eigenvalues --  -10.19459 -10.19078 -10.18899 -10.18452  -1.07312
 Alpha  occ. eigenvalues --   -0.99982  -0.86012  -0.78955  -0.68041  -0.67790
 Alpha  occ. eigenvalues --   -0.61681  -0.57877  -0.54882  -0.52215  -0.49914
 Alpha  occ. eigenvalues --   -0.47408  -0.45368  -0.43717  -0.41322  -0.40614
 Alpha  occ. eigenvalues --   -0.40039  -0.38146  -0.35294  -0.32980  -0.31882
 Alpha  occ. eigenvalues --   -0.29564  -0.28448  -0.26826  -0.24831
 Alpha virt. eigenvalues --    0.08755   0.10732   0.11394   0.12586   0.13864
 Alpha virt. eigenvalues --    0.14418   0.14714   0.15085   0.15669   0.16836
 Alpha virt. eigenvalues --    0.17973   0.18671   0.20239   0.20783   0.22738

 Mulliken charges:
               1
     1  C   -0.316823
     2  C   -0.043944
     3  C   -0.081800
     4  C    0.191238
     5  O   -0.262252
     6  C    0.060274
     7  C   -0.222390
     8  C   -0.073650
     9  O   -0.263875
    10  H    0.126580
    11  H    0.111714
    12  H    0.090048
    13  H    0.097642
    14  H    0.091038
    15  H    0.080252
    16  H    0.095623
    17  H    0.113532
    18  H    0.096430
    19  H    0.110362
 Sum of Mulliken charges =   0.00000

 Dipole moment (field-independent basis, Debye):
    X=             -0.5246    Y=              1.2765    Z=             -1.7442  Tot=              2.2242
 Quadrupole moment (field-independent basis, Debye-Ang):
   XX=            -51.9470   YY=            -52.6324   ZZ=            -53.7436
   XY=              2.8636   XZ=             -0.1946   YZ=             -0.3253

  Exact polarizability:  81.481   2.485  71.333  -1.042  -0.558  65.334
 Approx polarizability: 108.736   0.879 109.840  -2.227  -2.246 102.301

                      1                      2                      3
                      A                      A                      A
 Frequencies --    242.2965               247.8805               319.8740
 Red. masses --      2.4652                 2.7820                 2.1937
 Frc consts  --      0.0853                 0.1007                 0.1322
 IR Inten    --      0.1791                 2.3269                 0.7856

                      4                      5                      6
                      A                      A                      A
 Frequencies --    363.1105               461.2977               480.5672
 Red. masses --      3.6709                 3.8880                 4.6641
 Frc consts  --      0.2852                 0.4875                 0.6346
 IR Inten    --      1.4842                 1.7880                 9.3408

                      7                      8                      9
                      A                      A                      A
 Frequencies --    528.2133               654.0367               737.7638
 Red. masses --      4.6854                 3.3488                 2.2433
 Frc consts  --      0.7702                 0.8440                 0.7194
 IR Inten    --      2.2340                 5.2232                 2.6927

                     10                     11                     12
                      A                      A                      A
 Frequencies --    761.2328               822.3662               840.6888
 Red. masses --      2.7888                 1.6213                 3.1519
 Frc consts  --      0.9521                 0.6460                 1.3125
 IR Inten    --      1.6261                 7.4938                 7.0954

                     13                     14                     15
                      A                      A                      A
 Frequencies --    848.8811               883.7097               901.6132
 Red. masses --      2.0136                 2.3801                 3.1751
 Frc consts  --      0.8549                 1.0951                 1.5207
 IR Inten    --      9.5166                12.0268                 8.4340

                     16                     17                     18
                      A                      A                      A
 Frequencies --    911.7637               963.3884               965.9621
 Red. masses --      2.8398                 2.2694                 3.6218
 Frc consts  --      1.3909                 1.2410                 1.9911
 IR Inten    --      5.0116                36.4602                68.4969

                     19                     20                     21
                      A                      A                      A
 Frequencies --   1007.3434              1018.5442              1053.0243
 Red. masses --      2.0711                 1.8618                 2.3085
 Frc consts  --      1.2383                 1.1380                 1.5082
 IR Inten    --     15.1488                14.0017                 8.4237

                     22                     23                     24
                      A                      A                      A
 Frequencies --   1077.1502              1085.0457              1092.0017
 Red. masses --      1.9597                 1.7122                 1.5119
 Frc consts  --      1.3397                 1.1877                 1.0622
 IR Inten    --     17.4899                 9.8961                 7.1337

                     25                     26                     27
                      A                      A                      A
 Frequencies --   1106.7924              1115.3165              1137.4566
 Red. masses --      1.3150                 2.0586                 3.6593
 Frc consts  --      0.9491                 1.5088                 2.7895
 IR Inten    --      9.4486                35.3386                94.3880

                     28                     29                     30
                      A                      A                      A
 Frequencies --   1192.9879              1227.6693              1268.2723
 Red. masses --      1.7668                 1.2113                 1.4128
 Frc consts  --      1.4815                 1.0757                 1.3389
 IR Inten    --      0.2751                 6.8976                27.3900

                     31                     32                     33
                      A                      A                      A
 Frequencies --   1287.7408              1317.9709              1327.9697
 Red. masses --      1.2389                 1.3135                 1.6699
 Frc consts  --      1.2104                 1.3442                 1.7351
 IR Inten    --      2.2544                 8.5465                 0.7619

                     34                     35                     36
                      A                      A                      A
 Frequencies --   1345.6612              1362.0900              1368.1274
 Red. masses --      1.9559                 1.3176                 1.4146
 Frc consts  --      2.0868                 1.4403                 1.5600
 IR Inten    --     14.6157                 5.0749                 3.2575

                     37                     38                     39
                      A                      A                      A
 Frequencies --   1396.1683              1417.7010              1472.1677
 Red. masses --      1.5227                 1.3327                 1.0938
 Frc consts  --      1.7488                 1.5781                 1.3967
 IR Inten    --     12.6942                13.1785                 1.9162

                     40                     41                     42
                      A                      A                      A
 Frequencies --   1476.2913              1512.0531              3008.6657
 Red. masses --      1.2926                 1.0856                 1.0694
 Frc consts  --      1.6598                 1.4623                 5.7035
 IR Inten    --      0.8150                 2.3042                43.2782

                     43                     44                     45
                      A                      A                      A
 Frequencies --   3041.4579              3075.4941              3084.5029
 Red. masses --      1.0609                 1.0873                 1.0953
 Frc consts  --      5.7822                 6.0594                 6.1396
 IR Inten    --     20.4570                49.4746                29.2400

                     46                     47                     48
                      A                      A                      A
 Frequencies --   3096.9503              3103.9171              3135.4065
 Red. masses --      1.1019                 1.0901                 1.0535
 Frc consts  --      6.2267                 6.1879                 6.1021
 IR Inten    --     36.0191                37.9505                15.6544

                     49                     50                     51
                      A                      A                      A
 Frequencies --   3181.9357              3194.1573              3224.4816
 Red. masses --      1.0896                 1.0948                 1.1156
 Frc consts  --      6.4996                 6.5813                 6.8338
 IR Inten    --     10.1740                 5.4105                 7.0382

 - Thermochemistry -
 -------------------
 Temperature   298.150 Kelvin.  Pressure   1.00000 Atm.
 Atom     1 has atomic number  6 and mass  12.00000

 Molecular mass:   126.06808 amu.
 Principal axes and moments of inertia in atomic units:
                           1         2         3
     Eigenvalues --   607.71163 974.458801117.04892
           X            0.99897   0.04486  -0.00681
           Y           -0.04489   0.99899  -0.00363
           Z            0.00664   0.00393   0.99997
 This molecule is an asymmetric top.
 Rotational symmetry number  1.
 Warning -- assumption of classical behavior for rotation
           may cause significant error
 Rotational temperatures (Kelvin)      0.14252     0.08888     0.07754
 Rotational constants (GHZ):           2.96973     1.85204     1.61563
 Zero-point vibrational energy     429143.3 (Joules/Mol)
                                  102.56771 (Kcal/Mol)
 Warning -- explicit consideration of   7 degrees of freedom as
           vibrations may cause significant error
 Vibrational temperatures:    348.61   356.64   460.23   522.43   663.70
          (Kelvin)            691.43   759.98   941.01  1061.48  1095.24
                             1183.20  1209.56  1221.35  1271.46  1297.22
                             1311.82  1386.10  1389.80  1449.34  1465.46
                             1515.07  1549.78  1561.14  1571.14  1592.43
                             1604.69  1636.54  1716.44  1766.34  1824.76
                             1852.77  1896.26  1910.65  1936.10  1959.74
                             1968.43  2008.77  2039.75  2118.12  2124.05
                             2175.50  4328.79  4375.97  4424.94  4437.91
                             4455.82  4465.84  4511.15  4578.09  4595.67
                             4639.30

 Zero-point correction=                           0.163452 (Hartree/Particle)
 Thermal correction to Energy=                    0.169868
 Thermal correction to Enthalpy=                  0.170812
 Thermal correction to Gibbs Free Energy=         0.133086
 Sum of electronic and zero-point Energies=           -423.028945
 Sum of electronic and thermal Energies=              -423.022529
 Sum of electronic and thermal Enthalpies=            -423.021585
 Sum of electronic and thermal Free Energies=         -423.059311

                     E (Thermal)             CV                S
                      KCal/Mol        Cal/Mol-Kelvin    Cal/Mol-Kelvin
 Total                  106.594             27.532             79.400
 Electronic               0.000              0.000              0.000
 Translational            0.889              2.981             40.409
 Rotational               0.889              2.981             27.983
 Vibrational            104.816             21.570             11.009
 Vibration     1          0.658              1.775              1.786
 Vibration     2          0.662              1.766              1.746
 Vibration     3          0.706              1.636              1.311
 Vibration     4          0.737              1.548              1.109
 Vibration     5          0.819              1.336              0.762
 Vibration     6          0.837              1.293              0.709
 Vibration     7          0.883              1.188              0.591

 Optimization completed.
    -- Stationary point found.
 Normal termination of Gaussian 09 at Mon Jan 27 12:10:30 2020.
