 Gaussian 09, Revision D.01,
 Gaussian 09:  ES64L-G09RevD.01 24-Apr-2013

 -----------------------------
 # b3lyp 6-31G(2df,p) opt Freq
 -----------------------------

 -----
 titel
 -----
 Symbolic Z-matrix:
 Charge =  0 Multiplicity = 1

 SCF Done:  E(RB3LYP) =  -423.145085551     A.U. after   12 cycles
 Optimization completed.
    -- Stationary point found.
 Normal termination of Gaussian 09 at Mon Jan 27 17:13:22 2020.

 ----------------------------------------------------------------------
 #N Geom=AllCheck Guess=TCheck SCRF=Check GenChk RB3LYP/6-31G(2df,p) Fr
 eq
 ----------------------------------------------------------------------

 Structure from the checkpoint file:  "/scratch/puck/g09_ffface4b-defb-48e5-940c-ee95fa4f8388/Gau-179307.chk"
 -----
 titel
 -----
 Charge =  0 Multiplicity = 1

                         Standard orientation:
 ---------------------------------------------------------------------
 Center     Atomic      Atomic             Coordinates (Angstroms)
 Number     Number       Type             X           Y           Z
 ---------------------------------------------------------------------
      1          8           0        0.167062    2.064979    0.087921
      2          6           0        0.454985    0.710200    0.006149
      3          6           0        1.363132    0.041466    1.074772
      4          6           0        1.364411   -1.072302   -0.004227
      5          6           0        1.383678    0.047916   -1.072499
      6          8           0       -0.005559   -1.529800   -0.022917
      7          6           0       -0.703490   -0.287886   -0.002526
      8          6           0       -1.966379   -0.139809    0.773202
      9          6           0       -1.983635   -0.128846   -0.753353
     10          1           0       -0.308166    2.324232   -0.709594
     11          1           0        2.325523    0.544804    1.178198
     12          1           0        0.924865   -0.196684    2.045495
     13          1           0        2.038780   -1.924653   -0.000176
     14          1           0        2.346637    0.553888   -1.157129
     15          1           0        0.961113   -0.189198   -2.051433
     16          1           0       -2.355835   -1.021546    1.269556
     17          1           0       -2.134768    0.798667    1.291621
     18          1           0       -2.374636   -1.006019   -1.256853
     19          1           0       -2.191740    0.810646   -1.258824
 ---------------------------------------------------------------------

 SCF Done:  E(RB3LYP) =  -423.145085551     A.U. after    1 cycles

 The electronic state is 1-A.
 Alpha  occ. eigenvalues --  -19.15302 -19.13822 -10.24793 -10.23934 -10.23280
 Alpha  occ. eigenvalues --  -10.18436 -10.18298 -10.18298 -10.18013  -1.05362
 Alpha  occ. eigenvalues --   -1.03101  -0.84895  -0.83083  -0.67277  -0.66516
 Alpha  occ. eigenvalues --   -0.60257  -0.57727  -0.56531  -0.52234  -0.49884
 Alpha  occ. eigenvalues --   -0.45846  -0.44004  -0.43949  -0.42979  -0.38164
 Alpha  occ. eigenvalues --   -0.36673  -0.36623  -0.35541  -0.35294  -0.33061
 Alpha  occ. eigenvalues --   -0.30593  -0.29484  -0.26076  -0.22572
 Alpha virt. eigenvalues --    0.06140   0.08953   0.11536   0.12537   0.12894
 Alpha virt. eigenvalues --    0.13779   0.14838   0.15044   0.16807   0.17211
 Alpha virt. eigenvalues --    0.19437   0.20320   0.20849   0.21725   0.22669

 Mulliken charges:
               1
     1  O   -0.477296
     2  C    0.295269
     3  C   -0.272836
     4  C    0.092927
     5  C   -0.306892
     6  O   -0.316171
     7  C    0.447703
     8  C   -0.348373
     9  C   -0.369958
    10  H    0.285147
    11  H    0.105072
    12  H    0.107768
    13  H    0.087691
    14  H    0.103772
    15  H    0.100051
    16  H    0.122710
    17  H    0.120915
    18  H    0.125670
    19  H    0.096832
 Sum of Mulliken charges =   0.00000

 Dipole moment (field-independent basis, Debye):
    X=              0.2726    Y=              0.6976    Z=             -1.0054  Tot=              1.2538
 Quadrupole moment (field-independent basis, Debye-Ang):
   XX=            -50.4054   YY=            -55.9578   ZZ=            -51.6532
   XY=             -2.3097   XZ=              0.5768   YZ=             -3.1906

  Exact polarizability:  84.716  -1.670  68.546   0.674  -1.059  71.494
 Approx polarizability: 113.537  -2.352 105.460   1.508  -0.840 107.539

                      1                      2                      3
                      A                      A                      A
 Frequencies --    145.5530               217.2698               234.8760
 Red. masses --      3.5148                 3.4335                 2.0426
 Frc consts  --      0.0439                 0.0955                 0.0664
 IR Inten    --      0.9859                 0.3231                 5.1021

                      4                      5                      6
                      A                      A                      A
 Frequencies --    245.4100               371.1302               404.0206
 Red. masses --      1.1180                 2.9389                 3.4333
 Frc consts  --      0.0397                 0.2385                 0.3302
 IR Inten    --     96.9535                10.0494                12.2224

                      7                      8                      9
                      A                      A                      A
 Frequencies --    461.9240               486.1099               552.8542
 Red. masses --      2.9281                 3.0352                 2.7069
 Frc consts  --      0.3681                 0.4226                 0.4875
 IR Inten    --      0.5444                 3.5599                 0.8745

                     10                     11                     12
                      A                      A                      A
 Frequencies --    555.7478               638.3701               728.1276
 Red. masses --      2.7663                 4.3773                 2.7082
 Frc consts  --      0.5034                 1.0510                 0.8459
 IR Inten    --      0.9260                 2.8097                 1.3070

                     13                     14                     15
                      A                      A                      A
 Frequencies --    768.4152               821.4258               843.9124
 Red. masses --      1.0936                 2.2520                 2.4342
 Frc consts  --      0.3805                 0.8953                 1.0214
 IR Inten    --      1.0030                 1.4593                 8.1209

                     16                     17                     18
                      A                      A                      A
 Frequencies --    877.6805               914.4918               926.2536
 Red. masses --      1.3867                 3.7384                 2.2067
 Frc consts  --      0.6294                 1.8420                 1.1154
 IR Inten    --      1.8232                24.9421                13.4655

                     19                     20                     21
                      A                      A                      A
 Frequencies --    944.8873               973.5410               986.8707
 Red. masses --      1.9870                 2.2857                 2.7104
 Frc consts  --      1.0452                 1.2764                 1.5553
 IR Inten    --     13.6876                25.8278                17.0784

                     22                     23                     24
                      A                      A                      A
 Frequencies --    992.2118              1011.1262              1046.5434
 Red. masses --      3.0646                 1.6216                 1.4271
 Frc consts  --      1.7776                 0.9768                 0.9209
 IR Inten    --     30.0168                 1.0815                 9.8365

                     25                     26                     27
                      A                      A                      A
 Frequencies --   1048.3717              1070.9042              1120.5654
 Red. masses --      1.5274                 1.5017                 1.8345
 Frc consts  --      0.9891                 1.0147                 1.3572
 IR Inten    --     16.6995                 0.1414                55.0511

                     28                     29                     30
                      A                      A                      A
 Frequencies --   1138.3056              1168.8367              1186.9334
 Red. masses --      1.4752                 1.6654                 1.2680
 Frc consts  --      1.1262                 1.3406                 1.0525
 IR Inten    --     15.5307                 4.5855                 2.3720

                     31                     32                     33
                      A                      A                      A
 Frequencies --   1207.2444              1227.2911              1231.0380
 Red. masses --      2.0814                 1.6974                 1.7578
 Frc consts  --      1.7873                 1.5063                 1.5695
 IR Inten    --     49.0771                 8.1307                24.1451

                     34                     35                     36
                      A                      A                      A
 Frequencies --   1296.2199              1328.6491              1367.5988
 Red. masses --      2.3197                 1.6451                 2.0126
 Frc consts  --      2.2963                 1.7111                 2.2178
 IR Inten    --    138.3571                 3.9931                 1.0002

                     37                     38                     39
                      A                      A                      A
 Frequencies --   1389.5771              1444.5712              1468.8249
 Red. masses --      2.2946                 1.0925                 1.1069
 Frc consts  --      2.6105                 1.3432                 1.4070
 IR Inten    --     20.0278                 2.4565                 3.4028

                     40                     41                     42
                      A                      A                      A
 Frequencies --   1500.9493              1514.0257              3069.7051
 Red. masses --      1.5529                 1.3448                 1.0555
 Frc consts  --      2.0612                 1.8163                 5.8599
 IR Inten    --      6.9453                13.0852                30.0312

                     43                     44                     45
                      A                      A                      A
 Frequencies --   3079.2586              3115.3178              3130.9918
 Red. masses --      1.0567                 1.0561                 1.0543
 Frc consts  --      5.9035                 6.0392                 6.0893
 IR Inten    --     10.7687                15.5443                 7.3766

                     46                     47                     48
                      A                      A                      A
 Frequencies --   3141.2214              3148.6958              3158.3159
 Red. masses --      1.1111                 1.1104                 1.0927
 Frc consts  --      6.4598                 6.4863                 6.4221
 IR Inten    --     14.8419                25.9013                38.2598

                     49                     50                     51
                      A                      A                      A
 Frequencies --   3207.1758              3226.1349              3800.0080
 Red. masses --      1.1148                 1.1156                 1.0655
 Frc consts  --      6.7561                 6.8411                 9.0655
 IR Inten    --      2.4087                 7.4094                17.9352

 - Thermochemistry -
 -------------------
 Temperature   298.150 Kelvin.  Pressure   1.00000 Atm.
 Atom     1 has atomic number  8 and mass  15.99491

 Molecular mass:   126.06808 amu.
 Principal axes and moments of inertia in atomic units:
                           1         2         3
     Eigenvalues --   714.81059 956.524311243.14675
           X            0.99986  -0.01645   0.00125
           Y            0.01647   0.99965  -0.02086
           Z           -0.00090   0.02088   0.99978
 This molecule is an asymmetric top.
 Rotational symmetry number  1.
 Warning -- assumption of classical behavior for rotation
           may cause significant error
 Rotational temperatures (Kelvin)      0.12117     0.09055     0.06967
 Rotational constants (GHZ):           2.52478     1.88677     1.45175
 Zero-point vibrational energy     418307.1 (Joules/Mol)
                                   99.97779 (Kcal/Mol)
 Warning -- explicit consideration of  10 degrees of freedom as
           vibrations may cause significant error
 Vibrational temperatures:    209.42   312.60   337.93   353.09   533.97
          (Kelvin)            581.29   664.60   699.40   795.43   799.60
                              918.47  1047.61  1105.58  1181.85  1214.20
                             1262.78  1315.75  1332.67  1359.48  1400.71
                             1419.89  1427.57  1454.78  1505.74  1508.37
                             1540.79  1612.24  1637.77  1681.69  1707.73
                             1736.95  1765.80  1771.19  1864.97  1911.63
                             1967.67  1999.29  2078.41  2113.31  2159.53
                             2178.34  4416.62  4430.36  4482.24  4504.79
                             4519.51  4530.27  4544.11  4614.40  4641.68
                             5467.36

 Zero-point correction=                           0.159325 (Hartree/Particle)
 Thermal correction to Energy=                    0.166951
 Thermal correction to Enthalpy=                  0.167895
 Thermal correction to Gibbs Free Energy=         0.127811
 Sum of electronic and zero-point Energies=           -422.985761
 Sum of electronic and thermal Energies=              -422.978134
 Sum of electronic and thermal Enthalpies=            -422.977190
 Sum of electronic and thermal Free Energies=         -423.017274

                     E (Thermal)             CV                S
                      KCal/Mol        Cal/Mol-Kelvin    Cal/Mol-Kelvin
 Total                  104.763             31.529             84.364
 Electronic               0.000              0.000              0.000
 Translational            0.889              2.981             40.409
 Rotational               0.889              2.981             28.232
 Vibrational            102.986             25.567             15.724
 Vibration     1          0.617              1.907              2.730
 Vibration     2          0.646              1.815              1.982
 Vibration     3          0.655              1.787              1.841
 Vibration     4          0.660              1.770              1.763
 Vibration     5          0.743              1.531              1.075
 Vibration     6          0.769              1.461              0.948
 Vibration     7          0.820              1.335              0.761
 Vibration     8          0.842              1.281              0.694
 Vibration     9          0.908              1.133              0.538
 Vibration    10          0.911              1.127              0.532

 Optimization completed.
    -- Stationary point found.
 Normal termination of Gaussian 09 at Mon Jan 27 17:59:47 2020.
