 Gaussian 09, Revision D.01,
 Gaussian 09:  ES64L-G09RevD.01 24-Apr-2013

 -----------------------------
 # b3lyp 6-31G(2df,p) opt Freq
 -----------------------------

 -----
 titel
 -----
 Symbolic Z-matrix:
 Charge =  0 Multiplicity = 1

 SCF Done:  E(RB3LYP) =  -423.129021433     A.U. after   12 cycles
 Optimization completed.
    -- Stationary point found.
 Normal termination of Gaussian 09 at Mon Jan 27 22:04:40 2020.

 ----------------------------------------------------------------------
 #N Geom=AllCheck Guess=TCheck SCRF=Check GenChk RB3LYP/6-31G(2df,p) Fr
 eq
 ----------------------------------------------------------------------

 Structure from the checkpoint file:  "/scratch/puck/g09_c81a2a80-d4d1-4720-8399-edabd3ff063e/Gau-15063.chk"
 -----
 titel
 -----
 Charge =  0 Multiplicity = 1

                         Standard orientation:
 ---------------------------------------------------------------------
 Center     Atomic      Atomic             Coordinates (Angstroms)
 Number     Number       Type             X           Y           Z
 ---------------------------------------------------------------------
      1          6           0       -2.370511    0.385452    0.368052
      2          6           0       -1.010057   -0.155090    0.026696
      3          6           0       -0.804075   -1.517632   -0.695495
      4          6           0        0.569421   -1.542278   -0.030374
      5          6           0        0.137068   -0.569896    1.053166
      6          6           0        1.096687   -0.100971   -0.009212
      7          8           0        2.425096    0.208005    0.199367
      8          6           0        0.040497    0.781515   -0.669272
      9          8           0        0.040920    2.111682   -0.203711
     10          1           0       -2.972801    0.512426   -0.539546
     11          1           0       -2.913921   -0.288190    1.038908
     12          1           0       -2.287953    1.365283    0.848181
     13          1           0       -1.462374   -2.295277   -0.294945
     14          1           0       -0.864543   -1.518158   -1.791305
     15          1           0        1.265148   -2.365301    0.079811
     16          1           0        0.208129   -0.622668    2.129840
     17          1           0        2.915651    0.015251   -0.607957
     18          1           0       -0.009421    0.837656   -1.764023
     19          1           0        0.439769    2.114873    0.674422
 ---------------------------------------------------------------------

 SCF Done:  E(RB3LYP) =  -423.129021433     A.U. after    1 cycles

 The electronic state is 1-A.
 Alpha  occ. eigenvalues --  -19.15490 -19.13392 -10.23845 -10.22593 -10.19705
 Alpha  occ. eigenvalues --  -10.19309 -10.18809 -10.18349 -10.17229  -1.04390
 Alpha  occ. eigenvalues --   -1.01547  -0.91911  -0.74598  -0.70344  -0.67568
 Alpha  occ. eigenvalues --   -0.60824  -0.57671  -0.54868  -0.49964  -0.47707
 Alpha  occ. eigenvalues --   -0.46424  -0.45441  -0.43242  -0.41231  -0.39779
 Alpha  occ. eigenvalues --   -0.39189  -0.35904  -0.35273  -0.32487  -0.31926
 Alpha  occ. eigenvalues --   -0.30806  -0.26613  -0.24767  -0.23748
 Alpha virt. eigenvalues --    0.07269   0.08679   0.10191   0.12488   0.12543
 Alpha virt. eigenvalues --    0.13479   0.14606   0.15242   0.15794   0.16973
 Alpha virt. eigenvalues --    0.17234   0.17855   0.20445   0.21228   0.23301

 Mulliken charges:
               1
     1  C   -0.505028
     2  C    0.289586
     3  C   -0.286362
     4  C   -0.135821
     5  C   -0.213747
     6  C    0.345715
     7  O   -0.464876
     8  C    0.045601
     9  O   -0.444815
    10  H    0.118700
    11  H    0.113666
    12  H    0.125446
    13  H    0.098770
    14  H    0.085799
    15  H    0.088642
    16  H    0.096034
    17  H    0.288176
    18  H    0.068126
    19  H    0.286386
 Sum of Mulliken charges =   0.00000

 Dipole moment (field-independent basis, Debye):
    X=              0.2931    Y=             -1.5532    Z=             -0.1842  Tot=              1.5913
 Quadrupole moment (field-independent basis, Debye-Ang):
   XX=            -51.4059   YY=            -56.6341   ZZ=            -50.5187
   XY=             -0.4497   XZ=             -3.3129   YZ=              2.2461

  Exact polarizability:  81.451  -0.034  74.688  -0.483   1.506  68.396
 Approx polarizability: 111.492   1.622 109.914  -0.827   2.417 109.560

                      1                      2                      3
                      A                      A                      A
 Frequencies --    167.2182               197.9785               200.7666
 Red. masses --      3.1802                 1.3885                 1.2513
 Frc consts  --      0.0524                 0.0321                 0.0297
 IR Inten    --      7.3232                17.8332                16.2593

                      4                      5                      6
                      A                      A                      A
 Frequencies --    231.3682               265.2744               294.0564
 Red. masses --      2.9922                 1.4018                 2.3158
 Frc consts  --      0.0944                 0.0581                 0.1180
 IR Inten    --      3.8804                49.6379                15.4498

                      7                      8                      9
                      A                      A                      A
 Frequencies --    322.6486               341.0399               445.1008
 Red. masses --      2.5154                 1.6910                 2.3258
 Frc consts  --      0.1543                 0.1159                 0.2715
 IR Inten    --     44.1616                39.3172                 2.4154

                     10                     11                     12
                      A                      A                      A
 Frequencies --    453.5591               521.9693               597.9237
 Red. masses --      3.4955                 4.8586                 4.1045
 Frc consts  --      0.4237                 0.7799                 0.8646
 IR Inten    --      3.5500                 1.8749                 2.3008

                     13                     14                     15
                      A                      A                      A
 Frequencies --    681.6605               727.6649               811.6628
 Red. masses --      3.7205                 2.5104                 3.0952
 Frc consts  --      1.0186                 0.7832                 1.2014
 IR Inten    --      3.3642                 4.4846                12.5331

                     16                     17                     18
                      A                      A                      A
 Frequencies --    836.9886               856.0536               889.0307
 Red. masses --      1.3848                 2.4171                 2.1020
 Frc consts  --      0.5716                 1.0436                 0.9788
 IR Inten    --      8.1846                 5.0374                 3.4215

                     19                     20                     21
                      A                      A                      A
 Frequencies --    913.5364               946.3585               968.0184
 Red. masses --      2.7466                 2.0532                 1.3888
 Frc consts  --      1.3505                 1.0834                 0.7667
 IR Inten    --     10.4439                16.8450                 5.0742

                     22                     23                     24
                      A                      A                      A
 Frequencies --    985.0084              1011.7150              1075.5058
 Red. masses --      2.3794                 1.7821                 1.5795
 Frc consts  --      1.3602                 1.0747                 1.0765
 IR Inten    --     27.5197                 4.2668                12.4001

                     25                     26                     27
                      A                      A                      A
 Frequencies --   1111.5121              1130.2235              1135.2393
 Red. masses --      2.1173                 2.3798                 1.9234
 Frc consts  --      1.5412                 1.7911                 1.4605
 IR Inten    --     33.6151                62.3426                 1.4669

                     28                     29                     30
                      A                      A                      A
 Frequencies --   1173.5037              1193.5812              1227.3049
 Red. masses --      1.7718                 1.5953                 1.7663
 Frc consts  --      1.4376                 1.3390                 1.5675
 IR Inten    --      0.0801                 5.4603                23.2009

                     31                     32                     33
                      A                      A                      A
 Frequencies --   1242.8693              1281.8483              1292.7970
 Red. masses --      2.0345                 1.5142                 2.3406
 Frc consts  --      1.8517                 1.4660                 2.3049
 IR Inten    --     11.2730                26.3336                14.0639

                     34                     35                     36
                      A                      A                      A
 Frequencies --   1308.6569              1345.5063              1404.3731
 Red. masses --      1.7428                 2.7284                 1.4461
 Frc consts  --      1.7585                 2.9102                 1.6804
 IR Inten    --    107.7006                 5.5595                28.9894

                     37                     38                     39
                      A                      A                      A
 Frequencies --   1417.0753              1461.8122              1487.7019
 Red. masses --      1.5208                 2.3390                 1.0623
 Frc consts  --      1.7993                 2.9448                 1.3852
 IR Inten    --     15.2241                62.5322                 5.5223

                     40                     41                     42
                      A                      A                      A
 Frequencies --   1491.0381              1501.4732              3017.4020
 Red. masses --      1.0519                 1.1273                 1.0617
 Frc consts  --      1.3778                 1.4973                 5.6951
 IR Inten    --      5.3327                 4.6876                36.2379

                     43                     44                     45
                      A                      A                      A
 Frequencies --   3026.3432              3032.8270              3078.5756
 Red. masses --      1.0411                 1.0777                 1.1041
 Frc consts  --      5.6177                 5.8403                 6.1651
 IR Inten    --     32.3915                75.3884                28.0500

                     46                     47                     48
                      A                      A                      A
 Frequencies --   3089.2571              3106.8080              3188.7234
 Red. masses --      1.0995                 1.1007                 1.0914
 Frc consts  --      6.1824                 6.2594                 6.5383
 IR Inten    --     24.3411                15.6023                17.2955

                     49                     50                     51
                      A                      A                      A
 Frequencies --   3223.4816              3785.7318              3792.4902
 Red. masses --      1.0978                 1.0660                 1.0654
 Frc consts  --      6.7209                 9.0009                 9.0286
 IR Inten    --      4.8568                24.2645                18.0170

 - Thermochemistry -
 -------------------
 Temperature   298.150 Kelvin.  Pressure   1.00000 Atm.
 Atom     1 has atomic number  6 and mass  12.00000

 Molecular mass:   126.06808 amu.
 Principal axes and moments of inertia in atomic units:
                           1         2         3
     Eigenvalues --   728.66404 990.224461423.67649
           X            0.99981  -0.01552  -0.01178
           Y            0.01575   0.99968   0.01977
           Z            0.01147  -0.01996   0.99974
 This molecule is an asymmetric top.
 Rotational symmetry number  1.
 Warning -- assumption of classical behavior for rotation
           may cause significant error
 Rotational temperatures (Kelvin)      0.11887     0.08747     0.06084
 Rotational constants (GHZ):           2.47678     1.82256     1.26766
 Zero-point vibrational energy     414447.8 (Joules/Mol)
                                   99.05540 (Kcal/Mol)
 Warning -- explicit consideration of  12 degrees of freedom as
           vibrations may cause significant error
 Vibrational temperatures:    240.59   284.85   288.86   332.89   381.67
          (Kelvin)            423.08   464.22   490.68   640.40   652.57
                              751.00   860.28   980.76  1046.95  1167.80
                             1204.24  1231.67  1279.12  1314.37  1361.60
                             1392.76  1417.21  1455.63  1547.41  1599.22
                             1626.14  1633.35  1688.41  1717.29  1765.82
                             1788.21  1844.29  1860.04  1882.86  1935.88
                             2020.58  2038.85  2103.22  2140.47  2145.27
                             2160.28  4341.36  4354.23  4363.56  4429.38
                             4444.75  4470.00  4587.86  4637.87  5446.82
                             5456.54

 Zero-point correction=                           0.157855 (Hartree/Particle)
 Thermal correction to Energy=                    0.166430
 Thermal correction to Enthalpy=                  0.167374
 Thermal correction to Gibbs Free Energy=         0.125514
 Sum of electronic and zero-point Energies=           -422.971167
 Sum of electronic and thermal Energies=              -422.962591
 Sum of electronic and thermal Enthalpies=            -422.961647
 Sum of electronic and thermal Free Energies=         -423.003507

                     E (Thermal)             CV                S
                      KCal/Mol        Cal/Mol-Kelvin    Cal/Mol-Kelvin
 Total                  104.437             33.940             88.102
 Electronic               0.000              0.000              0.000
 Translational            0.889              2.981             40.409
 Rotational               0.889              2.981             28.420
 Vibrational            102.659             27.979             19.273
 Vibration     1          0.624              1.883              2.467
 Vibration     2          0.637              1.843              2.152
 Vibration     3          0.638              1.839              2.126
 Vibration     4          0.653              1.793              1.868
 Vibration     5          0.671              1.737              1.627
 Vibration     6          0.689              1.685              1.451
 Vibration     7          0.708              1.630              1.297
 Vibration     8          0.721              1.593              1.207
 Vibration     9          0.804              1.372              0.811
 Vibration    10          0.812              1.353              0.785
 Vibration    11          0.877              1.201              0.605
 Vibration    12          0.956              1.036              0.453

 Normal termination of Gaussian 09 at Mon Jan 27 22:56:43 2020.
