 Gaussian 09, Revision D.01,
 Gaussian 09:  ES64L-G09RevD.01 24-Apr-2013

 -----------------------------
 # b3lyp 6-31G(2df,p) opt Freq
 -----------------------------

 -----
 titel
 -----
 Symbolic Z-matrix:
 Charge =  0 Multiplicity = 1

 SCF Done:  E(RB3LYP) =  -423.159600814     A.U. after   14 cycles
 Optimization completed.
    -- Stationary point found.
 Normal termination of Gaussian 09 at Tue Jan 28 03:58:43 2020.

 ----------------------------------------------------------------------
 #N Geom=AllCheck Guess=TCheck SCRF=Check GenChk RB3LYP/6-31G(2df,p) Fr
 eq
 ----------------------------------------------------------------------

 Structure from the checkpoint file:  "/scratch/puck/g09_9b1e2fb8-de3f-4907-9fd1-38a23c27dfdf/Gau-8829.chk"
 -----
 titel
 -----
 Charge =  0 Multiplicity = 1

                         Standard orientation:
 ---------------------------------------------------------------------
 Center     Atomic      Atomic             Coordinates (Angstroms)
 Number     Number       Type             X           Y           Z
 ---------------------------------------------------------------------
      1          8           0        2.607398   -0.478543   -0.500172
      2          6           0        1.498693   -0.005974    0.235581
      3          6           0        1.260185    1.489285   -0.029693
      4          6           0       -0.279275    1.703348    0.073416
      5          6           0       -0.867267    0.311172    0.447263
      6          6           0       -2.224814    0.057391   -0.003995
      7          6           0       -3.332912   -0.191625   -0.401496
      8          6           0        0.173997   -0.662870   -0.148511
      9          8           0        0.129290   -1.980658    0.352463
     10          1           0        2.655914   -1.429731   -0.351516
     11          1           0        1.646777   -0.186147    1.313533
     12          1           0        1.818133    2.117376    0.667850
     13          1           0        1.624746    1.719494   -1.034536
     14          1           0       -0.555761    2.457137    0.813454
     15          1           0       -0.692226    2.030437   -0.883862
     16          1           0       -0.828060    0.182609    1.537336
     17          1           0       -4.318338   -0.391584   -0.742871
     18          1           0        0.086573   -0.652456   -1.246661
     19          1           0       -0.702913   -2.377882    0.073556
 ---------------------------------------------------------------------

 SCF Done:  E(RB3LYP) =  -423.159600814     A.U. after    1 cycles

 The electronic state is 1-A.
 Alpha  occ. eigenvalues --  -19.14536 -19.13349 -10.23283 -10.22860 -10.21072
 Alpha  occ. eigenvalues --  -10.19177 -10.18488 -10.18249 -10.17578  -1.03370
 Alpha  occ. eigenvalues --   -1.01217  -0.84224  -0.76092  -0.70428  -0.70087
 Alpha  occ. eigenvalues --   -0.60636  -0.57232  -0.53923  -0.53150  -0.50646
 Alpha  occ. eigenvalues --   -0.46625  -0.45557  -0.44007  -0.41385  -0.38175
 Alpha  occ. eigenvalues --   -0.37719  -0.36516  -0.34938  -0.33630  -0.31504
 Alpha  occ. eigenvalues --   -0.28957  -0.27268  -0.26652  -0.25153
 Alpha virt. eigenvalues --    0.04205   0.05109   0.08158   0.08907   0.09415
 Alpha virt. eigenvalues --    0.11306   0.12590   0.15223   0.16003   0.16594
 Alpha virt. eigenvalues --    0.17943   0.18864   0.19397   0.22120   0.23317

 Mulliken charges:
               1
     1  O   -0.450689
     2  C    0.140312
     3  C   -0.237114
     4  C   -0.236245
     5  C   -0.185451
     6  C    0.274171
     7  C   -0.437890
     8  C    0.092904
     9  O   -0.453297
    10  H    0.288425
    11  H    0.071571
    12  H    0.108479
    13  H    0.119662
    14  H    0.112572
    15  H    0.117500
    16  H    0.109346
    17  H    0.194799
    18  H    0.079163
    19  H    0.291782
 Sum of Mulliken charges =   0.00000

 Dipole moment (field-independent basis, Debye):
    X=             -1.2661    Y=             -0.1695    Z=              0.1067  Tot=              1.2818
 Quadrupole moment (field-independent basis, Debye-Ang):
   XX=            -54.0193   YY=            -50.3332   ZZ=            -53.3670
   XY=              1.3696   XZ=              3.2531   YZ=              2.1369

  Exact polarizability:  99.367   4.715  72.187   6.045   1.456  60.205
 Approx polarizability: 139.010   8.345 100.348  12.895   2.196  96.448

                      1                      2                      3
                      A                      A                      A
 Frequencies --     59.4436                93.8830               118.5775
 Red. masses --      1.9812                 5.0469                 3.9885
 Frc consts  --      0.0041                 0.0262                 0.0330
 IR Inten    --      0.0901                 0.9143                 1.1800

                      4                      5                      6
                      A                      A                      A
 Frequencies --    208.4728               235.1681               338.4616
 Red. masses --      3.0692                 3.3841                 1.2904
 Frc consts  --      0.0786                 0.1103                 0.0871
 IR Inten    --      5.7207                 7.2703                77.9233

                      7                      8                      9
                      A                      A                      A
 Frequencies --    354.8087               381.7643               394.2493
 Red. masses --      1.9810                 2.0474                 2.1953
 Frc consts  --      0.1469                 0.1758                 0.2010
 IR Inten    --     32.2412                83.9677                35.8841

                     10                     11                     12
                      A                      A                      A
 Frequencies --    460.0826               502.0912               549.9463
 Red. masses --      7.2691                 4.1635                 3.8733
 Frc consts  --      0.9066                 0.6184                 0.6902
 IR Inten    --      2.8454                 5.1196                 4.6394

                     13                     14                     15
                      A                      A                      A
 Frequencies --    563.7649               596.9316               622.5633
 Red. masses --      4.0353                 4.2901                 1.2061
 Frc consts  --      0.7556                 0.9007                 0.2754
 IR Inten    --     11.4119                 2.7562                45.0662

                     16                     17                     18
                      A                      A                      A
 Frequencies --    639.9326               780.2076               874.0688
 Red. masses --      1.2282                 1.3458                 2.2612
 Frc consts  --      0.2963                 0.4827                 1.0178
 IR Inten    --     41.5474                 0.5912                 8.8777

                     19                     20                     21
                      A                      A                      A
 Frequencies --    928.7329               983.3316              1020.0244
 Red. masses --      2.3545                 2.4317                 2.3957
 Frc consts  --      1.1966                 1.3854                 1.4686
 IR Inten    --     10.3338                 1.5116                 3.7271

                     22                     23                     24
                      A                      A                      A
 Frequencies --   1033.2789              1036.5578              1085.3802
 Red. masses --      3.7422                 2.7241                 2.2475
 Frc consts  --      2.3540                 1.7245                 1.5599
 IR Inten    --     11.9141                27.6816                 6.4798

                     25                     26                     27
                      A                      A                      A
 Frequencies --   1130.3100              1134.7097              1171.2212
 Red. masses --      3.1970                 4.0628                 1.4976
 Frc consts  --      2.4065                 3.0821                 1.2104
 IR Inten    --    110.9160                61.1743                 3.6480

                     28                     29                     30
                      A                      A                      A
 Frequencies --   1214.1073              1242.5732              1270.7481
 Red. masses --      1.4328                 1.1221                 1.1714
 Frc consts  --      1.2444                 1.0207                 1.1145
 IR Inten    --      9.0095                24.5273                 3.5637

                     31                     32                     33
                      A                      A                      A
 Frequencies --   1281.6722              1286.0043              1315.9291
 Red. masses --      1.3310                 1.1637                 1.3730
 Frc consts  --      1.2882                 1.1339                 1.4009
 IR Inten    --      1.0195                40.3626                 2.2854

                     34                     35                     36
                      A                      A                      A
 Frequencies --   1322.0093              1363.0087              1388.4044
 Red. masses --      1.2703                 1.3331                 1.5366
 Frc consts  --      1.3080                 1.4592                 1.7452
 IR Inten    --     20.3724                39.5565                22.4209

                     37                     38                     39
                      A                      A                      A
 Frequencies --   1426.6809              1448.2936              1490.3205
 Red. masses --      1.5313                 1.4423                 1.0780
 Frc consts  --      1.8364                 1.7824                 1.4107
 IR Inten    --     13.5579                 2.2299                 0.0357

                     40                     41                     42
                      A                      A                      A
 Frequencies --   1510.5174              2230.3393              2960.9380
 Red. masses --      1.1010                 5.9765                 1.0812
 Frc consts  --      1.4800                17.5161                 5.5849
 IR Inten    --      4.5894                 6.4412                20.5815

                     43                     44                     45
                      A                      A                      A
 Frequencies --   2985.3742              3021.4453              3064.8242
 Red. masses --      1.0833                 1.0827                 1.0600
 Frc consts  --      5.6883                 5.8237                 5.8661
 IR Inten    --     40.5967                23.8596                18.7554

                     46                     47                     48
                      A                      A                      A
 Frequencies --   3074.6733              3102.6789              3123.1116
 Red. masses --      1.0609                 1.1058                 1.1053
 Frc consts  --      5.9089                 6.2718                 6.3519
 IR Inten    --     30.5800                 1.1698                35.2866

                     49                     50                     51
                      A                      A                      A
 Frequencies --   3503.6682              3802.5029              3807.4876
 Red. masses --      1.1608                 1.0658                 1.0660
 Frc consts  --      8.3957                 9.0794                 9.1053
 IR Inten    --     75.4326                26.1977                27.3729

 - Thermochemistry -
 -------------------
 Temperature   298.150 Kelvin.  Pressure   1.00000 Atm.
 Atom     1 has atomic number  8 and mass  15.99491

 Molecular mass:   126.06808 amu.
 Principal axes and moments of inertia in atomic units:
                           1         2         3
     Eigenvalues --   647.948071483.292891983.73113
           X            0.99990   0.01235   0.00722
           Y           -0.01241   0.99988   0.00942
           Z           -0.00710  -0.00951   0.99993
 This molecule is an asymmetric top.
 Rotational symmetry number  1.
 Warning -- assumption of classical behavior for rotation
           may cause significant error
 Rotational temperatures (Kelvin)      0.13367     0.05839     0.04366
 Rotational constants (GHZ):           2.78532     1.21671     0.90977
 Zero-point vibrational energy     415913.3 (Joules/Mol)
                                   99.40567 (Kcal/Mol)
 Warning -- explicit consideration of  14 degrees of freedom as
           vibrations may cause significant error
 Vibrational temperatures:     85.53   135.08   170.61   299.95   338.35
          (Kelvin)            486.97   510.49   549.27   567.24   661.96
                              722.40   791.25   811.13   858.85   895.73
                              920.72  1122.54  1257.59  1336.24  1414.79
                             1467.59  1486.66  1491.37  1561.62  1626.26
                             1632.59  1685.12  1746.83  1787.78  1828.32
                             1844.04  1850.27  1893.33  1902.07  1961.06
                             1997.60  2052.67  2083.77  2144.24  2173.29
                             3208.96  4260.12  4295.28  4347.18  4409.59
                             4423.76  4464.06  4493.46  5040.99  5470.95
                             5478.12

 Zero-point correction=                           0.158413 (Hartree/Particle)
 Thermal correction to Energy=                    0.167778
 Thermal correction to Enthalpy=                  0.168722
 Thermal correction to Gibbs Free Energy=         0.124054
 Sum of electronic and zero-point Energies=           -423.001188
 Sum of electronic and thermal Energies=              -422.991823
 Sum of electronic and thermal Enthalpies=            -422.990879
 Sum of electronic and thermal Free Energies=         -423.035546

                     E (Thermal)             CV                S
                      KCal/Mol        Cal/Mol-Kelvin    Cal/Mol-Kelvin
 Total                  105.282             35.236             94.011
 Electronic               0.000              0.000              0.000
 Translational            0.889              2.981             40.409
 Rotational               0.889              2.981             29.035
 Vibrational            103.505             29.275             24.568
 Vibration     1          0.597              1.974              4.476
 Vibration     2          0.603              1.954              3.577
 Vibration     3          0.609              1.934              3.123
 Vibration     4          0.642              1.828              2.057
 Vibration     5          0.655              1.787              1.839
 Vibration     6          0.719              1.599              1.219
 Vibration     7          0.731              1.565              1.145
 Vibration     8          0.751              1.509              1.032
 Vibration     9          0.761              1.482              0.984
 Vibration    10          0.818              1.339              0.766
 Vibration    11          0.857              1.245              0.653
 Vibration    12          0.905              1.140              0.544
 Vibration    13          0.920              1.110              0.516
 Vibration    14          0.955              1.038              0.455

 Optimization completed.
    -- Stationary point found.
 Normal termination of Gaussian 09 at Tue Jan 28 04:38:14 2020.
