 Gaussian 09, Revision D.01,
 Gaussian 09:  ES64L-G09RevD.01 24-Apr-2013

 -----------------------------
 # b3lyp 6-31G(2df,p) opt Freq
 -----------------------------

 -----
 titel
 -----
 Symbolic Z-matrix:
 Charge =  0 Multiplicity = 1

 SCF Done:  E(RB3LYP) =  -423.169609567     A.U. after   14 cycles
 Optimization completed.
    -- Stationary point found.
 Normal termination of Gaussian 09 at Mon Jan 27 14:13:31 2020.

 ----------------------------------------------------------------------
 #N Geom=AllCheck Guess=TCheck SCRF=Check GenChk RB3LYP/6-31G(2df,p) Fr
 eq
 ----------------------------------------------------------------------

 Structure from the checkpoint file:  "/scratch/puck/g09_e7da0b72-f108-43e8-aa6c-68d0d9b417f9/Gau-171146.chk"
 -----
 titel
 -----
 Charge =  0 Multiplicity = 1

                         Standard orientation:
 ---------------------------------------------------------------------
 Center     Atomic      Atomic             Coordinates (Angstroms)
 Number     Number       Type             X           Y           Z
 ---------------------------------------------------------------------
      1          6           0        2.391500   -1.044176   -0.517878
      2          6           0        1.866872    0.223721    0.123244
      3          8           0        2.332345    1.315998   -0.101157
      4          6           0        0.665997    0.055892    1.064933
      5          6           0       -0.609633    0.000056    0.273160
      6          6           0       -1.313286    1.135633   -0.493578
      7          6           0       -2.671729    0.382095   -0.266441
      8          6           0       -1.887810   -0.708516    0.474893
      9          8           0       -0.904495   -1.213556   -0.442317
     10          1           0        2.846395   -1.680662    0.251099
     11          1           0        1.565916   -1.616716   -0.952739
     12          1           0        3.137824   -0.802317   -1.275349
     13          1           0        0.759429   -0.865489    1.648921
     14          1           0        0.644817    0.916593    1.739113
     15          1           0       -1.272075    2.094837    0.026928
     16          1           0       -0.984369    1.267867   -1.526291
     17          1           0       -3.356013    0.936160    0.380094
     18          1           0       -3.203738    0.040881   -1.157215
     19          1           0       -2.212455   -1.378922    1.263231
 ---------------------------------------------------------------------

 SCF Done:  E(RB3LYP) =  -423.169609567     A.U. after    1 cycles

 The electronic state is 1-A.
 Alpha  occ. eigenvalues --  -19.15429 -19.12813 -10.27125 -10.24966 -10.24085
 Alpha  occ. eigenvalues --  -10.19916 -10.19422 -10.19207 -10.18397  -1.08063
 Alpha  occ. eigenvalues --   -1.03905  -0.80652  -0.78045  -0.72453  -0.66185
 Alpha  occ. eigenvalues --   -0.62096  -0.55332  -0.53741  -0.50497  -0.47559
 Alpha  occ. eigenvalues --   -0.46176  -0.45325  -0.43974  -0.42499  -0.41066
 Alpha  occ. eigenvalues --   -0.39240  -0.37991  -0.36249  -0.35738  -0.34151
 Alpha  occ. eigenvalues --   -0.33276  -0.30000  -0.26325  -0.23851
 Alpha virt. eigenvalues --   -0.01372   0.09037   0.09788   0.10705   0.11693
 Alpha virt. eigenvalues --    0.12117   0.13881   0.14140   0.15112   0.15783
 Alpha virt. eigenvalues --    0.16676   0.17182   0.18810   0.19615   0.20349

 Mulliken charges:
               1
     1  C   -0.481801
     2  C    0.382332
     3  O   -0.299018
     4  C   -0.408542
     5  C    0.421883
     6  C   -0.280202
     7  C   -0.239023
     8  C   -0.049094
     9  O   -0.288796
    10  H    0.138493
    11  H    0.167094
    12  H    0.138385
    13  H    0.115270
    14  H    0.124809
    15  H    0.115262
    16  H    0.115983
    17  H    0.109010
    18  H    0.114891
    19  H    0.103065
 Sum of Mulliken charges =   0.00000

 Dipole moment (field-independent basis, Debye):
    X=             -1.6641    Y=             -1.0630    Z=              1.5231  Tot=              2.4938
 Quadrupole moment (field-independent basis, Debye-Ang):
   XX=            -53.1595   YY=            -56.5846   ZZ=            -51.3024
   XY=             -6.8341   XZ=             -0.4949   YZ=             -1.1028

  Exact polarizability:  89.854   0.817  74.494  -2.505  -1.986  63.994
 Approx polarizability: 115.802   8.137 120.400  -5.029  -1.420  97.230

                      1                      2                      3
                      A                      A                      A
 Frequencies --     34.0185                64.6190               116.2783
 Red. masses --      4.4136                 4.1024                 3.7434
 Frc consts  --      0.0030                 0.0101                 0.0298
 IR Inten    --      5.1302                 4.6373                 1.1455

                      4                      5                      6
                      A                      A                      A
 Frequencies --    158.2601               224.4442               285.8561
 Red. masses --      1.0353                 2.2524                 3.4825
 Frc consts  --      0.0153                 0.0669                 0.1677
 IR Inten    --      0.0504                 1.0424                 0.5910

                      7                      8                      9
                      A                      A                      A
 Frequencies --    358.8321               402.7532               480.2041
 Red. masses --      2.2850                 2.0346                 3.6586
 Frc consts  --      0.1733                 0.1945                 0.4971
 IR Inten    --      0.4100                 2.2384                 7.1615

                     10                     11                     12
                      A                      A                      A
 Frequencies --    508.4871               556.6831               707.1753
 Red. masses --      3.1566                 3.0253                 2.9639
 Frc consts  --      0.4809                 0.5524                 0.8733
 IR Inten    --     12.1843                10.3595                 1.9212

                     13                     14                     15
                      A                      A                      A
 Frequencies --    726.3435               771.3900               793.4217
 Red. masses --      5.5121                 1.3602                 3.3965
 Frc consts  --      1.7134                 0.4769                 1.2598
 IR Inten    --      3.9700                 1.1197                 3.6342

                     16                     17                     18
                      A                      A                      A
 Frequencies --    870.9383               883.2119               918.9476
 Red. masses --      2.5561                 1.9946                 2.2625
 Frc consts  --      1.1424                 0.9167                 1.1257
 IR Inten    --     12.1228                 3.5247                 1.4822

                     19                     20                     21
                      A                      A                      A
 Frequencies --    930.6963               951.6457               980.4907
 Red. masses --      2.4040                 3.0486                 1.4966
 Frc consts  --      1.2269                 1.6267                 0.8477
 IR Inten    --     23.0901                 2.5350                 0.9263

                     22                     23                     24
                      A                      A                      A
 Frequencies --   1031.0778              1039.1620              1071.2498
 Red. masses --      1.6612                 2.0094                 2.0478
 Frc consts  --      1.0406                 1.2785                 1.3846
 IR Inten    --      4.0254                 2.7218                 1.5555

                     25                     26                     27
                      A                      A                      A
 Frequencies --   1124.0277              1161.6471              1203.1672
 Red. masses --      1.6867                 1.6242                 2.1331
 Frc consts  --      1.2556                 1.2914                 1.8193
 IR Inten    --      0.3656                 3.0375                69.3510

                     28                     29                     30
                      A                      A                      A
 Frequencies --   1210.8617              1220.4444              1244.2254
 Red. masses --      1.1759                 1.5105                 1.3198
 Frc consts  --      1.0158                 1.3255                 1.2038
 IR Inten    --      0.9476                18.4599                20.5117

                     31                     32                     33
                      A                      A                      A
 Frequencies --   1261.3817              1302.7956              1306.3661
 Red. masses --      1.6146                 1.9232                 1.5743
 Frc consts  --      1.5136                 1.9232                 1.5830
 IR Inten    --     19.7602                10.3286                19.8034

                     34                     35                     36
                      A                      A                      A
 Frequencies --   1385.2611              1435.4837              1456.7175
 Red. masses --      1.3211                 2.8561                 1.1766
 Frc consts  --      1.4936                 3.4676                 1.4711
 IR Inten    --     41.0634                16.5698                 8.1009

                     37                     38                     39
                      A                      A                      A
 Frequencies --   1464.2661              1467.8658              1475.3745
 Red. masses --      1.0883                 1.0680                 1.0532
 Frc consts  --      1.3748                 1.3558                 1.3508
 IR Inten    --      0.0297                10.5853                 8.5133

                     40                     41                     42
                      A                      A                      A
 Frequencies --   1490.7295              1816.9811              3034.9712
 Red. masses --      1.2803                10.5088                 1.0389
 Frc consts  --      1.6763                20.4411                 5.6383
 IR Inten    --      3.7099               158.4546                 2.2210

                     43                     44                     45
                      A                      A                      A
 Frequencies --   3049.9415              3068.5621              3076.6813
 Red. masses --      1.0574                 1.0566                 1.0594
 Frc consts  --      5.7950                 5.8618                 5.9085
 IR Inten    --     11.3491                33.0492                20.6950

                     46                     47                     48
                      A                      A                      A
 Frequencies --   3101.0258              3111.2589              3120.6463
 Red. masses --      1.0948                 1.1050                 1.1092
 Frc consts  --      6.2029                 6.3020                 6.3644
 IR Inten    --      3.6925                 9.4134                 1.3007

                     49                     50                     51
                      A                      A                      A
 Frequencies --   3137.0241              3155.6283              3179.8851
 Red. masses --      1.1082                 1.1035                 1.0941
 Frc consts  --      6.4253                 6.4744                 6.5182
 IR Inten    --     27.2606                 8.7754                20.3114

 - Thermochemistry -
 -------------------
 Temperature   298.150 Kelvin.  Pressure   1.00000 Atm.
 Atom     1 has atomic number  6 and mass  12.00000

 Molecular mass:   126.06808 amu.
 Principal axes and moments of inertia in atomic units:
                           1         2         3
     Eigenvalues --   520.368681651.069571874.91419
           X            0.99903  -0.04395  -0.00287
           Y            0.04391   0.99892  -0.01513
           Z            0.00353   0.01499   0.99988
 This molecule is an asymmetric top.
 Rotational symmetry number  1.
 Warning -- assumption of classical behavior for rotation
           may cause significant error
 Rotational temperatures (Kelvin)      0.16645     0.05246     0.04620
 Rotational constants (GHZ):           3.46820     1.09307     0.96257
 Zero-point vibrational energy     412289.4 (Joules/Mol)
                                   98.53953 (Kcal/Mol)
 Warning -- explicit consideration of  11 degrees of freedom as
           vibrations may cause significant error
 Vibrational temperatures:     48.94    92.97   167.30   227.70   322.92
          (Kelvin)            411.28   516.28   579.47   690.91   731.60
                              800.94  1017.47  1045.04  1109.86  1141.56
                             1253.08  1270.74  1322.16  1339.06  1369.20
                             1410.71  1483.49  1495.12  1541.29  1617.22
                             1671.35  1731.09  1742.16  1755.95  1790.16
                             1814.84  1874.43  1879.57  1993.08  2065.34
                             2095.89  2106.75  2111.93  2122.73  2144.82
                             2614.23  4366.64  4388.18  4414.97  4426.65
                             4461.68  4476.40  4489.91  4513.47  4540.24
                             4575.14

 Zero-point correction=                           0.157033 (Hartree/Particle)
 Thermal correction to Energy=                    0.166089
 Thermal correction to Enthalpy=                  0.167033
 Thermal correction to Gibbs Free Energy=         0.122014
 Sum of electronic and zero-point Energies=           -423.012577
 Sum of electronic and thermal Energies=              -423.003521
 Sum of electronic and thermal Enthalpies=            -423.002576
 Sum of electronic and thermal Free Energies=         -423.047595

                     E (Thermal)             CV                S
                      KCal/Mol        Cal/Mol-Kelvin    Cal/Mol-Kelvin
 Total                  104.222             33.059             94.750
 Electronic               0.000              0.000              0.000
 Translational            0.889              2.981             40.409
 Rotational               0.889              2.981             28.867
 Vibrational            102.445             27.097             25.474
 Vibration     1          0.594              1.983              5.580
 Vibration     2          0.597              1.971              4.311
 Vibration     3          0.608              1.936              3.161
 Vibration     4          0.621              1.893              2.570
 Vibration     5          0.649              1.804              1.923
 Vibration     6          0.684              1.700              1.498
 Vibration     7          0.734              1.557              1.127
 Vibration     8          0.768              1.464              0.953
 Vibration     9          0.837              1.294              0.710
 Vibration    10          0.864              1.231              0.637
 Vibration    11          0.912              1.125              0.530

 Optimization completed.
    -- Stationary point found.
 Normal termination of Gaussian 09 at Mon Jan 27 14:57:59 2020.
