 Gaussian 09, Revision D.01,
 Gaussian 09:  ES64L-G09RevD.01 24-Apr-2013

 -----------------------------
 # b3lyp 6-31G(2df,p) opt Freq
 -----------------------------

 -----
 titel
 -----
 Symbolic Z-matrix:
 Charge =  0 Multiplicity = 1

 SCF Done:  E(RB3LYP) =  -423.111311589     A.U. after   13 cycles
 Optimization completed.
    -- Stationary point found.
 Normal termination of Gaussian 09 at Mon Jan 27 18:42:31 2020.

 ----------------------------------------------------------------------
 #N Geom=AllCheck Guess=TCheck SCRF=Check GenChk RB3LYP/6-31G(2df,p) Fr
 eq
 ----------------------------------------------------------------------

 Structure from the checkpoint file:  "/scratch/puck/g09_7cb10ffd-cbd0-460b-9da9-7fa56affd290/Gau-43818.chk"
 -----
 titel
 -----
 Charge =  0 Multiplicity = 1

                         Standard orientation:
 ---------------------------------------------------------------------
 Center     Atomic      Atomic             Coordinates (Angstroms)
 Number     Number       Type             X           Y           Z
 ---------------------------------------------------------------------
      1          6           0        0.836576    1.996778    0.246663
      2          6           0        0.964880    0.532103   -0.055523
      3          6           0        2.190373   -0.117776   -0.702138
      4          8           0        2.039417   -1.319226    0.104902
      5          6           0        0.929854   -0.729498    0.776599
      6          6           0       -0.191726   -0.456655   -0.195040
      7          6           0       -1.512380   -0.069747    0.375617
      8          6           0       -2.759830   -0.724976   -0.036159
      9          8           0       -2.438901    0.586200   -0.503005
     10          1           0        1.739312    2.377781    0.736968
     11          1           0        0.685388    2.572731   -0.673839
     12          1           0       -0.013274    2.207460    0.900552
     13          1           0        2.153000   -0.328161   -1.777791
     14          1           0        3.129525    0.391693   -0.455168
     15          1           0        0.806344   -0.926462    1.836493
     16          1           0       -0.242300   -1.076334   -1.088925
     17          1           0       -1.485896    0.361721    1.377861
     18          1           0       -2.725359   -1.511389   -0.789381
     19          1           0       -3.597342   -0.786196    0.657942
 ---------------------------------------------------------------------

 SCF Done:  E(RB3LYP) =  -423.111311589     A.U. after    1 cycles

 The electronic state is 1-A.
 Alpha  occ. eigenvalues --  -19.14942 -19.13938 -10.24412 -10.24177 -10.23532
 Alpha  occ. eigenvalues --  -10.23471 -10.20608 -10.19749 -10.18710  -1.06930
 Alpha  occ. eigenvalues --   -1.05353  -0.84743  -0.73800  -0.68745  -0.67931
 Alpha  occ. eigenvalues --   -0.64552  -0.58346  -0.54390  -0.51179  -0.49727
 Alpha  occ. eigenvalues --   -0.46923  -0.45911  -0.44121  -0.41188  -0.40783
 Alpha  occ. eigenvalues --   -0.40434  -0.39052  -0.37431  -0.34608  -0.32211
 Alpha  occ. eigenvalues --   -0.30941  -0.27193  -0.26128  -0.23287
 Alpha virt. eigenvalues --    0.07167   0.08513   0.09915   0.10813   0.11311
 Alpha virt. eigenvalues --    0.11501   0.12670   0.14163   0.15487   0.15921
 Alpha virt. eigenvalues --    0.16799   0.17642   0.18619   0.21066   0.21556

 Mulliken charges:
               1
     1  C   -0.494943
     2  C    0.241866
     3  C   -0.130647
     4  O   -0.294388
     5  C    0.044872
     6  C   -0.116035
     7  C    0.068567
     8  C   -0.188055
     9  O   -0.242971
    10  H    0.119926
    11  H    0.131749
    12  H    0.130506
    13  H    0.106304
    14  H    0.108316
    15  H    0.104716
    16  H    0.089023
    17  H    0.091134
    18  H    0.115825
    19  H    0.114234
 Sum of Mulliken charges =   0.00000

 Dipole moment (field-independent basis, Debye):
    X=             -0.0612    Y=              0.3587    Z=              0.8455  Tot=              0.9205
 Quadrupole moment (field-independent basis, Debye-Ang):
   XX=            -55.2254   YY=            -55.5260   ZZ=            -50.8041
   XY=              8.1912   XZ=             -3.6662   YZ=              1.3432

  Exact polarizability:  92.537   6.359  71.005  -2.118   1.033  65.877
 Approx polarizability: 119.706   4.574 106.967   0.851  -3.236 102.720

                      1                      2                      3
                      A                      A                      A
 Frequencies --     59.1169               134.6022               160.7385
 Red. masses --      3.9652                 1.8169                 2.3153
 Frc consts  --      0.0082                 0.0194                 0.0352
 IR Inten    --      4.1350                 2.5786                 2.4545

                      4                      5                      6
                      A                      A                      A
 Frequencies --    173.3592               246.9960               305.9401
 Red. masses --      1.6506                 3.2877                 2.6089
 Frc consts  --      0.0292                 0.1182                 0.1439
 IR Inten    --      0.7478                 1.6521                 1.3463

                      7                      8                      9
                      A                      A                      A
 Frequencies --    360.1094               378.7530               423.4669
 Red. masses --      2.7075                 3.6729                 3.1930
 Frc consts  --      0.2069                 0.3104                 0.3374
 IR Inten    --      3.1579                 1.7588                 0.9795

                     10                     11                     12
                      A                      A                      A
 Frequencies --    512.9443               673.4357               746.2352
 Red. masses --      3.3413                 4.0055                 3.1258
 Frc consts  --      0.5180                 1.0703                 1.0256
 IR Inten    --     10.4600                 1.1369                 5.0583

                     13                     14                     15
                      A                      A                      A
 Frequencies --    838.6195               842.0202               876.0368
 Red. masses --      7.7712                 2.1347                 2.0874
 Frc consts  --      3.2201                 0.8917                 0.9439
 IR Inten    --     32.6735                13.1661                22.2777

                     16                     17                     18
                      A                      A                      A
 Frequencies --    924.0802               959.7789               984.4634
 Red. masses --      2.4210                 2.0399                 1.9046
 Frc consts  --      1.2181                 1.1071                 1.0876
 IR Inten    --     10.4077                27.6681                32.4255

                     19                     20                     21
                      A                      A                      A
 Frequencies --    988.2518              1011.9961              1019.6460
 Red. masses --      2.3351                 2.2551                 1.6229
 Frc consts  --      1.3437                 1.3607                 0.9941
 IR Inten    --     22.0623                 2.2432                10.4871

                     22                     23                     24
                      A                      A                      A
 Frequencies --   1067.9306              1084.3235              1099.6818
 Red. masses --      2.1500                 1.6173                 1.3425
 Frc consts  --      1.4447                 1.1203                 0.9565
 IR Inten    --      2.9216                18.2905                 6.7994

                     25                     26                     27
                      A                      A                      A
 Frequencies --   1131.4134              1149.1857              1160.6547
 Red. masses --      1.8602                 1.8019                 1.3062
 Frc consts  --      1.4030                 1.4021                 1.0367
 IR Inten    --      1.4505                 3.4146                 3.9595

                     28                     29                     30
                      A                      A                      A
 Frequencies --   1163.0855              1182.7547              1219.5172
 Red. masses --      1.3971                 1.7642                 1.8029
 Frc consts  --      1.1136                 1.4541                 1.5798
 IR Inten    --      4.4752                 2.0549                 3.5599

                     31                     32                     33
                      A                      A                      A
 Frequencies --   1250.7654              1297.7785              1305.9834
 Red. masses --      1.3158                 1.6049                 1.6526
 Frc consts  --      1.2128                 1.5926                 1.6607
 IR Inten    --     24.3172                 3.0092                 5.5098

                     34                     35                     36
                      A                      A                      A
 Frequencies --   1319.7714              1417.5755              1428.6032
 Red. masses --      1.9861                 1.3925                 2.1575
 Frc consts  --      2.0382                 1.6487                 2.5943
 IR Inten    --      1.8378                 1.1618                 2.6562

                     37                     38                     39
                      A                      A                      A
 Frequencies --   1473.0217              1486.6866              1498.1728
 Red. masses --      1.8060                 1.0545                 1.1006
 Frc consts  --      2.3088                 1.3733                 1.4554
 IR Inten    --     23.1167                 5.9990                 2.8473

                     40                     41                     42
                      A                      A                      A
 Frequencies --   1513.5916              1533.1590              3017.5282
 Red. masses --      1.1089                 1.4449                 1.0538
 Frc consts  --      1.4968                 2.0011                 5.6532
 IR Inten    --      0.6197                 6.8906                64.5241

                     43                     44                     45
                      A                      A                      A
 Frequencies --   3029.3713              3068.4816              3079.1100
 Red. masses --      1.0385                 1.1115                 1.0506
 Frc consts  --      5.6152                 6.1660                 5.8688
 IR Inten    --     37.9682                31.9066                32.9646

                     46                     47                     48
                      A                      A                      A
 Frequencies --   3085.3254              3089.9484              3116.4208
 Red. masses --      1.1006                 1.0873                 1.0965
 Frc consts  --      6.1729                 6.1166                 6.2746
 IR Inten    --     19.8397                14.7467                16.3864

                     49                     50                     51
                      A                      A                      A
 Frequencies --   3119.6293              3165.5064              3166.6414
 Red. masses --      1.0896                 1.1166                 1.0955
 Frc consts  --      6.2477                 6.5924                 6.4723
 IR Inten    --     14.8323                16.5901                32.5985

 - Thermochemistry -
 -------------------
 Temperature   298.150 Kelvin.  Pressure   1.00000 Atm.
 Atom     1 has atomic number  6 and mass  12.00000

 Molecular mass:   126.06808 amu.
 Principal axes and moments of inertia in atomic units:
                           1         2         3
     Eigenvalues --   553.704901583.857951902.33686
           X            0.99901   0.04288  -0.01197
           Y           -0.04248   0.99857   0.03237
           Z            0.01335  -0.03183   0.99940
 This molecule is an asymmetric top.
 Rotational symmetry number  1.
 Warning -- assumption of classical behavior for rotation
           may cause significant error
 Rotational temperatures (Kelvin)      0.15643     0.05469     0.04553
 Rotational constants (GHZ):           3.25939     1.13946     0.94870
 Zero-point vibrational energy     414758.5 (Joules/Mol)
                                   99.12966 (Kcal/Mol)
 Warning -- explicit consideration of  10 degrees of freedom as
           vibrations may cause significant error
 Vibrational temperatures:     85.06   193.66   231.27   249.42   355.37
          (Kelvin)            440.18   518.12   544.94   609.27   738.01
                              968.92  1073.66  1206.58  1211.48  1260.42
                             1329.54  1380.91  1416.42  1421.87  1456.03
                             1467.04  1536.51  1560.10  1582.19  1627.85
                             1653.42  1669.92  1673.42  1701.72  1754.61
                             1799.57  1867.21  1879.02  1898.85  2039.57
                             2055.44  2119.35  2139.01  2155.53  2177.72
                             2205.87  4341.54  4358.58  4414.86  4430.15
                             4439.09  4445.74  4483.83  4488.45  4554.45
                             4556.08

 Zero-point correction=                           0.157973 (Hartree/Particle)
 Thermal correction to Energy=                    0.166539
 Thermal correction to Enthalpy=                  0.167483
 Thermal correction to Gibbs Free Energy=         0.124328
 Sum of electronic and zero-point Energies=           -422.953338
 Sum of electronic and thermal Energies=              -422.944773
 Sum of electronic and thermal Enthalpies=            -422.943829
 Sum of electronic and thermal Free Energies=         -422.986983

                     E (Thermal)             CV                S
                      KCal/Mol        Cal/Mol-Kelvin    Cal/Mol-Kelvin
 Total                  104.505             31.915             90.827
 Electronic               0.000              0.000              0.000
 Translational            0.889              2.981             40.409
 Rotational               0.889              2.981             28.902
 Vibrational            102.727             25.953             21.516
 Vibration     1          0.596              1.974              4.486
 Vibration     2          0.613              1.919              2.879
 Vibration     3          0.622              1.890              2.541
 Vibration     4          0.627              1.875              2.399
 Vibration     5          0.661              1.768              1.752
 Vibration     6          0.696              1.662              1.384
 Vibration     7          0.735              1.554              1.122
 Vibration     8          0.749              1.515              1.044
 Vibration     9          0.786              1.419              0.880
 Vibration    10          0.868              1.221              0.627

 Optimization completed.
    -- Stationary point found.
 Normal termination of Gaussian 09 at Mon Jan 27 19:32:58 2020.
