 Gaussian 09, Revision D.01,
 Gaussian 09:  ES64L-G09RevD.01 24-Apr-2013

 -----------------------------
 # b3lyp 6-31G(2df,p) opt Freq
 -----------------------------

 -----
 titel
 -----
 Symbolic Z-matrix:
 Charge =  0 Multiplicity = 1

 SCF Done:  E(RB3LYP) =  -423.215348448     A.U. after   14 cycles
 Optimization completed.
    -- Stationary point found.
 Normal termination of Gaussian 09 at Mon Jan 27 16:23:02 2020.

 ----------------------------------------------------------------------
 #N Geom=AllCheck Guess=TCheck SCRF=Check GenChk RB3LYP/6-31G(2df,p) Fr
 eq
 ----------------------------------------------------------------------

 Structure from the checkpoint file:  "/scratch/puck/g09_fae74c6c-1903-4622-9a47-7cb6f8bdb462/Gau-57209.chk"
 -----
 titel
 -----
 Charge =  0 Multiplicity = 1

                         Standard orientation:
 ---------------------------------------------------------------------
 Center     Atomic      Atomic             Coordinates (Angstroms)
 Number     Number       Type             X           Y           Z
 ---------------------------------------------------------------------
      1          6           0       -2.077929   -0.273504    1.300645
      2          6           0       -1.361988   -0.110197   -0.047177
      3          8           0       -2.252273   -0.422228   -1.119805
      4          6           0       -0.824622    1.326090   -0.283350
      5          6           0        0.681753    1.288922    0.066215
      6          6           0        1.014089   -0.183261   -0.030968
      7          6           0        2.382282   -0.710075   -0.028735
      8          8           0        3.375131   -0.022530    0.065361
      9          6           0       -0.090333   -0.937549   -0.097206
     10          1           0       -2.349573   -1.321232    1.479254
     11          1           0       -1.441119    0.048232    2.130248
     12          1           0       -2.992809    0.327142    1.307174
     13          1           0       -2.724648   -1.231382   -0.895873
     14          1           0       -0.959813    1.544751   -1.345805
     15          1           0       -1.382078    2.075097    0.284132
     16          1           0        1.298176    1.895108   -0.603277
     17          1           0        0.881027    1.657264    1.080228
     18          1           0        2.454634   -1.816904   -0.124137
     19          1           0       -0.106173   -2.022564   -0.152940
 ---------------------------------------------------------------------

 SCF Done:  E(RB3LYP) =  -423.215348448     A.U. after    1 cycles

 The electronic state is 1-A.
 Alpha  occ. eigenvalues --  -19.14391 -19.13293 -10.26538 -10.25174 -10.20364
 Alpha  occ. eigenvalues --  -10.19836 -10.19039 -10.18986 -10.18545  -1.03783
 Alpha  occ. eigenvalues --   -1.02755  -0.85596  -0.75606  -0.73116  -0.67641
 Alpha  occ. eigenvalues --   -0.62799  -0.56812  -0.53900  -0.50911  -0.48809
 Alpha  occ. eigenvalues --   -0.46896  -0.44389  -0.42590  -0.42188  -0.39280
 Alpha  occ. eigenvalues --   -0.39129  -0.37737  -0.36572  -0.36098  -0.34982
 Alpha  occ. eigenvalues --   -0.32854  -0.28205  -0.26443  -0.24957
 Alpha virt. eigenvalues --   -0.05768   0.06195   0.06489   0.10228   0.11441
 Alpha virt. eigenvalues --    0.12826   0.13877   0.14788   0.15225   0.16289
 Alpha virt. eigenvalues --    0.17647   0.18092   0.19818   0.20899   0.22027

 Mulliken charges:
               1
     1  C   -0.444061
     2  C    0.378308
     3  O   -0.465958
     4  C   -0.262525
     5  C   -0.321030
     6  C    0.240336
     7  C    0.074970
     8  O   -0.268954
     9  C   -0.215820
    10  H    0.108037
    11  H    0.128198
    12  H    0.130452
    13  H    0.276897
    14  H    0.125302
    15  H    0.101316
    16  H    0.126371
    17  H    0.118965
    18  H    0.066927
    19  H    0.102269
 Sum of Mulliken charges =   0.00000

 Dipole moment (field-independent basis, Debye):
    X=             -3.0960    Y=             -1.5049    Z=              1.0583  Tot=              3.6014
 Quadrupole moment (field-independent basis, Debye-Ang):
   XX=            -64.1539   YY=            -48.0372   ZZ=            -54.6865
   XY=              1.1627   XZ=             -3.0308   YZ=              0.5384

  Exact polarizability: 106.671   6.319  77.940  -0.478   0.850  58.107
 Approx polarizability: 160.963  24.112 118.705   4.851   2.872  88.677

                      1                      2                      3
                      A                      A                      A
 Frequencies --     73.7611               115.4839               178.6470
 Red. masses --      4.7088                 2.3522                 4.4858
 Frc consts  --      0.0151                 0.0185                 0.0843
 IR Inten    --      2.1847                 1.5840                 7.1740

                      4                      5                      6
                      A                      A                      A
 Frequencies --    193.5500               258.7654               268.3695
 Red. masses --      2.9664                 1.0729                 1.0501
 Frc consts  --      0.0655                 0.0423                 0.0446
 IR Inten    --      3.4008                15.5451                84.1461

                      7                      8                      9
                      A                      A                      A
 Frequencies --    321.5603               340.4605               399.6769
 Red. masses --      2.7734                 3.1675                 2.9690
 Frc consts  --      0.1690                 0.2163                 0.2794
 IR Inten    --      7.5849                 3.4928                 4.9220

                     10                     11                     12
                      A                      A                      A
 Frequencies --    414.0058               492.1889               530.1735
 Red. masses --      2.6763                 2.7933                 2.7626
 Frc consts  --      0.2703                 0.3987                 0.4575
 IR Inten    --      8.9242                 3.1298                 3.9924

                     13                     14                     15
                      A                      A                      A
 Frequencies --    602.7634               719.8588               757.3327
 Red. masses --      3.7877                 5.1216                 1.8315
 Frc consts  --      0.8108                 1.5637                 0.6189
 IR Inten    --      1.2246                24.7826                 1.8486

                     16                     17                     18
                      A                      A                      A
 Frequencies --    846.3333               880.7208               898.1501
 Red. masses --      3.3290                 1.5510                 2.2468
 Frc consts  --      1.4049                 0.7088                 1.0678
 IR Inten    --      2.8113                11.1985                 8.2975

                     19                     20                     21
                      A                      A                      A
 Frequencies --    943.9747               953.4316               983.7396
 Red. masses --      1.8501                 1.9013                 2.1049
 Frc consts  --      0.9713                 1.0183                 1.2001
 IR Inten    --      7.6152                 4.2439                 7.8300

                     22                     23                     24
                      A                      A                      A
 Frequencies --   1004.0381              1037.0506              1084.4552
 Red. masses --      2.0310                 1.7273                 1.7883
 Frc consts  --      1.2063                 1.0945                 1.2391
 IR Inten    --      7.3893                 3.1843                 8.7126

                     25                     26                     27
                      A                      A                      A
 Frequencies --   1117.9061              1174.3201              1177.2427
 Red. masses --      1.6959                 1.4507                 2.1035
 Frc consts  --      1.2487                 1.1787                 1.7176
 IR Inten    --     38.6105                19.7787                74.1418

                     28                     29                     30
                      A                      A                      A
 Frequencies --   1217.1820              1267.9448              1289.3698
 Red. masses --      1.6946                 1.4825                 1.6781
 Frc consts  --      1.4792                 1.4042                 1.6437
 IR Inten    --     55.8385                24.5880                 2.4868

                     31                     32                     33
                      A                      A                      A
 Frequencies --   1313.2914              1362.9184              1375.5634
 Red. masses --      1.5151                 2.3071                 1.9311
 Frc consts  --      1.5396                 2.5250                 2.1529
 IR Inten    --     33.2969                23.3235                18.1543

                     34                     35                     36
                      A                      A                      A
 Frequencies --   1401.9308              1422.0050              1480.2393
 Red. masses --      1.2669                 1.2471                 1.0746
 Frc consts  --      1.4670                 1.4857                 1.3873
 IR Inten    --      6.8623                 1.5676                 0.7737

                     37                     38                     39
                      A                      A                      A
 Frequencies --   1488.3048              1493.2708              1499.3119
 Red. masses --      1.0668                 1.0575                 1.0980
 Frc consts  --      1.3923                 1.3894                 1.4543
 IR Inten    --      7.7070                 1.8533                 2.3274

                     40                     41                     42
                      A                      A                      A
 Frequencies --   1684.7847              1785.4423              2877.7099
 Red. masses --      7.3107                10.3380                 1.0826
 Frc consts  --     12.2263                19.4169                 5.2823
 IR Inten    --     19.0472               249.4866               117.4517

                     43                     44                     45
                      A                      A                      A
 Frequencies --   3023.8233              3036.2481              3067.1597
 Red. masses --      1.0370                 1.0689                 1.0612
 Frc consts  --      5.5865                 5.8059                 5.8819
 IR Inten    --     21.3228                17.1511                17.4970

                     46                     47                     48
                      A                      A                      A
 Frequencies --   3088.3071              3092.8523              3114.8865
 Red. masses --      1.0927                 1.0980                 1.1024
 Frc consts  --      6.1403                 6.1881                 6.3019
 IR Inten    --      9.2110                22.7532                17.8095

                     49                     50                     51
                      A                      A                      A
 Frequencies --   3116.6823              3175.5768              3805.5638
 Red. masses --      1.1056                 1.0933                 1.0660
 Frc consts  --      6.3276                 6.4957                 9.0962
 IR Inten    --     21.8459                 8.9171                19.2932

 - Thermochemistry -
 -------------------
 Temperature   298.150 Kelvin.  Pressure   1.00000 Atm.
 Atom     1 has atomic number  6 and mass  12.00000

 Molecular mass:   126.06808 amu.
 Principal axes and moments of inertia in atomic units:
                           1         2         3
     Eigenvalues --   500.318811861.152671974.50069
           X            0.99984   0.00139  -0.01783
           Y           -0.00173   0.99982  -0.01905
           Z            0.01780   0.01908   0.99966
 This molecule is an asymmetric top.
 Rotational symmetry number  1.
 Warning -- assumption of classical behavior for rotation
           may cause significant error
 Rotational temperatures (Kelvin)      0.17312     0.04654     0.04387
 Rotational constants (GHZ):           3.60718     0.96969     0.91402
 Zero-point vibrational energy     414197.0 (Joules/Mol)
                                   98.99546 (Kcal/Mol)
 Warning -- explicit consideration of  13 degrees of freedom as
           vibrations may cause significant error
 Vibrational temperatures:    106.13   166.16   257.03   278.47   372.31
          (Kelvin)            386.12   462.65   489.85   575.05   595.66
                              708.15   762.80   867.24  1035.71  1089.63
                             1217.68  1267.16  1292.24  1358.17  1371.77
                             1415.38  1444.59  1492.08  1560.29  1608.42
                             1689.58  1693.79  1751.25  1824.29  1855.11
                             1889.53  1960.93  1979.13  2017.06  2045.95
                             2129.73  2141.34  2148.48  2157.17  2424.03
                             2568.85  4140.38  4350.60  4368.48  4412.95
                             4443.38  4449.92  4481.62  4484.21  4568.94
                             5475.35

 Zero-point correction=                           0.157759 (Hartree/Particle)
 Thermal correction to Energy=                    0.166912
 Thermal correction to Enthalpy=                  0.167856
 Thermal correction to Gibbs Free Energy=         0.123901
 Sum of electronic and zero-point Energies=           -423.057589
 Sum of electronic and thermal Energies=              -423.048436
 Sum of electronic and thermal Enthalpies=            -423.047492
 Sum of electronic and thermal Free Energies=         -423.091447

                     E (Thermal)             CV                S
                      KCal/Mol        Cal/Mol-Kelvin    Cal/Mol-Kelvin
 Total                  104.739             34.247             92.511
 Electronic               0.000              0.000              0.000
 Translational            0.889              2.981             40.409
 Rotational               0.889              2.981             28.999
 Vibrational            102.962             28.286             23.104
 Vibration     1          0.599              1.966              4.050
 Vibration     2          0.608              1.937              3.175
 Vibration     3          0.629              1.869              2.343
 Vibration     4          0.635              1.849              2.194
 Vibration     5          0.668              1.748              1.670
 Vibration     6          0.673              1.731              1.607
 Vibration     7          0.707              1.632              1.302
 Vibration     8          0.720              1.595              1.210
 Vibration     9          0.766              1.471              0.964
 Vibration    10          0.778              1.440              0.913
 Vibration    11          0.848              1.267              0.678
 Vibration    12          0.885              1.183              0.587
 Vibration    13          0.961              1.026              0.445

 Optimization completed.
    -- Stationary point found.
 Normal termination of Gaussian 09 at Mon Jan 27 17:03:52 2020.
