 Gaussian 09, Revision D.01,
 Gaussian 09:  ES64L-G09RevD.01 24-Apr-2013

 -----------------------------
 # b3lyp 6-31G(2df,p) opt Freq
 -----------------------------

 -----
 titel
 -----
 Symbolic Z-matrix:
 Charge =  0 Multiplicity = 1

 SCF Done:  E(RB3LYP) =  -423.124733299     A.U. after   14 cycles
 Optimization completed.
    -- Stationary point found.
 Normal termination of Gaussian 09 at Tue Jan 28 04:05:56 2020.

 ----------------------------------------------------------------------
 #N Geom=AllCheck Guess=TCheck SCRF=Check GenChk RB3LYP/6-31G(2df,p) Fr
 eq
 ----------------------------------------------------------------------

 Structure from the checkpoint file:  "/scratch/puck/g09_9bd049b1-a165-4c55-ab42-c903b24262ac/Gau-91912.chk"
 -----
 titel
 -----
 Charge =  0 Multiplicity = 1

                         Standard orientation:
 ---------------------------------------------------------------------
 Center     Atomic      Atomic             Coordinates (Angstroms)
 Number     Number       Type             X           Y           Z
 ---------------------------------------------------------------------
      1          8           0        2.736991   -1.342468    0.319352
      2          6           0        1.922714   -0.455942   -0.404803
      3          6           0        2.264574    1.053026   -0.382895
      4          8           0        0.953070    1.371308    0.126498
      5          6           0        0.655107   -0.030067    0.358374
      6          6           0       -0.706770   -0.434140   -0.169330
      7          6           0       -1.844004    0.320171    0.550505
      8          6           0       -3.165108   -0.030552    0.045653
      9          6           0       -4.242503   -0.338654   -0.389470
     10          1           0        3.458044   -1.633661   -0.246938
     11          1           0        1.704380   -0.832918   -1.412454
     12          1           0        3.059872    1.290777    0.336041
     13          1           0        2.465830    1.549310   -1.338892
     14          1           0        0.751839   -0.275554    1.426862
     15          1           0       -0.759569   -0.225878   -1.243503
     16          1           0       -0.834052   -1.515109   -0.037329
     17          1           0       -1.795477    0.112224    1.627579
     18          1           0       -1.674797    1.397470    0.437813
     19          1           0       -5.200614   -0.600430   -0.764180
 ---------------------------------------------------------------------

 SCF Done:  E(RB3LYP) =  -423.124733299     A.U. after    1 cycles

 The electronic state is 1-A.
 Alpha  occ. eigenvalues --  -19.15078 -19.13447 -10.24248 -10.23373 -10.22851
 Alpha  occ. eigenvalues --  -10.20490 -10.19010 -10.17608 -10.16460  -1.04945
 Alpha  occ. eigenvalues --   -1.02254  -0.80622  -0.74462  -0.72435  -0.68491
 Alpha  occ. eigenvalues --   -0.62601  -0.56190  -0.53528  -0.52182  -0.49275
 Alpha  occ. eigenvalues --   -0.47560  -0.45696  -0.44446  -0.42649  -0.40693
 Alpha  occ. eigenvalues --   -0.38160  -0.37026  -0.35804  -0.34427  -0.31251
 Alpha  occ. eigenvalues --   -0.27310  -0.25904  -0.25778  -0.24973
 Alpha virt. eigenvalues --    0.05713   0.06014   0.06504   0.08758   0.11396
 Alpha virt. eigenvalues --    0.12005   0.12605   0.13465   0.14403   0.14623
 Alpha virt. eigenvalues --    0.16318   0.18494   0.18866   0.20679   0.21043

 Mulliken charges:
               1
     1  O   -0.427394
     2  C    0.030489
     3  C   -0.097988
     4  O   -0.299878
     5  C    0.154454
     6  C   -0.212428
     7  C   -0.357000
     8  C    0.293675
     9  C   -0.438275
    10  H    0.289858
    11  H    0.078222
    12  H    0.101827
    13  H    0.101954
    14  H    0.083264
    15  H    0.109722
    16  H    0.115672
    17  H    0.129032
    18  H    0.152977
    19  H    0.191815
 Sum of Mulliken charges =   0.00000

 Dipole moment (field-independent basis, Debye):
    X=              1.8851    Y=             -1.1048    Z=             -1.4312  Tot=              2.6120
 Quadrupole moment (field-independent basis, Debye-Ang):
   XX=            -46.1107   YY=            -55.8281   ZZ=            -52.1902
   XY=             -0.4304   XZ=             -3.8067   YZ=              1.6746

  Exact polarizability: 107.918   6.087  64.486   4.769   0.598  63.207
 Approx polarizability: 137.111   9.834  96.381  12.379   1.617  97.965

                      1                      2                      3
                      A                      A                      A
 Frequencies --     52.8119                90.2598                99.3009
 Red. masses --      3.7849                 2.8064                 3.4744
 Frc consts  --      0.0062                 0.0135                 0.0202
 IR Inten    --      0.1084                 1.2879                 1.3508

                      4                      5                      6
                      A                      A                      A
 Frequencies --    103.4315               206.5757               248.6893
 Red. masses --      2.9419                 3.5207                 1.2344
 Frc consts  --      0.0185                 0.0885                 0.0450
 IR Inten    --      2.3334                 9.6709                89.3979

                      7                      8                      9
                      A                      A                      A
 Frequencies --    268.8973               333.0007               360.5312
 Red. masses --      4.2478                 3.0078                 3.2468
 Frc consts  --      0.1810                 0.1965                 0.2487
 IR Inten    --      2.7147                 6.4572                 7.0367

                     10                     11                     12
                      A                      A                      A
 Frequencies --    448.3685               470.7547               570.7184
 Red. masses --      3.0181                 4.1093                 3.1044
 Frc consts  --      0.3575                 0.5365                 0.5958
 IR Inten    --      7.9096                 1.6149                11.5009

                     13                     14                     15
                      A                      A                      A
 Frequencies --    614.0164               635.4002               695.9706
 Red. masses --      1.1985                 1.2211                 3.4984
 Frc consts  --      0.2662                 0.2905                 0.9984
 IR Inten    --     44.5396                43.0276                 1.1117

                     16                     17                     18
                      A                      A                      A
 Frequencies --    770.7476               872.5971               898.2442
 Red. masses --      1.3717                 2.0121                 2.5232
 Frc consts  --      0.4801                 0.9027                 1.1995
 IR Inten    --      1.3578                 5.6369                17.5678

                     19                     20                     21
                      A                      A                      A
 Frequencies --    943.5042              1006.6005              1018.5661
 Red. masses --      3.7794                 3.4877                 3.0230
 Frc consts  --      1.9823                 2.0821                 1.8479
 IR Inten    --      1.0655                31.4724                50.6567

                     22                     23                     24
                      A                      A                      A
 Frequencies --   1023.4108              1060.6735              1095.6885
 Red. masses --      3.9991                 2.4643                 2.3920
 Frc consts  --      2.4678                 1.6334                 1.6920
 IR Inten    --     34.7009                17.4991                43.3557

                     25                     26                     27
                      A                      A                      A
 Frequencies --   1110.7207              1145.2726              1172.1923
 Red. masses --      2.6193                 1.9985                 1.3076
 Frc consts  --      1.9039                 1.5444                 1.0586
 IR Inten    --     31.3469                59.2898                13.4216

                     28                     29                     30
                      A                      A                      A
 Frequencies --   1188.1497              1217.6801              1268.5414
 Red. masses --      1.1948                 1.3160                 1.2820
 Frc consts  --      0.9938                 1.1497                 1.2155
 IR Inten    --      4.0349                 1.4380                10.1092

                     31                     32                     33
                      A                      A                      A
 Frequencies --   1291.3407              1309.7048              1314.3579
 Red. masses --      1.3242                 1.3841                 1.1719
 Frc consts  --      1.3010                 1.3988                 1.1928
 IR Inten    --      7.5455                43.0016                 1.7976

                     34                     35                     36
                      A                      A                      A
 Frequencies --   1336.3090              1367.8867              1399.5979
 Red. masses --      1.3871                 1.3705                 1.4507
 Frc consts  --      1.4594                 1.5109                 1.6743
 IR Inten    --      7.7550                 2.4170                 8.7422

                     37                     38                     39
                      A                      A                      A
 Frequencies --   1451.3272              1470.8326              1485.0769
 Red. masses --      1.5798                 1.0899                 1.1013
 Frc consts  --      1.9606                 1.3891                 1.4311
 IR Inten    --      6.9926                 1.4984                 4.7700

                     40                     41                     42
                      A                      A                      A
 Frequencies --   1515.2554              2239.2247              2993.8708
 Red. masses --      1.1214                 5.9393                 1.0812
 Frc consts  --      1.5170                17.5460                 5.7098
 IR Inten    --      2.3961                 5.2227                34.8196

                     43                     44                     45
                      A                      A                      A
 Frequencies --   3012.4737              3016.8523              3022.1491
 Red. masses --      1.0593                 1.0851                 1.0621
 Frc consts  --      5.6639                 5.8189                 5.7155
 IR Inten    --     61.9215                34.7215                 7.2342

                     46                     47                     48
                      A                      A                      A
 Frequencies --   3039.5300              3061.0118              3069.8792
 Red. masses --      1.0608                 1.0956                 1.1087
 Frc consts  --      5.7744                 6.0482                 6.1560
 IR Inten    --     24.5083                 1.3415                48.4874

                     49                     50                     51
                      A                      A                      A
 Frequencies --   3089.5449              3508.2956              3826.0435
 Red. masses --      1.1046                 1.1619                 1.0664
 Frc consts  --      6.2119                 8.4257                 9.1972
 IR Inten    --     31.3688                68.7946                28.9299

 - Thermochemistry -
 -------------------
 Temperature   298.150 Kelvin.  Pressure   1.00000 Atm.
 Atom     1 has atomic number  8 and mass  15.99491

 Molecular mass:   126.06808 amu.
 Principal axes and moments of inertia in atomic units:
                           1         2         3
     Eigenvalues --   413.756552564.502042806.91218
           X            0.99998   0.00419  -0.00464
           Y           -0.00411   0.99985   0.01653
           Z            0.00471  -0.01651   0.99985
 This molecule is an asymmetric top.
 Rotational symmetry number  1.
 Rotational temperatures (Kelvin)      0.20934     0.03377     0.03086
 Rotational constants (GHZ):           4.36184     0.70374     0.64296
 Zero-point vibrational energy     411586.4 (Joules/Mol)
                                   98.37152 (Kcal/Mol)
 Warning -- explicit consideration of  13 degrees of freedom as
           vibrations may cause significant error
 Vibrational temperatures:     75.98   129.86   142.87   148.81   297.22
          (Kelvin)            357.81   386.88   479.11   518.72   645.10
                              677.31   821.14   883.43   914.20  1001.35
                             1108.93  1255.47  1292.37  1357.49  1448.27
                             1465.49  1472.46  1526.07  1576.45  1598.08
                             1647.79  1686.52  1709.48  1751.97  1825.15
                             1857.95  1884.37  1891.07  1922.65  1968.08
                             2013.71  2088.13  2116.20  2136.69  2180.11
                             3221.74  4307.51  4334.27  4340.57  4348.19
                             4373.20  4404.11  4416.87  4445.16  5047.65
                             5504.82

 Zero-point correction=                           0.156765 (Hartree/Particle)
 Thermal correction to Energy=                    0.166566
 Thermal correction to Enthalpy=                  0.167510
 Thermal correction to Gibbs Free Energy=         0.121152
 Sum of electronic and zero-point Energies=           -422.967968
 Sum of electronic and thermal Energies=              -422.958168
 Sum of electronic and thermal Enthalpies=            -422.957224
 Sum of electronic and thermal Free Energies=         -423.003581

                     E (Thermal)             CV                S
                      KCal/Mol        Cal/Mol-Kelvin    Cal/Mol-Kelvin
 Total                  104.521             35.142             97.569
 Electronic               0.000              0.000              0.000
 Translational            0.889              2.981             40.409
 Rotational               0.889              2.981             29.478
 Vibrational            102.744             29.180             27.682
 Vibration     1          0.596              1.976              4.709
 Vibration     2          0.602              1.956              3.654
 Vibration     3          0.604              1.950              3.468
 Vibration     4          0.605              1.946              3.389
 Vibration     5          0.641              1.831              2.074
 Vibration     6          0.662              1.765              1.740
 Vibration     7          0.673              1.730              1.603
 Vibration     8          0.715              1.610              1.245
 Vibration     9          0.735              1.554              1.120
 Vibration    10          0.807              1.364              0.801
 Vibration    11          0.828              1.315              0.735
 Vibration    12          0.927              1.095              0.503
 Vibration    13          0.973              1.002              0.426

 Optimization completed.
    -- Stationary point found.
 Normal termination of Gaussian 09 at Tue Jan 28 04:39:47 2020.
