 Gaussian 09, Revision D.01,
 Gaussian 09:  ES64L-G09RevD.01 24-Apr-2013

 -----------------------------
 # b3lyp 6-31G(2df,p) opt Freq
 -----------------------------

 -----
 titel
 -----
 Symbolic Z-matrix:
 Charge =  0 Multiplicity = 1

 SCF Done:  E(RB3LYP) =  -423.121964299     A.U. after   14 cycles
 Optimization completed.
    -- Stationary point found.
 Normal termination of Gaussian 09 at Mon Jan 27 15:39:47 2020.

 ----------------------------------------------------------------------
 #N Geom=AllCheck Guess=TCheck SCRF=Check GenChk RB3LYP/6-31G(2df,p) Fr
 eq
 ----------------------------------------------------------------------

 Structure from the checkpoint file:  "/scratch/puck/g09_2d7cf317-3f16-4330-b24e-969f2a68f221/Gau-55517.chk"
 -----
 titel
 -----
 Charge =  0 Multiplicity = 1

                         Standard orientation:
 ---------------------------------------------------------------------
 Center     Atomic      Atomic             Coordinates (Angstroms)
 Number     Number       Type             X           Y           Z
 ---------------------------------------------------------------------
      1          6           0        1.678964    1.770345   -0.250391
      2          6           0        1.044497    0.463788    0.261587
      3          6           0        2.063793   -0.657956    0.225884
      4          8           0        1.874634   -1.754950   -0.236370
      5          6           0       -0.226487    0.087816   -0.479767
      6          6           0       -1.219454   -0.899413    0.191201
      7          6           0       -2.355375   -0.356226   -0.705041
      8          6           0       -1.548716    0.829056   -0.127192
      9          8           0       -1.556491    0.150676    1.191230
     10          1           0        1.003268    2.614893   -0.091674
     11          1           0        2.614389    1.989437    0.274971
     12          1           0        1.901090    1.710971   -1.321404
     13          1           0        0.790044    0.600664    1.322892
     14          1           0        3.047578   -0.393212    0.680819
     15          1           0       -0.047039   -0.084321   -1.545266
     16          1           0       -1.040111   -1.908150    0.559380
     17          1           0       -2.302094   -0.546617   -1.779734
     18          1           0       -3.358933   -0.469735   -0.295034
     19          1           0       -1.776662    1.895809   -0.141518
 ---------------------------------------------------------------------

 SCF Done:  E(RB3LYP) =  -423.121964299     A.U. after    1 cycles

 The electronic state is 1-A.
 Alpha  occ. eigenvalues --  -19.14176 -19.13398 -10.27120 -10.25162 -10.24832
 Alpha  occ. eigenvalues --  -10.20140 -10.19976 -10.19478 -10.19268  -1.05713
 Alpha  occ. eigenvalues --   -1.04784  -0.81661  -0.78109  -0.68686  -0.65530
 Alpha  occ. eigenvalues --   -0.64575  -0.57324  -0.53202  -0.51916  -0.48660
 Alpha  occ. eigenvalues --   -0.45683  -0.45494  -0.42704  -0.41843  -0.40117
 Alpha  occ. eigenvalues --   -0.39911  -0.38322  -0.35682  -0.34301  -0.33237
 Alpha  occ. eigenvalues --   -0.32316  -0.31548  -0.25188  -0.24177
 Alpha virt. eigenvalues --   -0.02195   0.08853   0.09582   0.11133   0.11675
 Alpha virt. eigenvalues --    0.12589   0.13425   0.13769   0.14054   0.15058
 Alpha virt. eigenvalues --    0.16282   0.17064   0.18023   0.18830   0.21704

 Mulliken charges:
               1
     1  C   -0.417452
     2  C   -0.121314
     3  C    0.157640
     4  O   -0.254271
     5  C    0.049012
     6  C    0.042276
     7  C   -0.225035
     8  C    0.023204
     9  O   -0.319292
    10  H    0.129978
    11  H    0.122877
    12  H    0.125971
    13  H    0.121835
    14  H    0.075713
    15  H    0.078576
    16  H    0.107712
    17  H    0.099402
    18  H    0.110407
    19  H    0.092761
 Sum of Mulliken charges =   0.00000

 Dipole moment (field-independent basis, Debye):
    X=              0.0858    Y=              2.0455    Z=             -0.9722  Tot=              2.2665
 Quadrupole moment (field-independent basis, Debye-Ang):
   XX=            -52.6916   YY=            -55.2434   ZZ=            -54.6614
   XY=              4.6675   XZ=              4.6597   YZ=             -1.7167

  Exact polarizability:  86.814   2.491  77.085   3.977   1.542  63.658
 Approx polarizability: 110.076   0.812 121.087   2.090   6.588 106.042

                      1                      2                      3
                      A                      A                      A
 Frequencies --     58.9670               106.3609               134.6773
 Red. masses --      4.9948                 2.7296                 4.4571
 Frc consts  --      0.0102                 0.0182                 0.0476
 IR Inten    --      3.4734                 2.2733                 4.7421

                      4                      5                      6
                      A                      A                      A
 Frequencies --    199.3342               220.5995               253.1296
 Red. masses --      2.1101                 1.2534                 3.5302
 Frc consts  --      0.0494                 0.0359                 0.1333
 IR Inten    --      6.6357                 3.6189                 2.0408

                      7                      8                      9
                      A                      A                      A
 Frequencies --    361.6375               426.0961               498.9605
 Red. masses --      3.2451                 2.8712                 2.3909
 Frc consts  --      0.2501                 0.3071                 0.3507
 IR Inten    --      0.2056                 2.3035                 8.1466

                     10                     11                     12
                      A                      A                      A
 Frequencies --    638.0793               652.3341               756.0155
 Red. masses --      3.4757                 4.9531                 6.5523
 Frc consts  --      0.8338                 1.2418                 2.2065
 IR Inten    --      5.1513                11.1575                10.0558

                     13                     14                     15
                      A                      A                      A
 Frequencies --    785.6259               835.7882               880.7610
 Red. masses --      2.6532                 2.2000                 2.4545
 Frc consts  --      0.9648                 0.9054                 1.1218
 IR Inten    --      0.1962                 5.3028                12.3737

                     16                     17                     18
                      A                      A                      A
 Frequencies --    882.3722               914.9593               924.2411
 Red. masses --      2.4619                 2.1438                 1.2602
 Frc consts  --      1.1293                 1.0574                 0.6343
 IR Inten    --     17.7695                10.6508                 3.0788

                     19                     20                     21
                      A                      A                      A
 Frequencies --    930.7000               985.0389              1031.7100
 Red. masses --      2.1151                 3.0727                 1.5487
 Frc consts  --      1.0794                 1.7566                 0.9713
 IR Inten    --     22.5949                 3.5957                 3.9434

                     22                     23                     24
                      A                      A                      A
 Frequencies --   1033.2270              1076.0587              1127.6087
 Red. masses --      1.0622                 1.9056                 1.4744
 Frc consts  --      0.6681                 1.3001                 1.1045
 IR Inten    --      0.6736                 6.4435                 2.0699

                     25                     26                     27
                      A                      A                      A
 Frequencies --   1131.1727              1138.1825              1145.6283
 Red. masses --      2.0794                 2.1567                 2.3767
 Frc consts  --      1.5676                 1.6462                 1.8378
 IR Inten    --      0.9813                10.2327                 3.9560

                     28                     29                     30
                      A                      A                      A
 Frequencies --   1183.8679              1188.8533              1211.4505
 Red. masses --      1.7545                 1.3373                 1.4886
 Frc consts  --      1.4488                 1.1136                 1.2872
 IR Inten    --      1.8955                 1.4583                16.4677

                     31                     32                     33
                      A                      A                      A
 Frequencies --   1254.3505              1279.3882              1287.9887
 Red. masses --      1.6422                 1.5576                 1.6058
 Frc consts  --      1.5223                 1.5021                 1.5695
 IR Inten    --      1.9220                 5.1502                 4.9981

                     34                     35                     36
                      A                      A                      A
 Frequencies --   1317.3862              1405.2118              1405.6224
 Red. masses --      1.4555                 1.3960                 1.2984
 Frc consts  --      1.4883                 1.6242                 1.5114
 IR Inten    --      1.5095                 2.8038                10.9022

                     37                     38                     39
                      A                      A                      A
 Frequencies --   1434.7147              1488.6104              1497.8529
 Red. masses --      1.3045                 1.1699                 1.0516
 Frc consts  --      1.5820                 1.5274                 1.3901
 IR Inten    --      2.0419                 1.0178                 8.0171

                     40                     41                     42
                      A                      A                      A
 Frequencies --   1503.5913              1823.7495              2854.5054
 Red. masses --      1.0612                10.7048                 1.0823
 Frc consts  --      1.4136                20.9778                 5.1961
 IR Inten    --      4.0989               137.3688               143.5190

                     43                     44                     45
                      A                      A                      A
 Frequencies --   3015.2778              3034.7417              3062.9110
 Red. masses --      1.0795                 1.0357                 1.0690
 Frc consts  --      5.7825                 5.6201                 5.9086
 IR Inten    --     10.6837                21.8825                13.9531

                     46                     47                     48
                      A                      A                      A
 Frequencies --   3072.9525              3100.9623              3108.4100
 Red. masses --      1.0715                 1.1014                 1.0927
 Frc consts  --      5.9614                 6.2401                 6.2206
 IR Inten    --     43.3056                26.4032                44.9024

                     49                     50                     51
                      A                      A                      A
 Frequencies --   3115.9979              3139.4589              3153.9520
 Red. masses --      1.1009                 1.0947                 1.1094
 Frc consts  --      6.2976                 6.3572                 6.5022
 IR Inten    --     24.5881                21.6776                23.6106

 - Thermochemistry -
 -------------------
 Temperature   298.150 Kelvin.  Pressure   1.00000 Atm.
 Atom     1 has atomic number  6 and mass  12.00000

 Molecular mass:   126.06808 amu.
 Principal axes and moments of inertia in atomic units:
                           1         2         3
     Eigenvalues --   646.188001411.070891735.48567
           X            0.99829   0.05529   0.01910
           Y           -0.05500   0.99837  -0.01508
           Z           -0.01990   0.01400   0.99970
 This molecule is an asymmetric top.
 Rotational symmetry number  1.
 Warning -- assumption of classical behavior for rotation
           may cause significant error
 Rotational temperatures (Kelvin)      0.13404     0.06138     0.04991
 Rotational constants (GHZ):           2.79290     1.27899     1.03991
 Zero-point vibrational energy     413136.8 (Joules/Mol)
                                   98.74206 (Kcal/Mol)
 Warning -- explicit consideration of   9 degrees of freedom as
           vibrations may cause significant error
 Vibrational temperatures:     84.84   153.03   193.77   286.80   317.39
          (Kelvin)            364.20   520.32   613.06   717.89   918.05
                              938.56  1087.74  1130.34  1202.51  1267.22
                             1269.54  1316.42  1329.78  1339.07  1417.25
                             1484.40  1486.58  1548.21  1622.38  1627.50
                             1637.59  1648.30  1703.32  1710.49  1743.00
                             1804.73  1840.75  1853.13  1895.42  2021.78
                             2022.37  2064.23  2141.78  2155.07  2163.33
                             2623.97  4106.99  4338.31  4366.31  4406.84
                             4421.29  4461.59  4472.30  4483.22  4516.98
                             4537.83

 Zero-point correction=                           0.157355 (Hartree/Particle)
 Thermal correction to Energy=                    0.165964
 Thermal correction to Enthalpy=                  0.166908
 Thermal correction to Gibbs Free Energy=         0.123492
 Sum of electronic and zero-point Energies=           -422.964609
 Sum of electronic and thermal Energies=              -422.956000
 Sum of electronic and thermal Enthalpies=            -422.955056
 Sum of electronic and thermal Free Energies=         -422.998472

                     E (Thermal)             CV                S
                      KCal/Mol        Cal/Mol-Kelvin    Cal/Mol-Kelvin
 Total                  104.144             31.940             91.377
 Electronic               0.000              0.000              0.000
 Translational            0.889              2.981             40.409
 Rotational               0.889              2.981             28.850
 Vibrational            102.367             25.978             22.119
 Vibration     1          0.596              1.974              4.491
 Vibration     2          0.605              1.944              3.334
 Vibration     3          0.613              1.919              2.878
 Vibration     4          0.637              1.841              2.139
 Vibration     5          0.647              1.810              1.954
 Vibration     6          0.664              1.758              1.709
 Vibration     7          0.736              1.551              1.115
 Vibration     8          0.788              1.413              0.872
 Vibration     9          0.854              1.252              0.661

 Normal termination of Gaussian 09 at Mon Jan 27 16:21:26 2020.
