 Gaussian 09, Revision D.01,
 Gaussian 09:  ES64L-G09RevD.01 24-Apr-2013

 -----------------------------
 # b3lyp 6-31G(2df,p) opt Freq
 -----------------------------

 -----
 titel
 -----
 Symbolic Z-matrix:
 Charge =  0 Multiplicity = 1

 SCF Done:  E(RB3LYP) =  -423.145800528     A.U. after   14 cycles
 Optimization completed.
    -- Stationary point found.
 Normal termination of Gaussian 09 at Mon Jan 27 23:42:52 2020.

 ----------------------------------------------------------------------
 #N Geom=AllCheck Guess=TCheck SCRF=Check GenChk RB3LYP/6-31G(2df,p) Fr
 eq
 ----------------------------------------------------------------------

 Structure from the checkpoint file:  "/scratch/puck/g09_0ea6760b-68f7-4423-8598-2d1f00356f70/Gau-185868.chk"
 -----
 titel
 -----
 Charge =  0 Multiplicity = 1

                         Standard orientation:
 ---------------------------------------------------------------------
 Center     Atomic      Atomic             Coordinates (Angstroms)
 Number     Number       Type             X           Y           Z
 ---------------------------------------------------------------------
      1          6           0        2.402808   -0.966615    0.012256
      2          6           0        1.127840   -0.175581    0.015492
      3          6           0        0.584427    0.463736    1.318499
      4          6           0       -0.775240    0.830920    0.699132
      5          6           0       -1.361757   -0.566610    0.403803
      6          8           0       -2.641265   -0.440859   -0.188708
      7          6           0       -0.233048   -0.656055   -0.642308
      8          6           0       -0.283694    0.873769   -0.832019
      9          8           0        1.139019    1.001643   -0.860156
     10          1           0        3.229755   -0.356170    0.390551
     11          1           0        2.306626   -1.847699    0.654751
     12          1           0        2.655813   -1.298003   -0.998706
     13          1           0        0.495603   -0.226419    2.162860
     14          1           0        1.199452    1.319365    1.604479
     15          1           0       -1.387841    1.606090    1.154410
     16          1           0       -1.374120   -1.286256    1.234331
     17          1           0       -2.854258   -1.274302   -0.620843
     18          1           0       -0.191952   -1.380707   -1.455844
     19          1           0       -0.829122    1.436437   -1.584201
 ---------------------------------------------------------------------

 SCF Done:  E(RB3LYP) =  -423.145800528     A.U. after    1 cycles

 The electronic state is 1-A.
 Alpha  occ. eigenvalues --  -19.13992 -19.12768 -10.24325 -10.23265 -10.23117
 Alpha  occ. eigenvalues --  -10.18671 -10.18664 -10.18133 -10.18102  -1.05065
 Alpha  occ. eigenvalues --   -1.02124  -0.84556  -0.75817  -0.70867  -0.65107
 Alpha  occ. eigenvalues --   -0.63106  -0.55936  -0.52554  -0.51339  -0.48790
 Alpha  occ. eigenvalues --   -0.47435  -0.45207  -0.43748  -0.40728  -0.39544
 Alpha  occ. eigenvalues --   -0.37610  -0.36252  -0.34508  -0.33651  -0.32126
 Alpha  occ. eigenvalues --   -0.31190  -0.28195  -0.26302  -0.23810
 Alpha virt. eigenvalues --    0.06921   0.09965   0.10376   0.12389   0.12608
 Alpha virt. eigenvalues --    0.13551   0.14172   0.15505   0.15607   0.17638
 Alpha virt. eigenvalues --    0.18059   0.18783   0.18934   0.20487   0.22237

 Mulliken charges:
               1
     1  C   -0.504239
     2  C    0.408949
     3  C   -0.254288
     4  C   -0.107992
     5  C    0.122344
     6  O   -0.446097
     7  C   -0.165167
     8  C    0.117395
     9  O   -0.327327
    10  H    0.131175
    11  H    0.120799
    12  H    0.128156
    13  H    0.093808
    14  H    0.106566
    15  H    0.075021
    16  H    0.059368
    17  H    0.282514
    18  H    0.066950
    19  H    0.092066
 Sum of Mulliken charges =   0.00000

 Dipole moment (field-independent basis, Debye):
    X=             -0.0797    Y=             -2.1884    Z=              0.4835  Tot=              2.2426
 Quadrupole moment (field-independent basis, Debye-Ang):
   XX=            -55.5788   YY=            -50.7443   ZZ=            -52.3874
   XY=              0.6618   XZ=              3.4012   YZ=              2.1549

  Exact polarizability:  83.072  -1.569  69.302   2.301   1.445  70.147
 Approx polarizability: 113.506  -0.004 106.924   1.561  -0.686 106.888

                      1                      2                      3
                      A                      A                      A
 Frequencies --    177.3677               203.5651               238.9117
 Red. masses --      2.0864                 1.3125                 2.6673
 Frc consts  --      0.0387                 0.0320                 0.0897
 IR Inten    --      0.1185                 0.3372                 3.6938

                      4                      5                      6
                      A                      A                      A
 Frequencies --    287.4924               316.0479               354.1241
 Red. masses --      1.9399                 1.5479                 2.8473
 Frc consts  --      0.0945                 0.0911                 0.2104
 IR Inten    --     14.4864                80.0281                15.5131

                      7                      8                      9
                      A                      A                      A
 Frequencies --    443.4812               501.0781               542.7252
 Red. masses --      2.0784                 4.8462                 4.2908
 Frc consts  --      0.2408                 0.7169                 0.7446
 IR Inten    --      0.9580                 5.9948                 4.6552

                     10                     11                     12
                      A                      A                      A
 Frequencies --    621.4567               695.4434               774.7623
 Red. masses --      3.7205                 4.4261                 3.1996
 Frc consts  --      0.8466                 1.2612                 1.1316
 IR Inten    --      0.8343                 5.6296                10.2427

                     13                     14                     15
                      A                      A                      A
 Frequencies --    800.9428               845.0006               859.5497
 Red. masses --      2.5855                 3.5869                 2.1464
 Frc consts  --      0.9772                 1.5090                 0.9343
 IR Inten    --      8.8271                14.6350                 5.5631

                     16                     17                     18
                      A                      A                      A
 Frequencies --    876.6656               892.9669               940.2148
 Red. masses --      2.2568                 2.0368                 2.5878
 Frc consts  --      1.0219                 0.9569                 1.3478
 IR Inten    --     28.9012                 4.1340                 1.9725

                     19                     20                     21
                      A                      A                      A
 Frequencies --    962.5529               991.6480              1004.7916
 Red. masses --      1.7514                 2.0108                 2.2848
 Frc consts  --      0.9561                 1.1650                 1.3591
 IR Inten    --      0.1954                 1.1362                 3.4907

                     22                     23                     24
                      A                      A                      A
 Frequencies --   1025.5617              1033.7833              1095.5859
 Red. masses --      2.5818                 1.3761                 2.3618
 Frc consts  --      1.5999                 0.8665                 1.6702
 IR Inten    --     27.9012                16.4628                65.6394

                     25                     26                     27
                      A                      A                      A
 Frequencies --   1106.3134              1152.1745              1158.6314
 Red. masses --      1.7517                 2.4122                 1.5654
 Frc consts  --      1.2632                 1.8867                 1.2382
 IR Inten    --     25.7606                22.7371                 2.7400

                     28                     29                     30
                      A                      A                      A
 Frequencies --   1174.5948              1181.8002              1207.5871
 Red. masses --      1.8394                 1.4690                 1.4323
 Frc consts  --      1.4952                 1.2088                 1.2306
 IR Inten    --      5.6604                 8.8234                25.4339

                     31                     32                     33
                      A                      A                      A
 Frequencies --   1235.8488              1261.8616              1271.5438
 Red. masses --      1.7093                 1.6224                 1.7293
 Frc consts  --      1.5382                 1.5220                 1.6473
 IR Inten    --      6.8120                 3.4582                 0.1503

                     34                     35                     36
                      A                      A                      A
 Frequencies --   1304.8742              1327.5588              1351.6048
 Red. masses --      1.7435                 1.5209                 2.0983
 Frc consts  --      1.7490                 1.5793                 2.2584
 IR Inten    --     20.9924                54.8452                12.0187

                     37                     38                     39
                      A                      A                      A
 Frequencies --   1413.6521              1418.7665              1478.2498
 Red. masses --      1.4877                 1.5938                 1.0526
 Frc consts  --      1.7516                 1.8902                 1.3552
 IR Inten    --     12.1904                 5.6051                 2.4068

                     40                     41                     42
                      A                      A                      A
 Frequencies --   1488.6436              1491.6326              2998.6836
 Red. masses --      1.1126                 1.0499                 1.0846
 Frc consts  --      1.4527                 1.3763                 5.7461
 IR Inten    --      2.8372                 3.6274                65.4808

                     43                     44                     45
                      A                      A                      A
 Frequencies --   3036.5269              3060.0407              3106.0346
 Red. masses --      1.0354                 1.0596                 1.1008
 Frc consts  --      5.6249                 5.8456                 6.2568
 IR Inten    --     16.3751                33.9250                 9.8459

                     46                     47                     48
                      A                      A                      A
 Frequencies --   3114.4429              3116.4237              3119.0395
 Red. masses --      1.0938                 1.0981                 1.1054
 Frc consts  --      6.2508                 6.2833                 6.3358
 IR Inten    --     14.2058                33.8965                22.2359

                     49                     50                     51
                      A                      A                      A
 Frequencies --   3143.8216              3165.4565              3812.1386
 Red. masses --      1.0907                 1.0936                 1.0662
 Frc consts  --      6.3516                 6.4562                 9.1291
 IR Inten    --     23.4852                31.2430                21.5467

 - Thermochemistry -
 -------------------
 Temperature   298.150 Kelvin.  Pressure   1.00000 Atm.
 Atom     1 has atomic number  6 and mass  12.00000

 Molecular mass:   126.06808 amu.
 Principal axes and moments of inertia in atomic units:
                           1         2         3
     Eigenvalues --   527.203701285.329971310.38766
           X            0.99959  -0.02803   0.00600
           Y            0.02443   0.94274   0.33262
           Z           -0.01498  -0.33234   0.94304
 This molecule is an asymmetric top.
 Rotational symmetry number  1.
 Warning -- assumption of classical behavior for rotation
           may cause significant error
 Rotational temperatures (Kelvin)      0.16429     0.06739     0.06610
 Rotational constants (GHZ):           3.42323     1.40411     1.37726
 Zero-point vibrational energy     419791.5 (Joules/Mol)
                                  100.33259 (Kcal/Mol)
 Warning -- explicit consideration of   9 degrees of freedom as
           vibrations may cause significant error
 Vibrational temperatures:    255.19   292.88   343.74   413.64   454.72
          (Kelvin)            509.50   638.07   720.94   780.86   894.14
                             1000.59  1114.71  1152.38  1215.77  1236.70
                             1261.32  1284.78  1352.76  1384.90  1426.76
                             1445.67  1475.55  1487.38  1576.30  1591.74
                             1657.72  1667.01  1689.98  1700.34  1737.45
                             1778.11  1815.54  1829.47  1877.42  1910.06
                             1944.66  2033.93  2041.29  2126.87  2141.82
                             2146.12  4314.43  4368.88  4402.71  4468.89
                             4480.98  4483.83  4487.60  4523.25  4554.38
                             5484.81

 Zero-point correction=                           0.159890 (Hartree/Particle)
 Thermal correction to Energy=                    0.167399
 Thermal correction to Enthalpy=                  0.168344
 Thermal correction to Gibbs Free Energy=         0.128469
 Sum of electronic and zero-point Energies=           -422.985910
 Sum of electronic and thermal Energies=              -422.978401
 Sum of electronic and thermal Enthalpies=            -422.977457
 Sum of electronic and thermal Free Energies=         -423.017332

                     E (Thermal)             CV                S
                      KCal/Mol        Cal/Mol-Kelvin    Cal/Mol-Kelvin
 Total                  105.045             30.822             83.924
 Electronic               0.000              0.000              0.000
 Translational            0.889              2.981             40.409
 Rotational               0.889              2.981             28.276
 Vibrational            103.267             24.860             15.240
 Vibration     1          0.628              1.870              2.356
 Vibration     2          0.639              1.835              2.101
 Vibration     3          0.657              1.781              1.811
 Vibration     4          0.685              1.697              1.489
 Vibration     5          0.703              1.643              1.330
 Vibration     6          0.730              1.567              1.148
 Vibration     7          0.803              1.375              0.816
 Vibration     8          0.856              1.248              0.655
 Vibration     9          0.898              1.156              0.559

 Optimization completed.
    -- Stationary point found.
 Normal termination of Gaussian 09 at Tue Jan 28 00:29:18 2020.
