 Gaussian 09, Revision D.01,
 Gaussian 09:  ES64L-G09RevD.01 24-Apr-2013

 -----------------------------
 # b3lyp 6-31G(2df,p) opt Freq
 -----------------------------

 -----
 titel
 -----
 Symbolic Z-matrix:
 Charge =  0 Multiplicity = 1

 SCF Done:  E(RB3LYP) =  -423.120043454     A.U. after   14 cycles
 Optimization completed.
    -- Stationary point found.
 Normal termination of Gaussian 09 at Mon Jan 27 12:04:18 2020.

 ----------------------------------------------------------------------
 #N Geom=AllCheck Guess=TCheck SCRF=Check GenChk RB3LYP/6-31G(2df,p) Fr
 eq
 ----------------------------------------------------------------------

 Structure from the checkpoint file:  "/scratch/puck/g09_69d23741-9e41-4c8c-a4de-ab6a78525b0d/Gau-71274.chk"
 -----
 titel
 -----
 Charge =  0 Multiplicity = 1

                         Standard orientation:
 ---------------------------------------------------------------------
 Center     Atomic      Atomic             Coordinates (Angstroms)
 Number     Number       Type             X           Y           Z
 ---------------------------------------------------------------------
      1          6           0        2.257851   -0.986279    0.531281
      2          8           0        2.451934    0.025335   -0.461670
      3          6           0        1.183948   -0.624694   -0.406589
      4          6           0       -0.000002    0.206387    0.000030
      5          6           0       -0.240878    1.512658   -0.715309
      6          6           0        0.240924    1.512696    0.715266
      7          6           0       -1.183997   -0.624608    0.406698
      8          6           0       -2.257798   -0.986369   -0.531224
      9          8           0       -2.451997    0.025424    0.461517
     10          1           0        2.828535   -1.901090    0.380451
     11          1           0        2.210809   -0.623359    1.556582
     12          1           0        1.001609   -1.301495   -1.244289
     13          1           0        0.468658    1.796979   -1.484041
     14          1           0       -1.271203    1.796522   -0.894726
     15          1           0        1.271264    1.796541    0.894646
     16          1           0       -0.468560    1.797117    1.484009
     17          1           0       -1.001763   -1.301246    1.244552
     18          1           0       -2.210645   -0.623634   -1.556587
     19          1           0       -2.828495   -1.901155   -0.380295
 ---------------------------------------------------------------------

 SCF Done:  E(RB3LYP) =  -423.120043454     A.U. after    1 cycles

 The electronic state is 1-A.
 Alpha  occ. eigenvalues --  -19.15694 -19.15694 -10.24405 -10.24405 -10.23688
 Alpha  occ. eigenvalues --  -10.23688 -10.20400 -10.18403 -10.18378  -1.07744
 Alpha  occ. eigenvalues --   -1.07551  -0.86398  -0.71513  -0.67065  -0.65235
 Alpha  occ. eigenvalues --   -0.63475  -0.59971  -0.55156  -0.52870  -0.49551
 Alpha  occ. eigenvalues --   -0.49214  -0.48717  -0.43681  -0.41984  -0.39440
 Alpha  occ. eigenvalues --   -0.39184  -0.36437  -0.36174  -0.34340  -0.32584
 Alpha  occ. eigenvalues --   -0.29120  -0.27709  -0.27630  -0.26343
 Alpha virt. eigenvalues --    0.08122   0.09218   0.09420   0.10626   0.11184
 Alpha virt. eigenvalues --    0.11541   0.13502   0.14421   0.14625   0.15240
 Alpha virt. eigenvalues --    0.17246   0.18357   0.18481   0.20618   0.20768

 Mulliken charges:
               1
     1  C   -0.178810
     2  O   -0.235298
     3  C   -0.004897
     4  C    0.304946
     5  C   -0.313939
     6  C   -0.313949
     7  C   -0.004905
     8  C   -0.178808
     9  O   -0.235296
    10  H    0.117895
    11  H    0.117608
    12  H    0.092805
    13  H    0.122629
    14  H    0.129542
    15  H    0.129538
    16  H    0.122626
    17  H    0.092808
    18  H    0.117608
    19  H    0.117895
 Sum of Mulliken charges =   0.00000

 Dipole moment (field-independent basis, Debye):
    X=              0.0001    Y=             -2.0046    Z=              0.0003  Tot=              2.0046
 Quadrupole moment (field-independent basis, Debye-Ang):
   XX=            -59.3185   YY=            -50.7564   ZZ=            -51.4007
   XY=              0.0005   XZ=              5.0103   YZ=              0.0001

  Exact polarizability:  82.217   0.001  73.700   7.082   0.000  68.706
 Approx polarizability: 112.050   0.000 107.748   8.400   0.000 107.574

                      1                      2                      3
                      A                      A                      A
 Frequencies --     71.3026                78.0803               176.5813
 Red. masses --      4.4025                 3.2153                 3.8006
 Frc consts  --      0.0132                 0.0115                 0.0698
 IR Inten    --      4.8008                 0.0558                 3.8654

                      4                      5                      6
                      A                      A                      A
 Frequencies --    214.1485               250.6284               256.0592
 Red. masses --      2.8620                 3.7964                 2.2592
 Frc consts  --      0.0773                 0.1405                 0.0873
 IR Inten    --      0.1067                 4.7457                 0.8539

                      7                      8                      9
                      A                      A                      A
 Frequencies --    337.4609               457.6289               491.3440
 Red. masses --      4.0736                 3.7323                 3.6207
 Frc consts  --      0.2733                 0.4605                 0.5150
 IR Inten    --      0.4829                 0.0909                19.2864

                     10                     11                     12
                      A                      A                      A
 Frequencies --    591.7342               665.8926               803.1158
 Red. masses --      2.6090                 2.7961                 1.1533
 Frc consts  --      0.5382                 0.7305                 0.4383
 IR Inten    --      5.2110                 3.2416                 2.1945

                     13                     14                     15
                      A                      A                      A
 Frequencies --    812.9970               871.3005               884.5774
 Red. masses --      2.0495                 3.0390                 7.3596
 Frc consts  --      0.7981                 1.3593                 3.3929
 IR Inten    --      7.0759                37.8833                 4.8757

                     16                     17                     18
                      A                      A                      A
 Frequencies --    895.3227               918.3285               928.9982
 Red. masses --      2.7606                 3.4895                 1.2788
 Frc consts  --      1.3038                 1.7338                 0.6502
 IR Inten    --     13.2864                 7.3208                 2.8522

                     19                     20                     21
                      A                      A                      A
 Frequencies --    951.6261               999.8139              1057.9614
 Red. masses --      2.7978                 2.1435                 1.6189
 Frc consts  --      1.4928                 1.2624                 1.0676
 IR Inten    --     10.6029                25.0711                 6.7905

                     22                     23                     24
                      A                      A                      A
 Frequencies --   1068.5447              1069.2972              1099.7336
 Red. masses --      1.4544                 1.9239                 1.1980
 Frc consts  --      0.9784                 1.2961                 0.8537
 IR Inten    --      3.0257                10.2897                 4.0901

                     25                     26                     27
                      A                      A                      A
 Frequencies --   1101.5036              1104.5265              1153.0549
 Red. masses --      1.3764                 1.2311                 1.3977
 Frc consts  --      0.9839                 0.8849                 1.0949
 IR Inten    --      1.4369                 3.8170                 0.3520

                     28                     29                     30
                      A                      A                      A
 Frequencies --   1155.6294              1172.0732              1177.5397
 Red. masses --      1.3867                 1.3570                 1.3566
 Frc consts  --      1.0911                 1.0983                 1.1083
 IR Inten    --      0.0062                 2.6135                 0.3087

                     31                     32                     33
                      A                      A                      A
 Frequencies --   1204.3448              1264.7166              1275.8178
 Red. masses --      1.2616                 2.5769                 1.9893
 Frc consts  --      1.0782                 2.4285                 1.9078
 IR Inten    --      0.5007                10.8229                16.6747

                     34                     35                     36
                      A                      A                      A
 Frequencies --   1293.9560              1353.4154              1423.0772
 Red. masses --      1.4736                 1.8712                 2.0494
 Frc consts  --      1.4536                 2.0195                 2.4453
 IR Inten    --      1.6507                 0.7382                 5.2561

                     37                     38                     39
                      A                      A                      A
 Frequencies --   1440.4988              1446.6536              1490.5569
 Red. masses --      1.9419                 1.1097                 1.4371
 Frc consts  --      2.3742                 1.3683                 1.8812
 IR Inten    --     21.0705                 3.8402                 2.5060

                     40                     41                     42
                      A                      A                      A
 Frequencies --   1522.1931              1524.3320              3082.2392
 Red. masses --      1.3500                 1.3286                 1.0814
 Frc consts  --      1.8430                 1.8188                 6.0529
 IR Inten    --      6.1880                 0.0026                40.9802

                     43                     44                     45
                      A                      A                      A
 Frequencies --   3082.8097              3088.2752              3089.6732
 Red. masses --      1.0742                 1.0549                 1.0623
 Frc consts  --      6.0147                 5.9281                 5.9748
 IR Inten    --      8.8750                15.7700                41.2668

                     46                     47                     48
                      A                      A                      A
 Frequencies --   3141.0274              3142.0368              3177.6352
 Red. masses --      1.0495                 1.0570                 1.1199
 Frc consts  --      6.1006                 6.1481                 6.6626
 IR Inten    --     11.3741                 5.2606                24.1308

                     49                     50                     51
                      A                      A                      A
 Frequencies --   3177.6666              3228.5087              3240.7347
 Red. masses --      1.1199                 1.1186                 1.1167
 Frc consts  --      6.6626                 6.8693                 6.9097
 IR Inten    --     22.6259                 0.0008                 5.1779

 - Thermochemistry -
 -------------------
 Temperature   298.150 Kelvin.  Pressure   1.00000 Atm.
 Atom     1 has atomic number  6 and mass  12.00000

 Molecular mass:   126.06808 amu.
 Principal axes and moments of inertia in atomic units:
                           1         2         3
     Eigenvalues --   559.524941519.831101764.91289
           X            0.99976   0.00000   0.02180
           Y            0.00000   1.00000   0.00000
           Z           -0.02180   0.00000   0.99976
 This molecule is an asymmetric top.
 Rotational symmetry number  1.
 Warning -- assumption of classical behavior for rotation
           may cause significant error
 Rotational temperatures (Kelvin)      0.15480     0.05699     0.04908
 Rotational constants (GHZ):           3.22549     1.18746     1.02257
 Zero-point vibrational energy     415744.0 (Joules/Mol)
                                   99.36521 (Kcal/Mol)
 Warning -- explicit consideration of  10 degrees of freedom as
           vibrations may cause significant error
 Vibrational temperatures:    102.59   112.34   254.06   308.11   360.60
          (Kelvin)            368.41   485.53   658.43   706.93   851.37
                              958.07  1155.50  1169.72  1253.61  1272.71
                             1288.17  1321.27  1336.62  1369.18  1438.51
                             1522.17  1537.40  1538.48  1582.27  1584.82
                             1589.17  1658.99  1662.69  1686.35  1694.21
                             1732.78  1819.64  1835.61  1861.71  1947.26
                             2047.49  2072.55  2081.41  2144.58  2190.09
                             2193.17  4434.65  4435.47  4443.33  4445.35
                             4519.23  4520.68  4571.90  4571.95  4645.10
                             4662.69

 Zero-point correction=                           0.158349 (Hartree/Particle)
 Thermal correction to Energy=                    0.166843
 Thermal correction to Enthalpy=                  0.167787
 Thermal correction to Gibbs Free Energy=         0.124705
 Sum of electronic and zero-point Energies=           -422.961695
 Sum of electronic and thermal Energies=              -422.953201
 Sum of electronic and thermal Enthalpies=            -422.952256
 Sum of electronic and thermal Free Energies=         -422.995339

                     E (Thermal)             CV                S
                      KCal/Mol        Cal/Mol-Kelvin    Cal/Mol-Kelvin
 Total                  104.695             31.834             90.674
 Electronic               0.000              0.000              0.000
 Translational            0.889              2.981             40.409
 Rotational               0.889              2.981             28.797
 Vibrational            102.918             25.873             21.468
 Vibration     1          0.598              1.968              4.117
 Vibration     2          0.599              1.964              3.939
 Vibration     3          0.628              1.871              2.364
 Vibration     4          0.644              1.819              2.008
 Vibration     5          0.663              1.762              1.726
 Vibration     6          0.666              1.753              1.688
 Vibration     7          0.718              1.601              1.224
 Vibration     8          0.816              1.344              0.773
 Vibration     9          0.847              1.269              0.680
 Vibration    10          0.949              1.049              0.464

 Optimization completed.
    -- Stationary point found.
 Normal termination of Gaussian 09 at Mon Jan 27 12:46:03 2020.
