 Gaussian 09, Revision D.01,
 Gaussian 09:  ES64L-G09RevD.01 24-Apr-2013

 -----------------------------
 # b3lyp 6-31G(2df,p) opt Freq
 -----------------------------

 -----
 titel
 -----
 Symbolic Z-matrix:
 Charge =  0 Multiplicity = 1

 SCF Done:  E(RB3LYP) =  -423.136446730     A.U. after   13 cycles
 Optimization completed.
    -- Stationary point found.
 Normal termination of Gaussian 09 at Mon Jan 27 23:47:35 2020.

 ----------------------------------------------------------------------
 #N Geom=AllCheck Guess=TCheck SCRF=Check GenChk RB3LYP/6-31G(2df,p) Fr
 eq
 ----------------------------------------------------------------------

 Structure from the checkpoint file:  "/scratch/puck/g09_8706a0d0-9ca0-4959-8ad5-4371fc5ac4ec/Gau-78017.chk"
 -----
 titel
 -----
 Charge =  0 Multiplicity = 1

                         Standard orientation:
 ---------------------------------------------------------------------
 Center     Atomic      Atomic             Coordinates (Angstroms)
 Number     Number       Type             X           Y           Z
 ---------------------------------------------------------------------
      1          6           0        2.553303    0.024368    0.053715
      2          6           0        1.201557   -0.680161   -0.009893
      3          6           0        0.219021   -0.186983    1.094994
      4          6           0       -1.092541   -1.017001    1.146455
      5          6           0       -1.576715   -0.328550   -0.151187
      6          8           0       -0.907608   -0.852947   -1.318651
      7          6           0        0.275212   -0.058537   -1.089294
      8          6           0       -0.455368    0.755675    0.034626
      9          8           0       -0.562673    2.114753    0.212292
     10          1           0        3.157302   -0.199897   -0.832245
     11          1           0        2.428747    1.112361    0.107425
     12          1           0        3.118022   -0.287541    0.938384
     13          1           0        1.323454   -1.764761   -0.090000
     14          1           0        0.647796    0.168385    2.032056
     15          1           0       -1.015355   -2.106999    1.123968
     16          1           0       -1.714074   -0.710902    1.994435
     17          1           0       -2.643712   -0.170213   -0.322103
     18          1           0        0.712801    0.317827   -2.018073
     19          1           0       -0.999553    2.494431   -0.559478
 ---------------------------------------------------------------------

 SCF Done:  E(RB3LYP) =  -423.136446730     A.U. after    1 cycles

 The electronic state is 1-A.
 Alpha  occ. eigenvalues --  -19.15968 -19.13166 -10.23890 -10.22676 -10.22418
 Alpha  occ. eigenvalues --  -10.18577 -10.18559 -10.18111 -10.17654  -1.05436
 Alpha  occ. eigenvalues --   -1.03009  -0.84568  -0.76902  -0.69574  -0.64662
 Alpha  occ. eigenvalues --   -0.60937  -0.58832  -0.54877  -0.51429  -0.48579
 Alpha  occ. eigenvalues --   -0.46744  -0.42375  -0.41802  -0.40298  -0.39686
 Alpha  occ. eigenvalues --   -0.38981  -0.37344  -0.36327  -0.35396  -0.32035
 Alpha  occ. eigenvalues --   -0.30763  -0.26750  -0.24344  -0.23955
 Alpha virt. eigenvalues --    0.06353   0.08271   0.09849   0.10975   0.12791
 Alpha virt. eigenvalues --    0.14185   0.15062   0.15730   0.15913   0.16537
 Alpha virt. eigenvalues --    0.17371   0.19080   0.20383   0.21466   0.21717

 Mulliken charges:
               1
     1  C   -0.414084
     2  C   -0.002319
     3  C   -0.086032
     4  C   -0.254516
     5  C    0.016651
     6  O   -0.304912
     7  C    0.017859
     8  C    0.355996
     9  O   -0.475520
    10  H    0.114614
    11  H    0.126323
    12  H    0.117467
    13  H    0.073060
    14  H    0.072003
    15  H    0.102732
    16  H    0.104388
    17  H    0.075594
    18  H    0.071524
    19  H    0.289170
 Sum of Mulliken charges =   0.00000

 Dipole moment (field-independent basis, Debye):
    X=              0.0310    Y=              0.8056    Z=              0.1412  Tot=              0.8184
 Quadrupole moment (field-independent basis, Debye-Ang):
   XX=            -50.6387   YY=            -53.9061   ZZ=            -53.9648
   XY=             -2.8118   XZ=             -1.0123   YZ=             -5.5036

  Exact polarizability:  82.970   0.206  69.493  -2.176  -3.349  70.808
 Approx polarizability: 110.714   0.128 105.614  -1.118  -0.796 108.374

                      1                      2                      3
                      A                      A                      A
 Frequencies --    139.9763               241.0934               246.9254
 Red. masses --      3.2697                 1.1011                 2.3625
 Frc consts  --      0.0377                 0.0377                 0.0849
 IR Inten    --      0.9506                 1.0987                11.9938

                      4                      5                      6
                      A                      A                      A
 Frequencies --    274.2102               295.7522               353.9234
 Red. masses --      2.2310                 1.9770                 1.7663
 Frc consts  --      0.0988                 0.1019                 0.1304
 IR Inten    --      0.1135                29.7894                47.5489

                      7                      8                      9
                      A                      A                      A
 Frequencies --    384.5608               410.9347               459.9404
 Red. masses --      3.5415                 2.4684                 4.1489
 Frc consts  --      0.3086                 0.2456                 0.5171
 IR Inten    --      2.6898                24.1640                 2.8478

                     10                     11                     12
                      A                      A                      A
 Frequencies --    608.8137               697.4258               706.7624
 Red. masses --      3.5489                 4.0982                 3.3943
 Frc consts  --      0.7750                 1.1745                 0.9990
 IR Inten    --      5.8995                 5.0525                 3.4022

                     13                     14                     15
                      A                      A                      A
 Frequencies --    794.7862               848.9350               874.2820
 Red. masses --      2.3494                 2.3975                 2.2251
 Frc consts  --      0.8744                 1.0180                 1.0021
 IR Inten    --      1.1919                 5.1584                 5.0986

                     16                     17                     18
                      A                      A                      A
 Frequencies --    928.0432               954.1167               963.5077
 Red. masses --      1.9111                 2.5376                 2.2072
 Frc consts  --      0.9698                 1.3610                 1.2073
 IR Inten    --      4.8516                23.2514                12.3620

                     19                     20                     21
                      A                      A                      A
 Frequencies --    994.2831              1004.7983              1017.5196
 Red. masses --      1.8704                 2.7266                 2.3252
 Frc consts  --      1.0895                 1.6219                 1.4184
 IR Inten    --     27.5629                38.0454                19.6577

                     22                     23                     24
                      A                      A                      A
 Frequencies --   1038.6434              1059.8249              1085.3718
 Red. masses --      2.4292                 2.9526                 1.5948
 Frc consts  --      1.5440                 1.9540                 1.1069
 IR Inten    --      3.0919                18.4889                 4.1051

                     25                     26                     27
                      A                      A                      A
 Frequencies --   1112.1357              1134.8123              1148.1588
 Red. masses --      1.5424                 2.2839                 1.8101
 Frc consts  --      1.1240                 1.7329                 1.4059
 IR Inten    --      7.2052                 1.9797                 0.9524

                     28                     29                     30
                      A                      A                      A
 Frequencies --   1179.8450              1190.8238              1246.1280
 Red. masses --      1.7672                 2.4779                 1.4486
 Frc consts  --      1.4494                 2.0703                 1.3253
 IR Inten    --      3.7615                22.1764                 3.8499

                     31                     32                     33
                      A                      A                      A
 Frequencies --   1259.8052              1270.5305              1285.4935
 Red. masses --      1.5276                 1.4187                 1.2973
 Frc consts  --      1.4285                 1.3493                 1.2631
 IR Inten    --      3.3470                37.5320                 4.0356

                     34                     35                     36
                      A                      A                      A
 Frequencies --   1320.5954              1331.8723              1353.7113
 Red. masses --      1.4502                 1.8458                 1.6828
 Frc consts  --      1.4901                 1.9291                 1.8170
 IR Inten    --     30.0724                94.6129                 3.2346

                     37                     38                     39
                      A                      A                      A
 Frequencies --   1404.7064              1411.6079              1469.4871
 Red. masses --      2.7318                 1.2335                 1.1359
 Frc consts  --      3.1759                 1.4481                 1.4451
 IR Inten    --     35.2830                 2.1286                 3.9895

                     40                     41                     42
                      A                      A                      A
 Frequencies --   1496.6444              1500.1602              3025.3472
 Red. masses --      1.0446                 1.0500                 1.0350
 Frc consts  --      1.3787                 1.3922                 5.5814
 IR Inten    --      4.6630                 2.2976                24.2600

                     43                     44                     45
                      A                      A                      A
 Frequencies --   3047.1541              3057.6412              3071.4675
 Red. masses --      1.0591                 1.0852                 1.0896
 Frc consts  --      5.7940                 5.9780                 6.0565
 IR Inten    --     26.4907                22.6854                53.5772

                     46                     47                     48
                      A                      A                      A
 Frequencies --   3087.7503              3093.9211              3098.6826
 Red. masses --      1.0909                 1.1003                 1.1017
 Frc consts  --      6.1281                 6.2053                 6.2323
 IR Inten    --     61.2288                31.1166                22.6955

                     49                     50                     51
                      A                      A                      A
 Frequencies --   3107.3263              3111.4220              3785.3220
 Red. masses --      1.1012                 1.0958                 1.0656
 Frc consts  --      6.2646                 6.2501                 8.9962
 IR Inten    --     17.8209                34.8363                26.2449

 - Thermochemistry -
 -------------------
 Temperature   298.150 Kelvin.  Pressure   1.00000 Atm.
 Atom     1 has atomic number  6 and mass  12.00000

 Molecular mass:   126.06808 amu.
 Principal axes and moments of inertia in atomic units:
                           1         2         3
     Eigenvalues --   765.569531036.794831173.89074
           X            0.99971   0.00080  -0.02402
           Y           -0.00410   0.99048  -0.13759
           Z            0.02368   0.13765   0.99020
 This molecule is an asymmetric top.
 Rotational symmetry number  1.
 Warning -- assumption of classical behavior for rotation
           may cause significant error
 Rotational temperatures (Kelvin)      0.11314     0.08354     0.07378
 Rotational constants (GHZ):           2.35738     1.74069     1.53740
 Zero-point vibrational energy     418615.1 (Joules/Mol)
                                  100.05141 (Kcal/Mol)
 Warning -- explicit consideration of  10 degrees of freedom as
           vibrations may cause significant error
 Vibrational temperatures:    201.39   346.88   355.27   394.53   425.52
          (Kelvin)            509.22   553.30   591.24   661.75   875.95
                             1003.44  1016.87  1143.52  1221.43  1257.90
                             1335.25  1372.76  1386.27  1430.55  1445.68
                             1463.98  1494.37  1524.85  1561.61  1600.11
                             1632.74  1651.94  1697.53  1713.33  1792.90
                             1812.58  1828.01  1849.54  1900.04  1916.26
                             1947.69  2021.06  2030.99  2114.26  2153.33
                             2158.39  4352.79  4384.17  4399.26  4419.15
                             4442.58  4451.46  4458.31  4470.74  4476.64
                             5446.23

 Zero-point correction=                           0.159442 (Hartree/Particle)
 Thermal correction to Energy=                    0.167167
 Thermal correction to Enthalpy=                  0.168111
 Thermal correction to Gibbs Free Energy=         0.127775
 Sum of electronic and zero-point Energies=           -422.977005
 Sum of electronic and thermal Energies=              -422.969280
 Sum of electronic and thermal Enthalpies=            -422.968336
 Sum of electronic and thermal Free Energies=         -423.008672

                     E (Thermal)             CV                S
                      KCal/Mol        Cal/Mol-Kelvin    Cal/Mol-Kelvin
 Total                  104.899             31.175             84.894
 Electronic               0.000              0.000              0.000
 Translational            0.889              2.981             40.409
 Rotational               0.889              2.981             28.323
 Vibrational            103.121             25.213             16.162
 Vibration     1          0.615              1.913              2.804
 Vibration     2          0.658              1.777              1.795
 Vibration     3          0.661              1.768              1.752
 Vibration     4          0.677              1.721              1.570
 Vibration     5          0.690              1.682              1.441
 Vibration     6          0.730              1.567              1.149
 Vibration     7          0.753              1.503              1.021
 Vibration     8          0.775              1.446              0.923
 Vibration     9          0.818              1.339              0.766
 Vibration    10          0.968              1.013              0.435

 Normal termination of Gaussian 09 at Tue Jan 28 00:34:10 2020.
