 Gaussian 09, Revision D.01,
 Gaussian 09:  ES64L-G09RevD.01 24-Apr-2013

 -----------------------------
 # b3lyp 6-31G(2df,p) opt Freq
 -----------------------------

 -----
 titel
 -----
 Symbolic Z-matrix:
 Charge =  0 Multiplicity = 1

 SCF Done:  E(RB3LYP) =  -423.090692526     A.U. after   13 cycles
 Optimization completed.
    -- Stationary point found.
 Normal termination of Gaussian 09 at Tue Jan 28 09:18:08 2020.

 ----------------------------------------------------------------------
 #N Geom=AllCheck Guess=TCheck SCRF=Check GenChk RB3LYP/6-31G(2df,p) Fr
 eq
 ----------------------------------------------------------------------

 Structure from the checkpoint file:  "/scratch/puck/g09_d23d6d4a-a06e-4600-ac9a-835dd08b8dc6/Gau-84015.chk"
 -----
 titel
 -----
 Charge =  0 Multiplicity = 1

                         Standard orientation:
 ---------------------------------------------------------------------
 Center     Atomic      Atomic             Coordinates (Angstroms)
 Number     Number       Type             X           Y           Z
 ---------------------------------------------------------------------
      1          6           0       -2.884424   -0.523675   -0.014878
      2          6           0       -1.455139   -1.059881    0.124017
      3          6           0       -0.416527    0.018967    0.111785
      4          6           0       -0.223052    1.280039    1.005440
      5          6           0        0.744982    1.396094   -0.196169
      6          8           0       -0.349579    0.928707   -1.078716
      7          6           0        1.120628   -0.072770    0.025355
      8          6           0        2.190192   -0.846682    0.636896
      9          8           0        1.883060   -0.911366   -0.781541
     10          1           0       -3.149345    0.123930    0.826991
     11          1           0       -2.987249    0.060624   -0.932983
     12          1           0       -3.605191   -1.345495   -0.046743
     13          1           0       -1.346149   -1.627712    1.056810
     14          1           0       -1.226880   -1.752770   -0.694536
     15          1           0       -1.053114    1.985171    0.967944
     16          1           0        0.193686    1.150935    2.008182
     17          1           0        1.342597    2.240786   -0.534772
     18          1           0        3.140874   -0.374721    0.879139
     19          1           0        1.962954   -1.752032    1.197350
 ---------------------------------------------------------------------

 SCF Done:  E(RB3LYP) =  -423.090692526     A.U. after    1 cycles

 The electronic state is 1-A.
 Alpha  occ. eigenvalues --  -19.15718 -19.13167 -10.25048 -10.24908 -10.24788
 Alpha  occ. eigenvalues --  -10.23935 -10.19647 -10.19165 -10.17794  -1.08601
 Alpha  occ. eigenvalues --   -1.04658  -0.79328  -0.77517  -0.67059  -0.66723
 Alpha  occ. eigenvalues --   -0.65041  -0.60268  -0.53589  -0.49201  -0.49117
 Alpha  occ. eigenvalues --   -0.47563  -0.45665  -0.43562  -0.40299  -0.39248
 Alpha  occ. eigenvalues --   -0.38480  -0.37468  -0.35560  -0.34586  -0.33486
 Alpha  occ. eigenvalues --   -0.31861  -0.30098  -0.26286  -0.24013
 Alpha virt. eigenvalues --    0.07978   0.09338   0.09620   0.10950   0.12186
 Alpha virt. eigenvalues --    0.12791   0.13601   0.14789   0.15156   0.15938
 Alpha virt. eigenvalues --    0.16845   0.17056   0.17829   0.18299   0.19770

 Mulliken charges:
               1
     1  C   -0.383417
     2  C   -0.320092
     3  C    0.298787
     4  C   -0.268905
     5  C   -0.070289
     6  O   -0.350296
     7  C    0.523437
     8  C   -0.309529
     9  O   -0.285037
    10  H    0.117413
    11  H    0.142802
    12  H    0.114613
    13  H    0.106277
    14  H    0.126122
    15  H    0.113858
    16  H    0.096851
    17  H    0.103117
    18  H    0.122941
    19  H    0.121350
 Sum of Mulliken charges =   0.00000

 Dipole moment (field-independent basis, Debye):
    X=             -0.0156    Y=              0.0528    Z=              2.9900  Tot=              2.9905
 Quadrupole moment (field-independent basis, Debye-Ang):
   XX=            -51.1643   YY=            -51.5024   ZZ=            -55.6505
   XY=              3.0858   XZ=              2.6016   YZ=             -0.7009

  Exact polarizability:  87.063  -0.561  75.178   2.592  -1.623  65.862
 Approx polarizability: 112.234  -2.264 109.366   4.278  -2.842 110.458

                      1                      2                      3
                      A                      A                      A
 Frequencies --     73.0392               132.1404               197.6088
 Red. masses --      2.2608                 3.5588                 1.3598
 Frc consts  --      0.0071                 0.0366                 0.0313
 IR Inten    --      1.0160                 0.1710                 3.2502

                      4                      5                      6
                      A                      A                      A
 Frequencies --    207.2501               254.2619               268.9794
 Red. masses --      3.9334                 2.6083                 2.2786
 Frc consts  --      0.0995                 0.0993                 0.0971
 IR Inten    --      0.1477                 0.1189                 2.9474

                      7                      8                      9
                      A                      A                      A
 Frequencies --    355.6165               469.2835               491.0635
 Red. masses --      2.6400                 3.5478                 3.0360
 Frc consts  --      0.1967                 0.4603                 0.4313
 IR Inten    --      1.5260                 1.9228                 1.2233

                     10                     11                     12
                      A                      A                      A
 Frequencies --    604.7604               626.2900               704.6527
 Red. masses --      3.1112                 3.5947                 4.0211
 Frc consts  --      0.6704                 0.8307                 1.1764
 IR Inten    --      4.4505                 5.4284                27.0595

                     13                     14                     15
                      A                      A                      A
 Frequencies --    726.4311               774.2671               800.9215
 Red. masses --      2.7265                 2.0853                 1.7614
 Frc consts  --      0.8477                 0.7366                 0.6657
 IR Inten    --     16.5305                 9.0776                 8.0875

                     16                     17                     18
                      A                      A                      A
 Frequencies --    887.9540               898.3626               922.1034
 Red. masses --      2.2531                 3.9101                 2.1320
 Frc consts  --      1.0467                 1.8592                 1.0681
 IR Inten    --     17.5481                15.2823                 6.0231

                     19                     20                     21
                      A                      A                      A
 Frequencies --    958.5870               989.4216               996.8715
 Red. masses --      3.1457                 2.3317                 2.0374
 Frc consts  --      1.7031                 1.3449                 1.1929
 IR Inten    --     21.3499                 9.9874                 9.6858

                     22                     23                     24
                      A                      A                      A
 Frequencies --   1037.8775              1066.4671              1101.9722
 Red. masses --      1.4172                 2.2245                 1.5098
 Frc consts  --      0.8994                 1.4906                 1.0802
 IR Inten    --      9.2642                21.9680                 6.8096

                     25                     26                     27
                      A                      A                      A
 Frequencies --   1111.9193              1127.8236              1144.5075
 Red. masses --      1.4593                 1.7507                 1.7146
 Frc consts  --      1.0630                 1.3120                 1.3233
 IR Inten    --      1.0191                 3.1187                 0.8301

                     28                     29                     30
                      A                      A                      A
 Frequencies --   1163.2126              1199.8482              1207.2959
 Red. masses --      1.6492                 1.9056                 1.6894
 Frc consts  --      1.3147                 1.6163                 1.4508
 IR Inten    --      7.2384                10.2506                 5.1657

                     31                     32                     33
                      A                      A                      A
 Frequencies --   1219.5931              1290.3498              1319.8782
 Red. masses --      1.5068                 1.3828                 1.6236
 Frc consts  --      1.3205                 1.3565                 1.6665
 IR Inten    --      3.3600                 7.4522                10.7625

                     34                     35                     36
                      A                      A                      A
 Frequencies --   1388.9350              1411.3513              1453.1001
 Red. masses --      2.4036                 1.2372                 1.4302
 Frc consts  --      2.7319                 1.4520                 1.7792
 IR Inten    --      6.9700                 3.2318                11.9965

                     37                     38                     39
                      A                      A                      A
 Frequencies --   1471.4739              1488.6429              1498.1811
 Red. masses --      1.0758                 1.2567                 1.0390
 Frc consts  --      1.3724                 1.6408                 1.3740
 IR Inten    --      2.1731                 4.5388                 5.9593

                     40                     41                     42
                      A                      A                      A
 Frequencies --   1508.2411              1561.1082              3029.2847
 Red. masses --      1.0799                 2.7061                 1.0602
 Frc consts  --      1.4474                 3.8856                 5.7323
 IR Inten    --      6.0632                31.4199                15.8843

                     43                     44                     45
                      A                      A                      A
 Frequencies --   3043.4904              3061.8398              3067.0138
 Red. masses --      1.0359                 1.0581                 1.1000
 Frc consts  --      5.6535                 5.8442                 6.0963
 IR Inten    --     23.1982                29.2595                 6.4861

                     46                     47                     48
                      A                      A                      A
 Frequencies --   3087.6167              3111.2505              3125.9687
 Red. masses --      1.0507                 1.1015                 1.1021
 Frc consts  --      5.9019                 6.2820                 6.3450
 IR Inten    --     20.4109                32.0682                18.8667

                     49                     50                     51
                      A                      A                      A
 Frequencies --   3139.1852              3155.2214              3174.8912
 Red. masses --      1.0944                 1.1075                 1.1191
 Frc consts  --      6.3542                 6.4959                 6.6465
 IR Inten    --     37.8462                17.2347                17.7740

 - Thermochemistry -
 -------------------
 Temperature   298.150 Kelvin.  Pressure   1.00000 Atm.
 Atom     1 has atomic number  6 and mass  12.00000

 Molecular mass:   126.06808 amu.
 Principal axes and moments of inertia in atomic units:
                           1         2         3
     Eigenvalues --   618.914581337.771671551.92170
           X            0.99959   0.02559   0.01257
           Y           -0.02564   0.99966   0.00378
           Z           -0.01247  -0.00411   0.99991
 This molecule is an asymmetric top.
 Rotational symmetry number  1.
 Warning -- assumption of classical behavior for rotation
           may cause significant error
 Rotational temperatures (Kelvin)      0.13994     0.06474     0.05581
 Rotational constants (GHZ):           2.91598     1.34907     1.16291
 Zero-point vibrational energy     413354.1 (Joules/Mol)
                                   98.79400 (Kcal/Mol)
 Warning -- explicit consideration of  10 degrees of freedom as
           vibrations may cause significant error
 Vibrational temperatures:    105.09   190.12   284.31   298.19   365.83
          (Kelvin)            387.00   511.65   675.19   706.53   870.11
                              901.09  1013.84  1045.17  1114.00  1152.35
                             1277.57  1292.54  1326.70  1379.19  1423.56
                             1434.27  1493.27  1534.41  1585.49  1599.80
                             1622.68  1646.69  1673.60  1726.31  1737.03
                             1754.72  1856.52  1899.01  1998.37  2030.62
                             2090.68  2117.12  2141.82  2155.55  2170.02
                             2246.08  4358.46  4378.90  4405.30  4412.74
                             4442.39  4476.39  4497.57  4516.58  4539.65
                             4567.95

 Zero-point correction=                           0.157438 (Hartree/Particle)
 Thermal correction to Energy=                    0.165869
 Thermal correction to Enthalpy=                  0.166813
 Thermal correction to Gibbs Free Energy=         0.124331
 Sum of electronic and zero-point Energies=           -422.933254
 Sum of electronic and thermal Energies=              -422.924823
 Sum of electronic and thermal Enthalpies=            -422.923879
 Sum of electronic and thermal Free Energies=         -422.966362

                     E (Thermal)             CV                S
                      KCal/Mol        Cal/Mol-Kelvin    Cal/Mol-Kelvin
 Total                  104.085             32.272             89.413
 Electronic               0.000              0.000              0.000
 Translational            0.889              2.981             40.409
 Rotational               0.889              2.981             28.643
 Vibrational            102.307             26.310             20.361
 Vibration     1          0.599              1.967              4.070
 Vibration     2          0.612              1.921              2.915
 Vibration     3          0.637              1.843              2.155
 Vibration     4          0.641              1.830              2.068
 Vibration     5          0.665              1.756              1.701
 Vibration     6          0.673              1.730              1.603
 Vibration     7          0.731              1.564              1.141
 Vibration     8          0.826              1.318              0.740
 Vibration     9          0.847              1.270              0.681
 Vibration    10          0.963              1.022              0.442

 Normal termination of Gaussian 09 at Tue Jan 28 10:05:54 2020.
