 Gaussian 09, Revision D.01,
 Gaussian 09:  ES64L-G09RevD.01 24-Apr-2013

 -----------------------------
 # b3lyp 6-31G(2df,p) opt Freq
 -----------------------------

 -----
 titel
 -----
 Symbolic Z-matrix:
 Charge =  0 Multiplicity = 1

 SCF Done:  E(RB3LYP) =  -423.147340420     A.U. after   14 cycles
 Optimization completed.
    -- Stationary point found.
 Normal termination of Gaussian 09 at Tue Jan 28 12:40:45 2020.

 ----------------------------------------------------------------------
 #N Geom=AllCheck Guess=TCheck SCRF=Check GenChk RB3LYP/6-31G(2df,p) Fr
 eq
 ----------------------------------------------------------------------

 Structure from the checkpoint file:  "/scratch/puck/g09_578e19b5-cd79-4096-8909-a2bfdcf8aea7/Gau-116100.chk"
 -----
 titel
 -----
 Charge =  0 Multiplicity = 1

                         Standard orientation:
 ---------------------------------------------------------------------
 Center     Atomic      Atomic             Coordinates (Angstroms)
 Number     Number       Type             X           Y           Z
 ---------------------------------------------------------------------
      1          8           0       -2.582370    0.040979    0.523403
      2          6           0       -1.867058   -0.738626   -0.427089
      3          6           0       -0.394619   -0.681819   -0.195033
      4          6           0        0.566708   -1.589734   -0.013135
      5          6           0        1.825612   -0.733945    0.198800
      6          6           0        1.264336    0.364457    1.173012
      7          6           0        0.381825    0.653221   -0.073983
      8          8           0       -0.348465    1.851832   -0.148363
      9          6           0        1.650763    0.338507   -0.934114
     10          1           0       -2.174427    0.917193    0.513777
     11          1           0       -2.231766   -1.766910   -0.338602
     12          1           0       -2.099498   -0.406075   -1.455824
     13          1           0        0.510324   -2.669557   -0.001217
     14          1           0        2.778379   -1.226717    0.376834
     15          1           0        0.757168    0.025796    2.078004
     16          1           0        1.978368    1.165513    1.386320
     17          1           0       -0.534883    2.037669   -1.075282
     18          1           0        1.496861   -0.026750   -1.952690
     19          1           0        2.400755    1.134991   -0.902380
 ---------------------------------------------------------------------

 SCF Done:  E(RB3LYP) =  -423.147340420     A.U. after    1 cycles

 The electronic state is 1-A.
 Alpha  occ. eigenvalues --  -19.16086 -19.12037 -10.24949 -10.22810 -10.20258
 Alpha  occ. eigenvalues --  -10.19094 -10.18696 -10.18024 -10.17895  -1.04284
 Alpha  occ. eigenvalues --   -1.00222  -0.89603  -0.75040  -0.68409  -0.66795
 Alpha  occ. eigenvalues --   -0.64636  -0.55764  -0.54845  -0.52347  -0.47908
 Alpha  occ. eigenvalues --   -0.47008  -0.45287  -0.42806  -0.41352  -0.40648
 Alpha  occ. eigenvalues --   -0.37646  -0.35958  -0.34342  -0.33662  -0.33286
 Alpha  occ. eigenvalues --   -0.31889  -0.26779  -0.25850  -0.22806
 Alpha virt. eigenvalues --    0.00853   0.05678   0.10947   0.11974   0.13297
 Alpha virt. eigenvalues --    0.13784   0.14285   0.15195   0.15671   0.16894
 Alpha virt. eigenvalues --    0.17995   0.20080   0.20380   0.21363   0.22107

 Mulliken charges:
               1
     1  O   -0.424720
     2  C   -0.207860
     3  C    0.283633
     4  C   -0.223409
     5  C   -0.074514
     6  C   -0.239081
     7  C    0.305267
     8  O   -0.491333
     9  C   -0.271708
    10  H    0.289870
    11  H    0.116524
    12  H    0.079136
    13  H    0.103214
    14  H    0.071937
    15  H    0.106309
    16  H    0.098468
    17  H    0.288121
    18  H    0.091556
    19  H    0.098590
 Sum of Mulliken charges =   0.00000

 Dipole moment (field-independent basis, Debye):
    X=              1.9289    Y=              0.1151    Z=             -1.9008  Tot=              2.7105
 Quadrupole moment (field-independent basis, Debye-Ang):
   XX=            -57.8926   YY=            -51.0893   ZZ=            -52.0253
   XY=             -0.8866   XZ=              3.6580   YZ=             -2.3447

  Exact polarizability:  86.344  -1.457  77.080   2.803  -0.542  65.604
 Approx polarizability: 123.335 -10.221 120.157   3.075  -1.561 100.685

                      1                      2                      3
                      A                      A                      A
 Frequencies --     99.6891               145.2809               222.7868
 Red. masses --      4.4703                 3.9019                 1.9883
 Frc consts  --      0.0262                 0.0485                 0.0581
 IR Inten    --      4.4941                 1.8336                 4.6767

                      4                      5                      6
                      A                      A                      A
 Frequencies --    249.5895               315.3068               384.9271
 Red. masses --      1.3108                 3.8746                 4.0209
 Frc consts  --      0.0481                 0.2270                 0.3510
 IR Inten    --     67.6221                 3.0907                14.6715

                      7                      8                      9
                      A                      A                      A
 Frequencies --    433.5569               484.5843               515.1262
 Red. masses --      3.4099                 2.1133                 2.1808
 Frc consts  --      0.3776                 0.2924                 0.3409
 IR Inten    --      1.9902                 2.1673                 0.9746

                     10                     11                     12
                      A                      A                      A
 Frequencies --    551.6208               585.5535               649.1206
 Red. masses --      1.1127                 2.8546                 4.1602
 Frc consts  --      0.1995                 0.5767                 1.0328
 IR Inten    --    121.2050                 3.6371                 6.8474

                     13                     14                     15
                      A                      A                      A
 Frequencies --    681.7508               781.5519               794.6229
 Red. masses --      3.7290                 3.1635                 1.8733
 Frc consts  --      1.0212                 1.1385                 0.6969
 IR Inten    --     15.7372                 4.1572                 7.8931

                     16                     17                     18
                      A                      A                      A
 Frequencies --    840.2634               894.0036               913.2313
 Red. masses --      2.0613                 2.5514                 2.6783
 Frc consts  --      0.8575                 1.2015                 1.3161
 IR Inten    --      6.9366                 0.0424                 5.0143

                     19                     20                     21
                      A                      A                      A
 Frequencies --    918.6748               961.7157               991.5471
 Red. masses --      2.4393                 2.1338                 1.6140
 Frc consts  --      1.2129                 1.1628                 0.9350
 IR Inten    --     13.3000                 1.9469                 9.1629

                     22                     23                     24
                      A                      A                      A
 Frequencies --   1017.2420              1043.4501              1059.9240
 Red. masses --      1.5868                 4.5360                 1.1525
 Frc consts  --      0.9674                 2.9098                 0.7629
 IR Inten    --     11.8185                73.6276                 3.0468

                     25                     26                     27
                      A                      A                      A
 Frequencies --   1076.6729              1127.9982              1153.8702
 Red. masses --      1.5577                 1.4170                 1.6354
 Frc consts  --      1.0639                 1.0623                 1.2829
 IR Inten    --      2.6121                29.0257                22.4510

                     28                     29                     30
                      A                      A                      A
 Frequencies --   1171.3093              1199.6424              1221.4009
 Red. masses --      2.0481                 1.3733                 1.3847
 Frc consts  --      1.6556                 1.1644                 1.2171
 IR Inten    --      8.8762                14.7826                 2.9809

                     31                     32                     33
                      A                      A                      A
 Frequencies --   1238.8103              1247.9816              1263.5620
 Red. masses --      1.8658                 2.8903                 1.4243
 Frc consts  --      1.6871                 2.6522                 1.3398
 IR Inten    --     19.7337               123.3907                 2.1918

                     34                     35                     36
                      A                      A                      A
 Frequencies --   1318.4610              1337.6041              1370.9517
 Red. masses --      1.8395                 1.6999                 1.3540
 Frc consts  --      1.8840                 1.7920                 1.4994
 IR Inten    --     42.0527                 0.5332                18.3643

                     37                     38                     39
                      A                      A                      A
 Frequencies --   1447.4393              1478.0283              1499.7689
 Red. masses --      1.2163                 1.1080                 1.0962
 Frc consts  --      1.5014                 1.4261                 1.4527
 IR Inten    --     91.1266                 1.3413                 1.6985

                     40                     41                     42
                      A                      A                      A
 Frequencies --   1519.3356              1698.7945              2924.3525
 Red. masses --      1.1531                 8.1432                 1.0726
 Frc consts  --      1.5683                13.8461                 5.4042
 IR Inten    --      1.5414                 2.1087                72.6607

                     43                     44                     45
                      A                      A                      A
 Frequencies --   3045.8902              3060.3752              3074.0698
 Red. masses --      1.0556                 1.0574                 1.0879
 Frc consts  --      5.7698                 5.8351                 6.0569
 IR Inten    --     44.9607                33.2166                30.2961

                     46                     47                     48
                      A                      A                      A
 Frequencies --   3117.1572              3134.0484              3146.1137
 Red. masses --      1.1101                 1.1092                 1.0908
 Frc consts  --      6.3555                 6.4191                 6.3613
 IR Inten    --     32.1693                28.6013                34.6758

                     49                     50                     51
                      A                      A                      A
 Frequencies --   3223.1496              3755.3331              3806.7937
 Red. masses --      1.0979                 1.0660                 1.0660
 Frc consts  --      6.7201                 8.8572                 9.1015
 IR Inten    --      8.4954                70.3782                29.8284

 - Thermochemistry -
 -------------------
 Temperature   298.150 Kelvin.  Pressure   1.00000 Atm.
 Atom     1 has atomic number  8 and mass  15.99491

 Molecular mass:   126.06808 amu.
 Principal axes and moments of inertia in atomic units:
                           1         2         3
     Eigenvalues --   647.016791194.734751487.39505
           X            0.99981   0.01255   0.01476
           Y           -0.01251   0.99992  -0.00310
           Z           -0.01480   0.00291   0.99989
 This molecule is an asymmetric top.
 Rotational symmetry number  1.
 Warning -- assumption of classical behavior for rotation
           may cause significant error
 Rotational temperatures (Kelvin)      0.13387     0.07250     0.05823
 Rotational constants (GHZ):           2.78933     1.51058     1.21336
 Zero-point vibrational energy     419853.6 (Joules/Mol)
                                  100.34741 (Kcal/Mol)
 Warning -- explicit consideration of  11 degrees of freedom as
           vibrations may cause significant error
 Vibrational temperatures:    143.43   209.03   320.54   359.10   453.66
          (Kelvin)            553.82   623.79   697.21   741.15   793.66
                              842.48   933.94   980.89  1124.48  1143.28
                             1208.95  1286.27  1313.93  1321.77  1383.69
                             1426.61  1463.58  1501.29  1524.99  1549.09
                             1622.94  1660.16  1685.25  1726.02  1757.32
                             1782.37  1795.56  1817.98  1896.97  1924.51
                             1972.49  2082.54  2126.55  2157.83  2185.98
                             2444.18  4207.49  4382.35  4403.19  4422.90
                             4484.89  4509.19  4526.55  4637.39  5403.08
                             5477.12

 Zero-point correction=                           0.159914 (Hartree/Particle)
 Thermal correction to Energy=                    0.167988
 Thermal correction to Enthalpy=                  0.168932
 Thermal correction to Gibbs Free Energy=         0.127582
 Sum of electronic and zero-point Energies=           -422.987427
 Sum of electronic and thermal Energies=              -422.979353
 Sum of electronic and thermal Enthalpies=            -422.978408
 Sum of electronic and thermal Free Energies=         -423.019758

                     E (Thermal)             CV                S
                      KCal/Mol        Cal/Mol-Kelvin    Cal/Mol-Kelvin
 Total                  105.414             32.313             87.028
 Electronic               0.000              0.000              0.000
 Translational            0.889              2.981             40.409
 Rotational               0.889              2.981             28.532
 Vibrational            103.636             26.351             18.087
 Vibration     1          0.604              1.949              3.460
 Vibration     2          0.617              1.908              2.733
 Vibration     3          0.648              1.806              1.936
 Vibration     4          0.662              1.763              1.733
 Vibration     5          0.703              1.644              1.334
 Vibration     6          0.754              1.502              1.020
 Vibration     7          0.794              1.397              0.847
 Vibration     8          0.841              1.284              0.698
 Vibration     9          0.870              1.216              0.621
 Vibration    10          0.907              1.136              0.541
 Vibration    11          0.943              1.063              0.475

 Normal termination of Gaussian 09 at Tue Jan 28 13:25:48 2020.
