 Gaussian 09, Revision D.01,
 Gaussian 09:  ES64L-G09RevD.01 24-Apr-2013

 -----------------------------
 # b3lyp 6-31G(2df,p) opt Freq
 -----------------------------

 -----
 titel
 -----
 Symbolic Z-matrix:
 Charge =  0 Multiplicity = 1

 SCF Done:  E(RB3LYP) =  -423.202054801     A.U. after   14 cycles
 Optimization completed.
    -- Stationary point found.
 Normal termination of Gaussian 09 at Tue Jan 28 08:14:31 2020.

 ----------------------------------------------------------------------
 #N Geom=AllCheck Guess=TCheck SCRF=Check GenChk RB3LYP/6-31G(2df,p) Fr
 eq
 ----------------------------------------------------------------------

 Structure from the checkpoint file:  "/scratch/puck/g09_b56a8080-a74d-41a5-8ab4-d6f6a75defe7/Gau-17828.chk"
 -----
 titel
 -----
 Charge =  0 Multiplicity = 1

                         Standard orientation:
 ---------------------------------------------------------------------
 Center     Atomic      Atomic             Coordinates (Angstroms)
 Number     Number       Type             X           Y           Z
 ---------------------------------------------------------------------
      1          8           0       -2.416666   -0.598817    0.012296
      2          6           0       -1.299653    0.180983    0.394027
      3          6           0       -0.846188    1.121756   -0.746744
      4          6           0        0.619318    1.600204   -0.618971
      5          6           0        1.498022    0.502113    0.024880
      6          6           0        0.987358    0.241289    1.475545
      7          6           0       -0.105642   -0.690420    0.870074
      8          6           0        0.878697   -0.872592   -0.298327
      9          8           0        1.136143   -1.763208   -1.056800
     10          1           0       -2.160877   -1.136042   -0.746627
     11          1           0       -1.650401    0.759513    1.256355
     12          1           0       -0.934649    0.543928   -1.676215
     13          1           0       -1.536314    1.964172   -0.843433
     14          1           0        1.001206    1.858254   -1.611306
     15          1           0        0.689772    2.506212   -0.006357
     16          1           0        2.564127    0.652595   -0.150587
     17          1           0        1.708358   -0.305391    2.086256
     18          1           0        0.627465    1.116450    2.023201
     19          1           0       -0.455974   -1.563486    1.421835
 ---------------------------------------------------------------------

 SCF Done:  E(RB3LYP) =  -423.202054801     A.U. after    1 cycles

 The electronic state is 1-A.
 Alpha  occ. eigenvalues --  -19.14125 -19.13775 -10.26829 -10.24523 -10.20103
 Alpha  occ. eigenvalues --  -10.20038 -10.19964 -10.19570 -10.19244  -1.04702
 Alpha  occ. eigenvalues --   -1.02554  -0.87807  -0.76844  -0.73402  -0.63583
 Alpha  occ. eigenvalues --   -0.61843  -0.61376  -0.52053  -0.50883  -0.47634
 Alpha  occ. eigenvalues --   -0.46435  -0.45661  -0.43286  -0.40968  -0.40246
 Alpha  occ. eigenvalues --   -0.39469  -0.38380  -0.36157  -0.35286  -0.34258
 Alpha  occ. eigenvalues --   -0.32550  -0.31510  -0.27078  -0.23711
 Alpha virt. eigenvalues --   -0.01423   0.07605   0.08080   0.10117   0.11499
 Alpha virt. eigenvalues --    0.13365   0.13745   0.15164   0.15491   0.16877
 Alpha virt. eigenvalues --    0.17539   0.19857   0.20235   0.20815   0.21949

 Mulliken charges:
               1
     1  O   -0.433049
     2  C    0.135251
     3  C   -0.232356
     4  C   -0.227055
     5  C   -0.130501
     6  C   -0.247088
     7  C   -0.165783
     8  C    0.410026
     9  O   -0.325648
    10  H    0.285287
    11  H    0.096480
    12  H    0.108586
    13  H    0.107089
    14  H    0.114296
    15  H    0.109209
    16  H    0.086992
    17  H    0.114321
    18  H    0.101865
    19  H    0.092079
 Sum of Mulliken charges =   0.00000

 Dipole moment (field-independent basis, Debye):
    X=              0.5172    Y=              2.2430    Z=              0.8749  Tot=              2.4625
 Quadrupole moment (field-independent basis, Debye-Ang):
   XX=            -58.1077   YY=            -55.1453   ZZ=            -52.3175
   XY=              2.4587   XZ=              4.0098   YZ=             -2.2167

  Exact polarizability:  75.960   0.950  75.618  -0.467   1.645  71.416
 Approx polarizability: 107.848  -0.169 115.005  -4.085  10.855 110.542

                      1                      2                      3
                      A                      A                      A
 Frequencies --    103.8603               146.0673               221.6563
 Red. masses --      6.0962                 3.9069                 2.0763
 Frc consts  --      0.0387                 0.0491                 0.0601
 IR Inten    --      5.4949                 2.4700                 0.3137

                      4                      5                      6
                      A                      A                      A
 Frequencies --    311.3515               372.0658               381.7012
 Red. masses --      1.1605                 2.2582                 3.8075
 Frc consts  --      0.0663                 0.1842                 0.3268
 IR Inten    --     60.5198                20.7911                20.9065

                      7                      8                      9
                      A                      A                      A
 Frequencies --    409.3199               459.9986               488.1438
 Red. masses --      4.7776                 3.5841                 3.0165
 Frc consts  --      0.4716                 0.4468                 0.4235
 IR Inten    --      2.5003                 2.0797                 2.6805

                     10                     11                     12
                      A                      A                      A
 Frequencies --    533.9753               645.0619               776.5038
 Red. masses --      3.6886                 3.2374                 2.0161
 Frc consts  --      0.6197                 0.7937                 0.7162
 IR Inten    --      4.0515                 0.6648                 4.8966

                     13                     14                     15
                      A                      A                      A
 Frequencies --    786.7321               823.0717               838.6557
 Red. masses --      3.8305                 2.0458                 2.3392
 Frc consts  --      1.3969                 0.8165                 0.9693
 IR Inten    --      2.1690                 4.3391                 1.1871

                     16                     17                     18
                      A                      A                      A
 Frequencies --    899.7287               924.3122               935.5908
 Red. masses --      3.1206                 2.4200                 1.9438
 Frc consts  --      1.4884                 1.2181                 1.0025
 IR Inten    --      6.5809                 3.0377                 2.8843

                     19                     20                     21
                      A                      A                      A
 Frequencies --   1024.6695              1029.5208              1042.6212
 Red. masses --      2.0797                 1.9258                 1.8669
 Frc consts  --      1.2865                 1.2026                 1.1957
 IR Inten    --      9.2903                12.1709                29.7391

                     22                     23                     24
                      A                      A                      A
 Frequencies --   1057.0953              1065.2478              1102.0457
 Red. masses --      2.3303                 2.1595                 2.6296
 Frc consts  --      1.5342                 1.4438                 1.8817
 IR Inten    --     33.9153                10.2587                95.4036

                     25                     26                     27
                      A                      A                      A
 Frequencies --   1119.2730              1154.5864              1170.0352
 Red. masses --      1.4232                 1.7180                 1.4452
 Frc consts  --      1.0504                 1.3494                 1.1657
 IR Inten    --      8.5169                 2.2728                 0.5185

                     28                     29                     30
                      A                      A                      A
 Frequencies --   1198.0355              1243.3965              1253.5950
 Red. masses --      1.2803                 1.7226                 1.3874
 Frc consts  --      1.0827                 1.5691                 1.2846
 IR Inten    --      2.9053                 9.0590                 0.3058

                     31                     32                     33
                      A                      A                      A
 Frequencies --   1268.4231              1292.8457              1307.2862
 Red. masses --      1.4611                 1.3856                 1.4521
 Frc consts  --      1.3850                 1.3646                 1.4621
 IR Inten    --      2.9547                 5.3217                14.5612

                     34                     35                     36
                      A                      A                      A
 Frequencies --   1343.9264              1362.2998              1374.1731
 Red. masses --      1.3927                 1.3998                 1.3668
 Frc consts  --      1.4820                 1.5306                 1.5207
 IR Inten    --      3.4525                 1.7663                 1.4328

                     37                     38                     39
                      A                      A                      A
 Frequencies --   1430.9074              1486.1042              1495.7558
 Red. masses --      1.2096                 1.0785                 1.0955
 Frc consts  --      1.4592                 1.4034                 1.4441
 IR Inten    --     58.1776                 1.9992                 5.3351

                     40                     41                     42
                      A                      A                      A
 Frequencies --   1505.3466              1881.6831              3021.8071
 Red. masses --      1.0950                12.0585                 1.0706
 Frc consts  --      1.4619                25.1557                 5.7601
 IR Inten    --      1.4981               269.6554                11.1565

                     43                     44                     45
                      A                      A                      A
 Frequencies --   3038.5916              3045.3123              3062.3861
 Red. masses --      1.0623                 1.0832                 1.0582
 Frc consts  --      5.7788                 5.9189                 5.8473
 IR Inten    --     27.4213                23.0793                26.6055

                     46                     47                     48
                      A                      A                      A
 Frequencies --   3082.8642              3095.9008              3105.9852
 Red. masses --      1.0981                 1.0986                 1.0893
 Frc consts  --      6.1490                 6.2041                 6.1917
 IR Inten    --     23.9419                33.6261                25.0375

                     49                     50                     51
                      A                      A                      A
 Frequencies --   3112.4623              3123.5867              3791.4905
 Red. masses --      1.0903                 1.1062                 1.0659
 Frc consts  --      6.2230                 6.3590                 9.0281
 IR Inten    --     13.1022                23.7945                17.0670

 - Thermochemistry -
 -------------------
 Temperature   298.150 Kelvin.  Pressure   1.00000 Atm.
 Atom     1 has atomic number  8 and mass  15.99491

 Molecular mass:   126.06808 amu.
 Principal axes and moments of inertia in atomic units:
                           1         2         3
     Eigenvalues --   806.646461085.490201280.14338
           X            0.99808   0.05296   0.03199
           Y           -0.05035   0.99573  -0.07738
           Z           -0.03595   0.07562   0.99649
 This molecule is an asymmetric top.
 Rotational symmetry number  1.
 Warning -- assumption of classical behavior for rotation
           may cause significant error
 Rotational temperatures (Kelvin)      0.10738     0.07979     0.06766
 Rotational constants (GHZ):           2.23734     1.66260     1.40980
 Zero-point vibrational energy     423161.4 (Joules/Mol)
                                  101.13799 (Kcal/Mol)
 Warning -- explicit consideration of  10 degrees of freedom as
           vibrations may cause significant error
 Vibrational temperatures:    149.43   210.16   318.91   447.96   535.32
          (Kelvin)            549.18   588.92   661.83   702.33   768.27
                              928.10  1117.21  1131.93  1184.22  1206.64
                             1294.51  1329.88  1346.10  1474.27  1481.25
                             1500.10  1520.92  1532.65  1585.60  1610.38
                             1661.19  1683.42  1723.70  1788.97  1803.64
                             1824.98  1860.11  1880.89  1933.61  1960.04
                             1977.13  2058.75  2138.17  2152.06  2165.86
                             2707.32  4347.70  4371.85  4381.52  4406.09
                             4435.55  4454.31  4468.81  4478.13  4494.14
                             5455.10

 Zero-point correction=                           0.161174 (Hartree/Particle)
 Thermal correction to Energy=                    0.168937
 Thermal correction to Enthalpy=                  0.169882
 Thermal correction to Gibbs Free Energy=         0.129074
 Sum of electronic and zero-point Energies=           -423.040881
 Sum of electronic and thermal Energies=              -423.033117
 Sum of electronic and thermal Enthalpies=            -423.032173
 Sum of electronic and thermal Free Energies=         -423.072980

                     E (Thermal)             CV                S
                      KCal/Mol        Cal/Mol-Kelvin    Cal/Mol-Kelvin
 Total                  106.010             30.866             85.886
 Electronic               0.000              0.000              0.000
 Translational            0.889              2.981             40.409
 Rotational               0.889              2.981             28.507
 Vibrational            104.232             24.905             16.970
 Vibration     1          0.605              1.946              3.381
 Vibration     2          0.617              1.907              2.723
 Vibration     3          0.648              1.808              1.946
 Vibration     4          0.700              1.652              1.355
 Vibration     5          0.744              1.530              1.071
 Vibration     6          0.751              1.509              1.032
 Vibration     7          0.774              1.450              0.929
 Vibration     8          0.818              1.339              0.766
 Vibration     9          0.844              1.276              0.688
 Vibration    10          0.889              1.175              0.578

 Optimization completed.
    -- Stationary point found.
 Normal termination of Gaussian 09 at Tue Jan 28 09:02:50 2020.
