 Gaussian 09, Revision D.01,
 Gaussian 09:  ES64L-G09RevD.01 24-Apr-2013

 -----------------------------
 # b3lyp 6-31G(2df,p) opt Freq
 -----------------------------

 -----
 titel
 -----
 Symbolic Z-matrix:
 Charge =  0 Multiplicity = 1

 SCF Done:  E(RB3LYP) =  -423.114238968     A.U. after   14 cycles
 Optimization completed.
    -- Stationary point found.
 Normal termination of Gaussian 09 at Mon Jan 27 11:16:59 2020.

 ----------------------------------------------------------------------
 #N Geom=AllCheck Guess=TCheck SCRF=Check GenChk RB3LYP/6-31G(2df,p) Fr
 eq
 ----------------------------------------------------------------------

 Structure from the checkpoint file:  "/scratch/puck/g09_2486aeae-99a8-4730-81ac-dd160a83c6e3/Gau-46407.chk"
 -----
 titel
 -----
 Charge =  0 Multiplicity = 1

                         Standard orientation:
 ---------------------------------------------------------------------
 Center     Atomic      Atomic             Coordinates (Angstroms)
 Number     Number       Type             X           Y           Z
 ---------------------------------------------------------------------
      1          6           0        2.058950    0.972530   -0.057638
      2          8           0        2.929465   -0.153440   -0.285249
      3          6           0        1.922359   -1.086000    0.153161
      4          6           0        0.917457    0.055381    0.444292
      5          6           0       -0.373099    0.061854   -0.350800
      6          6           0       -1.328374    1.276542   -0.037807
      7          6           0       -2.360540    0.271021    0.488947
      8          8           0       -2.655114   -0.633097   -0.581755
      9          6           0       -1.477388   -0.868835    0.193496
     10          1           0        2.475753    1.671485    0.677881
     11          1           0        1.842989    1.520298   -0.984663
     12          1           0        1.625615   -1.777602   -0.647238
     13          1           0        2.253792   -1.670174    1.020598
     14          1           0        0.705366    0.177015    1.511080
     15          1           0       -0.167504   -0.096167   -1.414786
     16          1           0       -0.923585    1.928921    0.740990
     17          1           0       -1.660101    1.880546   -0.885246
     18          1           0       -3.123404    0.402435    1.247511
     19          1           0       -1.379928   -1.839428    0.667997
 ---------------------------------------------------------------------

 SCF Done:  E(RB3LYP) =  -423.114238968     A.U. after    1 cycles

 The electronic state is 1-A.
 Alpha  occ. eigenvalues --  -19.15299 -19.13147 -10.24098 -10.23953 -10.23158
 Alpha  occ. eigenvalues --  -10.23139 -10.20118 -10.19990 -10.19449  -1.08038
 Alpha  occ. eigenvalues --   -1.03705  -0.82268  -0.74357  -0.69328  -0.66508
 Alpha  occ. eigenvalues --   -0.62933  -0.57050  -0.55319  -0.52986  -0.50013
 Alpha  occ. eigenvalues --   -0.47459  -0.45565  -0.43961  -0.42472  -0.40592
 Alpha  occ. eigenvalues --   -0.39812  -0.37083  -0.35309  -0.34516  -0.32528
 Alpha  occ. eigenvalues --   -0.29909  -0.28899  -0.25761  -0.24780
 Alpha virt. eigenvalues --    0.07565   0.08726   0.08946   0.09598   0.10231
 Alpha virt. eigenvalues --    0.12211   0.12389   0.14597   0.15758   0.16491
 Alpha virt. eigenvalues --    0.16732   0.17589   0.18136   0.19034   0.19430

 Mulliken charges:
               1
     1  C   -0.085285
     2  O   -0.270131
     3  C   -0.090662
     4  C   -0.042708
     5  C   -0.025192
     6  C   -0.283617
     7  C    0.038628
     8  O   -0.246758
     9  C    0.014327
    10  H    0.099730
    11  H    0.100672
    12  H    0.100745
    13  H    0.100340
    14  H    0.075992
    15  H    0.086265
    16  H    0.106604
    17  H    0.113421
    18  H    0.104409
    19  H    0.103220
 Sum of Mulliken charges =   0.00000

 Dipole moment (field-independent basis, Debye):
    X=             -0.5569    Y=              0.7390    Z=              1.8734  Tot=              2.0895
 Quadrupole moment (field-independent basis, Debye-Ang):
   XX=            -65.5104   YY=            -50.0029   ZZ=            -52.5249
   XY=             -1.6800   XZ=             -1.9562   YZ=             -1.0593

  Exact polarizability:  83.527  -1.492  77.194  -0.932  -0.668  62.837
 Approx polarizability: 109.925  -2.327 113.804   0.457   2.165  99.443

                      1                      2                      3
                      A                      A                      A
 Frequencies --     37.3324                73.8090               134.6618
 Red. masses --      4.1499                 3.3334                 3.0809
 Frc consts  --      0.0034                 0.0107                 0.0329
 IR Inten    --      5.2251                 0.6178                 1.2126

                      4                      5                      6
                      A                      A                      A
 Frequencies --    160.9767               311.8819               377.9366
 Red. masses --      3.1391                 3.4690                 2.0469
 Frc consts  --      0.0479                 0.1988                 0.1723
 IR Inten    --      1.5777                 0.4080                 0.4276

                      7                      8                      9
                      A                      A                      A
 Frequencies --    425.6199               480.3969               745.1769
 Red. masses --      2.9787                 3.5713                 2.4358
 Frc consts  --      0.3179                 0.4856                 0.7969
 IR Inten    --      0.2023                 9.4735                 1.2559

                     10                     11                     12
                      A                      A                      A
 Frequencies --    778.8372               838.2335               847.6616
 Red. masses --      4.5220                 2.2449                 3.8801
 Frc consts  --      1.6161                 0.9293                 1.6426
 IR Inten    --      3.9358                22.6257                 4.2507

                     13                     14                     15
                      A                      A                      A
 Frequencies --    861.7402               889.4083               917.7524
 Red. masses --      2.2382                 1.3287                 2.0284
 Frc consts  --      0.9793                 0.6193                 1.0066
 IR Inten    --     14.3121                 1.0456                 4.0846

                     16                     17                     18
                      A                      A                      A
 Frequencies --    926.2733               954.3536               982.6504
 Red. masses --      2.7805                 2.4662                 2.4907
 Frc consts  --      1.4056                 1.3234                 1.4170
 IR Inten    --     11.7246                 2.2245                 3.6095

                     19                     20                     21
                      A                      A                      A
 Frequencies --    991.4014              1013.5837              1043.6502
 Red. masses --      2.1324                 2.4405                 2.8200
 Frc consts  --      1.2349                 1.4772                 1.8097
 IR Inten    --     34.9920                 8.8788                48.7699

                     22                     23                     24
                      A                      A                      A
 Frequencies --   1048.2405              1072.2391              1095.8708
 Red. masses --      2.1648                 2.7868                 2.1860
 Frc consts  --      1.4015                 1.8878                 1.5467
 IR Inten    --     29.6244                 1.4989                 3.6273

                     25                     26                     27
                      A                      A                      A
 Frequencies --   1137.4777              1156.5711              1164.6483
 Red. masses --      1.5606                 1.2313                 1.0673
 Frc consts  --      1.1896                 0.9705                 0.8529
 IR Inten    --      0.6749                 0.7822                 0.1796

                     28                     29                     30
                      A                      A                      A
 Frequencies --   1209.7829              1222.4731              1234.6899
 Red. masses --      1.5622                 1.4971                 1.4525
 Frc consts  --      1.3471                 1.3182                 1.3046
 IR Inten    --      0.5830                 4.6567                10.8736

                     31                     32                     33
                      A                      A                      A
 Frequencies --   1242.6337              1263.9206              1276.3451
 Red. masses --      1.4212                 1.3310                 1.4619
 Frc consts  --      1.2929                 1.2528                 1.4031
 IR Inten    --      1.5896                 0.6263                 0.0963

                     34                     35                     36
                      A                      A                      A
 Frequencies --   1287.2547              1311.8472              1375.5468
 Red. masses --      1.4685                 1.2780                 1.4111
 Frc consts  --      1.4337                 1.2958                 1.5732
 IR Inten    --      9.2051                 0.6369                 3.1543

                     37                     38                     39
                      A                      A                      A
 Frequencies --   1387.2983              1408.4310              1470.1091
 Red. masses --      3.4781                 1.7514                 1.1178
 Frc consts  --      3.9440                 2.0469                 1.4234
 IR Inten    --     22.3905                 0.7140                 1.5838

                     40                     41                     42
                      A                      A                      A
 Frequencies --   1513.5216              1538.3630              2999.2851
 Red. masses --      1.0791                 1.1092                 1.0533
 Frc consts  --      1.4564                 1.5466                 5.5827
 IR Inten    --      1.4987                 1.0511               118.6339

                     43                     44                     45
                      A                      A                      A
 Frequencies --   3010.4754              3040.0944              3047.0168
 Red. masses --      1.0587                 1.1005                 1.1063
 Frc consts  --      5.6534                 5.9928                 6.0516
 IR Inten    --      4.2890                34.3119                 5.6805

                     46                     47                     48
                      A                      A                      A
 Frequencies --   3050.3664              3062.1136              3068.5367
 Red. masses --      1.0890                 1.0603                 1.0919
 Frc consts  --      5.9700                 5.8577                 6.0575
 IR Inten    --     13.3154                23.5362                81.6819

                     49                     50                     51
                      A                      A                      A
 Frequencies --   3119.9809              3171.8697              3190.4172
 Red. masses --      1.1079                 1.0879                 1.1001
 Frc consts  --      6.3538                 6.4489                 6.5977
 IR Inten    --     21.9158                16.7243                22.4621

 - Thermochemistry -
 -------------------
 Temperature   298.150 Kelvin.  Pressure   1.00000 Atm.
 Atom     1 has atomic number  6 and mass  12.00000

 Molecular mass:   126.06808 amu.
 Principal axes and moments of inertia in atomic units:
                           1         2         3
     Eigenvalues --   387.996871890.138552101.43485
           X            0.99997  -0.00754  -0.00313
           Y            0.00746   0.99968  -0.02400
           Z            0.00331   0.02397   0.99971
 This molecule is an asymmetric top.
 Rotational symmetry number  1.
 Rotational temperatures (Kelvin)      0.22323     0.04582     0.04122
 Rotational constants (GHZ):           4.65143     0.95482     0.85881
 Zero-point vibrational energy     418518.1 (Joules/Mol)
                                  100.02822 (Kcal/Mol)
 Warning -- explicit consideration of   8 degrees of freedom as
           vibrations may cause significant error
 Vibrational temperatures:     53.71   106.19   193.75   231.61   448.73
          (Kelvin)            543.77   612.37   691.18  1072.14  1120.57
                             1206.03  1219.59  1239.85  1279.66  1320.44
                             1332.70  1373.10  1413.81  1426.40  1458.32
                             1501.58  1508.18  1542.71  1576.71  1636.57
                             1664.05  1675.67  1740.61  1758.86  1776.44
                             1787.87  1818.50  1836.37  1852.07  1887.45
                             1979.10  1996.01  2026.42  2115.16  2177.62
                             2213.36  4315.30  4331.40  4374.01  4383.97
                             4388.79  4405.69  4414.93  4488.95  4563.61
                             4590.29

 Zero-point correction=                           0.159405 (Hartree/Particle)
 Thermal correction to Energy=                    0.167451
 Thermal correction to Enthalpy=                  0.168395
 Thermal correction to Gibbs Free Energy=         0.125318
 Sum of electronic and zero-point Energies=           -422.954834
 Sum of electronic and thermal Energies=              -422.946788
 Sum of electronic and thermal Enthalpies=            -422.945844
 Sum of electronic and thermal Free Energies=         -422.988921

                     E (Thermal)             CV                S
                      KCal/Mol        Cal/Mol-Kelvin    Cal/Mol-Kelvin
 Total                  105.077             29.663             90.664
 Electronic               0.000              0.000              0.000
 Translational            0.889              2.981             40.409
 Rotational               0.889              2.981             28.823
 Vibrational            103.300             23.702             21.433
 Vibration     1          0.594              1.982              5.396
 Vibration     2          0.599              1.966              4.049
 Vibration     3          0.613              1.919              2.878
 Vibration     4          0.622              1.890              2.538
 Vibration     5          0.700              1.651              1.352
 Vibration     6          0.748              1.517              1.047
 Vibration     7          0.787              1.415              0.873
 Vibration     8          0.837              1.294              0.709

 Normal termination of Gaussian 09 at Mon Jan 27 11:56:18 2020.
