 Gaussian 09, Revision D.01,
 Gaussian 09:  ES64L-G09RevD.01 24-Apr-2013

 -----------------------------
 # b3lyp 6-31G(2df,p) opt Freq
 -----------------------------

 -----
 titel
 -----
 Symbolic Z-matrix:
 Charge =  0 Multiplicity = 1

 SCF Done:  E(RB3LYP) =  -423.137353545     A.U. after   12 cycles
 Optimization completed.
    -- Stationary point found.
 Normal termination of Gaussian 09 at Mon Jan 27 11:17:59 2020.

 ----------------------------------------------------------------------
 #N Geom=AllCheck Guess=TCheck SCRF=Check GenChk RB3LYP/6-31G(2df,p) Fr
 eq
 ----------------------------------------------------------------------

 Structure from the checkpoint file:  "/scratch/puck/g09_ce29861f-17bf-414a-b499-5ed97f06a288/Gau-42120.chk"
 -----
 titel
 -----
 Charge =  0 Multiplicity = 1

                         Standard orientation:
 ---------------------------------------------------------------------
 Center     Atomic      Atomic             Coordinates (Angstroms)
 Number     Number       Type             X           Y           Z
 ---------------------------------------------------------------------
      1          6           0       -2.206321   -0.000001   -0.501680
      2          6           0       -1.255953   -0.757192    0.393276
      3          8           0       -0.232737   -1.498202   -0.193530
      4          6           0        1.115928   -1.075088    0.000125
      5          6           0        1.532157   -0.000001   -1.040762
      6          6           0        1.115928    1.075088    0.000123
      7          6           0        1.324675    0.000000    1.099282
      8          8           0       -0.232736    1.498203   -0.193530
      9          6           0       -1.255953    0.757193    0.393273
     10          1           0       -1.953553   -0.000005   -1.555857
     11          1           0       -3.266444    0.000000   -0.274378
     12          1           0       -1.674164   -1.232975    1.280039
     13          1           0        1.712756   -1.988643    0.056740
     14          1           0        2.610795   -0.000001   -1.225439
     15          1           0        0.990138   -0.000002   -1.988117
     16          1           0        1.712757    1.988642    0.056737
     17          1           0        2.366877    0.000000    1.428991
     18          1           0        0.676035    0.000001    1.975896
     19          1           0       -1.674167    1.232978    1.280034
 ---------------------------------------------------------------------

 SCF Done:  E(RB3LYP) =  -423.137353545     A.U. after    1 cycles

 The electronic state is 1-A.
 Alpha  occ. eigenvalues --  -19.14336 -19.14336 -10.23636 -10.23635 -10.23524
 Alpha  occ. eigenvalues --  -10.23500 -10.18692 -10.18106 -10.17620  -1.05122
 Alpha  occ. eigenvalues --   -1.02269  -0.85853  -0.81208  -0.68304  -0.67109
 Alpha  occ. eigenvalues --   -0.60970  -0.56843  -0.54984  -0.52782  -0.49954
 Alpha  occ. eigenvalues --   -0.49080  -0.43335  -0.43140  -0.42031  -0.39670
 Alpha  occ. eigenvalues --   -0.39539  -0.37338  -0.36988  -0.33737  -0.32495
 Alpha  occ. eigenvalues --   -0.29214  -0.26289  -0.25910  -0.23098
 Alpha virt. eigenvalues --    0.07667   0.08940   0.09897   0.11797   0.13310
 Alpha virt. eigenvalues --    0.13542   0.14599   0.16356   0.16711   0.17579
 Alpha virt. eigenvalues --    0.18191   0.19408   0.20652   0.20693   0.21722

 Mulliken charges:
               1
     1  C   -0.333963
     2  C    0.074899
     3  O   -0.273847
     4  C    0.124983
     5  C   -0.235089
     6  C    0.124983
     7  C   -0.286002
     8  O   -0.273847
     9  C    0.074900
    10  H    0.129191
    11  H    0.112108
    12  H    0.090252
    13  H    0.077850
    14  H    0.096851
    15  H    0.108149
    16  H    0.077850
    17  H    0.108614
    18  H    0.111865
    19  H    0.090252
 Sum of Mulliken charges =   0.00000

 Dipole moment (field-independent basis, Debye):
    X=              0.8176    Y=              0.0000    Z=              1.1780  Tot=              1.4339
 Quadrupole moment (field-independent basis, Debye-Ang):
   XX=            -47.7038   YY=            -58.3976   ZZ=            -51.5924
   XY=              0.0000   XZ=             -1.0116   YZ=              0.0000

  Exact polarizability:  88.204   0.000  66.797  -0.605   0.000  68.352
 Approx polarizability: 116.968   0.000 103.297  -0.035   0.000 102.408

                      1                      2                      3
                      A                      A                      A
 Frequencies --     84.1464               275.6350               304.6940
 Red. masses --      4.2255                 2.6636                 4.4994
 Frc consts  --      0.0176                 0.1192                 0.2461
 IR Inten    --      4.0508                 0.9451                 3.4356

                      4                      5                      6
                      A                      A                      A
 Frequencies --    345.0352               394.6694               433.0115
 Red. masses --      3.3409                 4.3888                 2.0355
 Frc consts  --      0.2343                 0.4028                 0.2249
 IR Inten    --      0.0478                 0.0450                 0.4703

                      7                      8                      9
                      A                      A                      A
 Frequencies --    451.8522               503.2770               705.2643
 Red. masses --      2.5899                 2.1480                 2.1836
 Frc consts  --      0.3115                 0.3206                 0.6399
 IR Inten    --      2.6173                 1.7567                 3.2310

                     10                     11                     12
                      A                      A                      A
 Frequencies --    756.5222               758.8611               764.6757
 Red. masses --      2.2944                 4.5355                 2.6374
 Frc consts  --      0.7737                 1.5388                 0.9086
 IR Inten    --      2.8165                18.3455                 0.4617

                     13                     14                     15
                      A                      A                      A
 Frequencies --    814.4666               862.2217               886.1403
 Red. masses --      1.5791                 2.3958                 3.5958
 Frc consts  --      0.6172                 1.0494                 1.6636
 IR Inten    --     25.0906                 0.3672                15.3298

                     16                     17                     18
                      A                      A                      A
 Frequencies --    910.3917               914.7747               942.4595
 Red. masses --      2.0014                 2.6173                 2.3044
 Frc consts  --      0.9773                 1.2904                 1.2060
 IR Inten    --      0.1808                19.0956                12.2507

                     19                     20                     21
                      A                      A                      A
 Frequencies --    987.8853              1021.0684              1052.0328
 Red. masses --      2.0619                 1.3910                 3.1670
 Frc consts  --      1.1856                 0.8544                 2.0652
 IR Inten    --      5.6021                 9.3071                15.2425

                     22                     23                     24
                      A                      A                      A
 Frequencies --   1070.6348              1075.6972              1086.9325
 Red. masses --      1.5469                 1.1810                 3.4739
 Frc consts  --      1.0447                 0.8052                 2.4181
 IR Inten    --      5.1500                 3.4764                33.4660

                     25                     26                     27
                      A                      A                      A
 Frequencies --   1138.1989              1147.2981              1163.4244
 Red. masses --      1.2609                 1.9459                 1.7032
 Frc consts  --      0.9625                 1.5091                 1.3583
 IR Inten    --      0.0321                27.2056                 0.1679

                     28                     29                     30
                      A                      A                      A
 Frequencies --   1165.0603              1176.3451              1225.3394
 Red. masses --      1.8226                 2.0720                 2.0294
 Frc consts  --      1.4576                 1.6893                 1.7953
 IR Inten    --      0.6938                59.4049                 1.8906

                     31                     32                     33
                      A                      A                      A
 Frequencies --   1250.5520              1274.7020              1284.3239
 Red. masses --      1.3543                 1.7158                 2.4112
 Frc consts  --      1.2478                 1.6426                 2.3433
 IR Inten    --      0.0057                17.9528               140.4208

                     34                     35                     36
                      A                      A                      A
 Frequencies --   1293.6754              1356.5784              1380.3579
 Red. masses --      1.7455                 1.1470                 1.2066
 Frc consts  --      1.7212                 1.2436                 1.3546
 IR Inten    --     45.8944                 0.6956                12.8969

                     37                     38                     39
                      A                      A                      A
 Frequencies --   1398.8549              1404.1481              1449.0259
 Red. masses --      1.3575                 1.4344                 1.1044
 Frc consts  --      1.5651                 1.6662                 1.3662
 IR Inten    --     12.2361                12.0909                 6.0167

                     40                     41                     42
                      A                      A                      A
 Frequencies --   1471.3270              1478.2133              3055.8622
 Red. masses --      1.3866                 1.1323                 1.0623
 Frc consts  --      1.7685                 1.4577                 5.8447
 IR Inten    --     19.6752                12.1832                14.6099

                     43                     44                     45
                      A                      A                      A
 Frequencies --   3068.8869              3075.7269              3085.8310
 Red. masses --      1.0685                 1.0874                 1.0800
 Frc consts  --      5.9288                 6.0609                 6.0592
 IR Inten    --     15.5847                75.7984                52.5495

                     46                     47                     48
                      A                      A                      A
 Frequencies --   3090.7058              3103.2050              3128.5972
 Red. masses --      1.0867                 1.0887                 1.1059
 Frc consts  --      6.1163                 6.1768                 6.3780
 IR Inten    --     22.4968                49.3250                20.8199

                     49                     50                     51
                      A                      A                      A
 Frequencies --   3133.5566              3138.9422              3233.9578
 Red. masses --      1.1048                 1.0554                 1.1171
 Frc consts  --      6.3918                 6.1270                 6.8837
 IR Inten    --     21.0511                 8.2968                 7.8796

 - Thermochemistry -
 -------------------
 Temperature   298.150 Kelvin.  Pressure   1.00000 Atm.
 Atom     1 has atomic number  6 and mass  12.00000

 Molecular mass:   126.06808 amu.
 Principal axes and moments of inertia in atomic units:
                           1         2         3
     Eigenvalues --   632.34063 964.056991219.76838
           X            0.99999   0.00000  -0.00358
           Y            0.00000   1.00000   0.00000
           Z            0.00358   0.00000   0.99999
 This molecule is an asymmetric top.
 Rotational symmetry number  1.
 Warning -- assumption of classical behavior for rotation
           may cause significant error
 Rotational temperatures (Kelvin)      0.13697     0.08984     0.07101
 Rotational constants (GHZ):           2.85406     1.87203     1.47958
 Zero-point vibrational energy     422132.5 (Joules/Mol)
                                  100.89209 (Kcal/Mol)
 Warning -- explicit consideration of   8 degrees of freedom as
           vibrations may cause significant error
 Vibrational temperatures:    121.07   396.58   438.39   496.43   567.84
          (Kelvin)            623.01   650.11   724.10  1014.72  1088.47
                             1091.83  1100.20  1171.83  1240.54  1274.96
                             1309.85  1316.16  1355.99  1421.34  1469.09
                             1513.64  1540.40  1547.69  1563.85  1637.61
                             1650.70  1673.91  1676.26  1692.50  1762.99
                             1799.26  1834.01  1847.85  1861.31  1951.81
                             1986.02  2012.64  2020.25  2084.82  2116.91
                             2126.82  4396.70  4415.44  4425.28  4439.82
                             4446.83  4464.81  4501.35  4508.48  4516.23
                             4652.94

 Zero-point correction=                           0.160782 (Hartree/Particle)
 Thermal correction to Energy=                    0.167812
 Thermal correction to Enthalpy=                  0.168756
 Thermal correction to Gibbs Free Energy=         0.129503
 Sum of electronic and zero-point Energies=           -422.976572
 Sum of electronic and thermal Energies=              -422.969542
 Sum of electronic and thermal Enthalpies=            -422.968598
 Sum of electronic and thermal Free Energies=         -423.007851

                     E (Thermal)             CV                S
                      KCal/Mol        Cal/Mol-Kelvin    Cal/Mol-Kelvin
 Total                  105.303             29.126             82.615
 Electronic               0.000              0.000              0.000
 Translational            0.889              2.981             40.409
 Rotational               0.889              2.981             28.099
 Vibrational            103.526             23.165             14.107
 Vibration     1          0.601              1.960              3.792
 Vibration     2          0.677              1.718              1.561
 Vibration     3          0.696              1.665              1.391
 Vibration     4          0.723              1.585              1.189
 Vibration     5          0.762              1.482              0.982
 Vibration     6          0.794              1.398              0.849
 Vibration     7          0.811              1.357              0.790
 Vibration     8          0.859              1.243              0.650

 Normal termination of Gaussian 09 at Mon Jan 27 12:07:12 2020.
