 Gaussian 09, Revision D.01,
 Gaussian 09:  ES64L-G09RevD.01 24-Apr-2013

 -----------------------------
 # b3lyp 6-31G(2df,p) opt Freq
 -----------------------------

 -----
 titel
 -----
 Symbolic Z-matrix:
 Charge =  0 Multiplicity = 1

 SCF Done:  E(RB3LYP) =  -423.152230101     A.U. after   14 cycles
 Optimization completed.
    -- Stationary point found.
 Normal termination of Gaussian 09 at Tue Jan 28 03:12:08 2020.

 ----------------------------------------------------------------------
 #N Geom=AllCheck Guess=TCheck SCRF=Check GenChk RB3LYP/6-31G(2df,p) Fr
 eq
 ----------------------------------------------------------------------

 Structure from the checkpoint file:  "/scratch/puck/g09_e1e6d4a6-191c-43f0-a173-4b230033132f/Gau-45096.chk"
 -----
 titel
 -----
 Charge =  0 Multiplicity = 1

                         Standard orientation:
 ---------------------------------------------------------------------
 Center     Atomic      Atomic             Coordinates (Angstroms)
 Number     Number       Type             X           Y           Z
 ---------------------------------------------------------------------
      1          6           0        2.492491   -1.145049    0.553707
      2          6           0        1.877919   -0.073083   -0.320904
      3          8           0        1.474305    1.130983    0.424199
      4          6           0        0.205360    1.195712   -0.312321
      5          6           0       -1.159874    1.129921    0.387644
      6          6           0       -1.843978   -0.093126   -0.298349
      7          8           0       -2.692030   -0.727045    0.649256
      8          6           0       -0.647169   -0.969004   -0.702084
      9          6           0        0.437446   -0.207472   -0.758318
     10          1           0        2.737690   -2.027986   -0.046108
     11          1           0        3.415909   -0.775582    1.010103
     12          1           0        1.799172   -1.435233    1.346798
     13          1           0        2.566832    0.216026   -1.127668
     14          1           0        0.265193    1.992598   -1.065137
     15          1           0       -1.018202    0.866623    1.440159
     16          1           0       -1.754102    2.045084    0.327897
     17          1           0       -2.437685    0.228753   -1.168787
     18          1           0       -3.282613   -1.321675    0.176867
     19          1           0       -0.723565   -2.047505   -0.778020
 ---------------------------------------------------------------------

 SCF Done:  E(RB3LYP) =  -423.152230101     A.U. after    1 cycles

 The electronic state is 1-A.
 Alpha  occ. eigenvalues --  -19.13861 -19.13137 -10.24285 -10.24092 -10.22581
 Alpha  occ. eigenvalues --  -10.18515 -10.18274 -10.18097 -10.17842  -1.03006
 Alpha  occ. eigenvalues --   -1.02002  -0.82706  -0.76056  -0.70713  -0.67613
 Alpha  occ. eigenvalues --   -0.61921  -0.57357  -0.53440  -0.51349  -0.48587
 Alpha  occ. eigenvalues --   -0.46837  -0.44834  -0.43504  -0.40385  -0.38656
 Alpha  occ. eigenvalues --   -0.37875  -0.36736  -0.35755  -0.33668  -0.32989
 Alpha  occ. eigenvalues --   -0.30701  -0.26964  -0.25098  -0.24168
 Alpha virt. eigenvalues --    0.00528   0.07375   0.08910   0.10826   0.11577
 Alpha virt. eigenvalues --    0.12954   0.14397   0.14687   0.16103   0.16940
 Alpha virt. eigenvalues --    0.17798   0.18729   0.19098   0.20301   0.22982

 Mulliken charges:
               1
     1  C   -0.400690
     2  C    0.082713
     3  O   -0.331006
     4  C    0.105134
     5  C   -0.264017
     6  C    0.095426
     7  O   -0.425209
     8  C   -0.253498
     9  C    0.167900
    10  H    0.119561
    11  H    0.129851
    12  H    0.129643
    13  H    0.081366
    14  H    0.077470
    15  H    0.132268
    16  H    0.097185
    17  H    0.073409
    18  H    0.284065
    19  H    0.098430
 Sum of Mulliken charges =   0.00000

 Dipole moment (field-independent basis, Debye):
    X=             -0.7460    Y=             -1.3793    Z=             -1.9355  Tot=              2.4910
 Quadrupole moment (field-independent basis, Debye-Ang):
   XX=            -49.1593   YY=            -51.2128   ZZ=            -55.1776
   XY=             -0.6995   XZ=              2.1628   YZ=             -0.4801

  Exact polarizability:  98.087   1.887  76.805  -0.004  -0.157  60.017
 Approx polarizability: 134.346  12.777 116.162  -1.244   1.722  95.195

                      1                      2                      3
                      A                      A                      A
 Frequencies --     91.8384               124.6929               204.7043
 Red. masses --      3.9374                 3.0209                 1.3448
 Frc consts  --      0.0196                 0.0277                 0.0332
 IR Inten    --      0.2682                 1.6216                 1.0091

                      4                      5                      6
                      A                      A                      A
 Frequencies --    222.3423               256.0906               322.3878
 Red. masses --      1.8471                 1.0963                 4.0618
 Frc consts  --      0.0538                 0.0424                 0.2487
 IR Inten    --      0.0116               106.5987                 1.1914

                      7                      8                      9
                      A                      A                      A
 Frequencies --    371.5612               403.3456               489.9317
 Red. masses --      3.3396                 2.8789                 4.2565
 Frc consts  --      0.2716                 0.2759                 0.6020
 IR Inten    --      6.7147                 2.4868                 3.9066

                     10                     11                     12
                      A                      A                      A
 Frequencies --    501.3349               592.6551               641.8233
 Red. masses --      2.7620                 2.8176                 3.3992
 Frc consts  --      0.4090                 0.5831                 0.8250
 IR Inten    --     13.7438                 4.4801                 5.5272

                     13                     14                     15
                      A                      A                      A
 Frequencies --    743.4178               821.4704               837.6886
 Red. masses --      2.7434                 1.9913                 2.5705
 Frc consts  --      0.8933                 0.7917                 1.0628
 IR Inten    --     17.1919                22.1193                34.3821

                     16                     17                     18
                      A                      A                      A
 Frequencies --    869.5919               875.0450               899.9733
 Red. masses --      3.3538                 2.3522                 3.4790
 Frc consts  --      1.4942                 1.0612                 1.6602
 IR Inten    --      6.4100                 1.0010                22.1146

                     19                     20                     21
                      A                      A                      A
 Frequencies --    988.6496              1012.3941              1015.5625
 Red. masses --      3.1886                 2.4526                 2.7178
 Frc consts  --      1.8363                 1.4811                 1.6515
 IR Inten    --     86.1628                13.0172                 7.8471

                     22                     23                     24
                      A                      A                      A
 Frequencies --   1050.7903              1060.6534              1086.0049
 Red. masses --      1.6845                 2.0071                 1.8313
 Frc consts  --      1.0959                 1.3303                 1.2725
 IR Inten    --      8.0386                15.5687                12.6746

                     25                     26                     27
                      A                      A                      A
 Frequencies --   1104.6441              1151.6240              1161.4149
 Red. masses --      2.6277                 1.9987                 1.4334
 Frc consts  --      1.8892                 1.5618                 1.1392
 IR Inten    --     55.3332                 7.9516                 4.5889

                     28                     29                     30
                      A                      A                      A
 Frequencies --   1223.9649              1242.2036              1267.9101
 Red. masses --      1.5465                 1.5256                 1.2058
 Frc consts  --      1.3650                 1.3870                 1.1421
 IR Inten    --     11.3899                 3.9232                53.4572

                     31                     32                     33
                      A                      A                      A
 Frequencies --   1272.8216              1306.5280              1329.5774
 Red. masses --      1.3179                 1.3787                 1.6241
 Frc consts  --      1.2579                 1.3867                 1.6916
 IR Inten    --      3.9057                34.5255                31.5196

                     34                     35                     36
                      A                      A                      A
 Frequencies --   1345.3482              1387.6010              1402.8848
 Red. masses --      1.4214                 1.3487                 1.4233
 Frc consts  --      1.5158                 1.5300                 1.6504
 IR Inten    --     14.3561                 1.1960                13.7373

                     37                     38                     39
                      A                      A                      A
 Frequencies --   1420.8459              1477.2390              1481.0618
 Red. masses --      1.4099                 1.0957                 1.0576
 Frc consts  --      1.6770                 1.4087                 1.3669
 IR Inten    --     13.1224                 3.0573                 3.7528

                     40                     41                     42
                      A                      A                      A
 Frequencies --   1492.8751              1740.0952              2964.7020
 Red. masses --      1.0482                 8.9447                 1.0830
 Frc consts  --      1.3763                15.9574                 5.6082
 IR Inten    --      2.9490                 4.9088                67.8451

                     43                     44                     45
                      A                      A                      A
 Frequencies --   2996.0665              3014.2269              3039.8498
 Red. masses --      1.0825                 1.0843                 1.0351
 Frc consts  --      5.7253                 5.8044                 5.6358
 IR Inten    --     48.8797                65.0728                15.5724

                     46                     47                     48
                      A                      A                      A
 Frequencies --   3063.7321              3110.2206              3120.6039
 Red. masses --      1.0586                 1.1006                 1.1065
 Frc consts  --      5.8546                 6.2730                 6.3485
 IR Inten    --     19.6416                15.0978                29.3470

                     49                     50                     51
                      A                      A                      A
 Frequencies --   3129.5074              3199.4209              3824.7945
 Red. masses --      1.1025                 1.0955                 1.0664
 Frc consts  --      6.3617                 6.6073                 9.1912
 IR Inten    --     19.5063                 7.9344                28.9986

 - Thermochemistry -
 -------------------
 Temperature   298.150 Kelvin.  Pressure   1.00000 Atm.
 Atom     1 has atomic number  6 and mass  12.00000

 Molecular mass:   126.06808 amu.
 Principal axes and moments of inertia in atomic units:
                           1         2         3
     Eigenvalues --   541.011981514.969831764.57790
           X            0.99943  -0.03208   0.01048
           Y            0.03238   0.99905  -0.02933
           Z           -0.00953   0.02965   0.99951
 This molecule is an asymmetric top.
 Rotational symmetry number  1.
 Warning -- assumption of classical behavior for rotation
           may cause significant error
 Rotational temperatures (Kelvin)      0.16010     0.05717     0.04908
 Rotational constants (GHZ):           3.33586     1.19127     1.02276
 Zero-point vibrational energy     417231.8 (Joules/Mol)
                                   99.72080 (Kcal/Mol)
 Warning -- explicit consideration of  11 degrees of freedom as
           vibrations may cause significant error
 Vibrational temperatures:    132.13   179.41   294.52   319.90   368.46
          (Kelvin)            463.84   534.59   580.32   704.90   721.31
                              852.70   923.44  1069.61  1181.91  1205.25
                             1251.15  1258.99  1294.86  1422.44  1456.61
                             1461.17  1511.85  1526.04  1562.52  1589.33
                             1656.93  1671.01  1761.01  1787.25  1824.24
                             1831.30  1879.80  1912.96  1935.65  1996.45
                             2018.44  2044.28  2125.41  2130.91  2147.91
                             2503.61  4265.54  4310.67  4336.79  4373.66
                             4408.02  4474.91  4489.85  4502.66  4603.25
                             5503.02

 Zero-point correction=                           0.158915 (Hartree/Particle)
 Thermal correction to Energy=                    0.167332
 Thermal correction to Enthalpy=                  0.168277
 Thermal correction to Gibbs Free Energy=         0.125955
 Sum of electronic and zero-point Energies=           -422.993315
 Sum of electronic and thermal Energies=              -422.984898
 Sum of electronic and thermal Enthalpies=            -422.983954
 Sum of electronic and thermal Free Energies=         -423.026275

                     E (Thermal)             CV                S
                      KCal/Mol        Cal/Mol-Kelvin    Cal/Mol-Kelvin
 Total                  105.003             32.385             89.072
 Electronic               0.000              0.000              0.000
 Translational            0.889              2.981             40.409
 Rotational               0.889              2.981             28.760
 Vibrational            103.225             26.423             19.903
 Vibration     1          0.602              1.955              3.621
 Vibration     2          0.610              1.928              3.026
 Vibration     3          0.640              1.833              2.090
 Vibration     4          0.648              1.807              1.940
 Vibration     5          0.666              1.752              1.688
 Vibration     6          0.707              1.631              1.298
 Vibration     7          0.743              1.531              1.073
 Vibration     8          0.769              1.463              0.950
 Vibration     9          0.846              1.272              0.684
 Vibration    10          0.857              1.247              0.655
 Vibration    11          0.950              1.047              0.462

 Optimization completed.
    -- Stationary point found.
 Normal termination of Gaussian 09 at Tue Jan 28 05:12:33 2020.
