 Gaussian 09, Revision D.01,
 Gaussian 09:  ES64L-G09RevD.01 24-Apr-2013

 -----------------------------
 # b3lyp 6-31G(2df,p) opt Freq
 -----------------------------

 -----
 titel
 -----
 Symbolic Z-matrix:
 Charge =  0 Multiplicity = 1

 SCF Done:  E(RB3LYP) =  -423.174805822     A.U. after   13 cycles
 Optimization completed.
    -- Stationary point found.
 Normal termination of Gaussian 09 at Mon Jan 27 12:45:17 2020.

 ----------------------------------------------------------------------
 #N Geom=AllCheck Guess=TCheck SCRF=Check GenChk RB3LYP/6-31G(2df,p) Fr
 eq
 ----------------------------------------------------------------------

 Structure from the checkpoint file:  "/scratch/puck/g09_de51e97c-d659-40e5-acfe-ccc86553cc8a/Gau-156424.chk"
 -----
 titel
 -----
 Charge =  0 Multiplicity = 1

                         Standard orientation:
 ---------------------------------------------------------------------
 Center     Atomic      Atomic             Coordinates (Angstroms)
 Number     Number       Type             X           Y           Z
 ---------------------------------------------------------------------
      1          6           0       -1.272192   -1.149343   -0.434793
      2          8           0       -1.390754    0.147273   -1.028429
      3          6           0       -1.140444    1.110812   -0.042186
      4          6           0        0.289937    1.435527    0.319699
      5          6           0        1.512055    0.928690   -0.424948
      6          8           0        1.507684   -0.460158   -0.710543
      7          6           0        1.132920   -1.260812    0.393502
      8          6           0       -0.326415   -0.999340    0.780391
      9          6           0       -0.526594    0.473019    1.169497
     10          1           0       -2.263633   -1.503562   -0.115726
     11          1           0       -0.883993   -1.830503   -1.197382
     12          1           0       -1.897352    1.887068    0.021434
     13          1           0        0.434399    2.427860    0.740970
     14          1           0        1.616529    1.428871   -1.393108
     15          1           0        2.403019    1.175944    0.178767
     16          1           0        1.274931   -2.297779    0.071789
     17          1           0        1.794341   -1.077545    1.257799
     18          1           0       -0.615362   -1.666187    1.597958
     19          1           0       -0.813919    0.727594    2.182310
 ---------------------------------------------------------------------

 SCF Done:  E(RB3LYP) =  -423.174805822     A.U. after    1 cycles

 The electronic state is 1-A.
 Alpha  occ. eigenvalues --  -19.13626 -19.13422 -10.22961 -10.22810 -10.22574
 Alpha  occ. eigenvalues --  -10.22355 -10.19351 -10.19162 -10.19109  -1.04232
 Alpha  occ. eigenvalues --   -1.02485  -0.85114  -0.78427  -0.71013  -0.65350
 Alpha  occ. eigenvalues --   -0.62501  -0.57670  -0.53922  -0.51122  -0.48791
 Alpha  occ. eigenvalues --   -0.47683  -0.45769  -0.44052  -0.42722  -0.40376
 Alpha  occ. eigenvalues --   -0.39571  -0.37901  -0.36022  -0.33413  -0.30641
 Alpha  occ. eigenvalues --   -0.30372  -0.27644  -0.25773  -0.22234
 Alpha virt. eigenvalues --    0.07817   0.10232   0.10965   0.12148   0.13182
 Alpha virt. eigenvalues --    0.13753   0.15161   0.15977   0.16689   0.17596
 Alpha virt. eigenvalues --    0.18167   0.18341   0.19392   0.19602   0.21684

 Mulliken charges:
               1
     1  C   -0.073232
     2  O   -0.255213
     3  C    0.094759
     4  C   -0.090364
     5  C   -0.092873
     6  O   -0.239603
     7  C   -0.090392
     8  C   -0.056701
     9  C   -0.134470
    10  H    0.089209
    11  H    0.113788
    12  H    0.092976
    13  H    0.087669
    14  H    0.116355
    15  H    0.086846
    16  H    0.104311
    17  H    0.083908
    18  H    0.075935
    19  H    0.087093
 Sum of Mulliken charges =   0.00000

 Dipole moment (field-independent basis, Debye):
    X=             -0.0578    Y=              0.0979    Z=              2.3728  Tot=              2.3755
 Quadrupole moment (field-independent basis, Debye-Ang):
   XX=            -54.7127   YY=            -48.1164   ZZ=            -54.9499
   XY=              1.5345   XZ=             -0.8403   YZ=             -0.2193

  Exact polarizability:  74.669   2.927  79.882  -0.013  -0.515  65.551
 Approx polarizability: 103.483   3.725 112.730   0.987  -1.537 104.373

                      1                      2                      3
                      A                      A                      A
 Frequencies --    142.8812               193.5103               256.8932
 Red. masses --      2.5333                 4.2376                 3.1084
 Frc consts  --      0.0305                 0.0935                 0.1209
 IR Inten    --      0.7548                 2.5588                 6.9797

                      4                      5                      6
                      A                      A                      A
 Frequencies --    373.5170               435.0678               461.4623
 Red. masses --      2.0795                 3.2848                 3.7844
 Frc consts  --      0.1709                 0.3663                 0.4748
 IR Inten    --      1.4919                 0.8828                 1.0144

                      7                      8                      9
                      A                      A                      A
 Frequencies --    552.1291               702.1234               710.1186
 Red. masses --      3.7389                 4.3800                 5.1379
 Frc consts  --      0.6715                 1.2722                 1.5265
 IR Inten    --      7.3099                 1.2997                 2.4644

                     10                     11                     12
                      A                      A                      A
 Frequencies --    755.7812               769.4804               808.0072
 Red. masses --      2.5331                 2.3311                 3.1496
 Frc consts  --      0.8525                 0.8132                 1.2115
 IR Inten    --     11.9569                 2.9136                10.5776

                     13                     14                     15
                      A                      A                      A
 Frequencies --    842.3871               884.4832               924.2529
 Red. masses --      2.4720                 2.4415                 3.4587
 Frc consts  --      1.0335                 1.1253                 1.7408
 IR Inten    --      3.7453                12.2216                 4.8280

                     16                     17                     18
                      A                      A                      A
 Frequencies --    956.7760               978.6716              1004.0750
 Red. masses --      2.1306                 1.5455                 2.4125
 Frc consts  --      1.1491                 0.8722                 1.4330
 IR Inten    --      2.4866                 3.7908                25.7646

                     19                     20                     21
                      A                      A                      A
 Frequencies --   1017.5569              1062.2510              1067.2208
 Red. masses --      2.2398                 2.0524                 1.9366
 Frc consts  --      1.3664                 1.3645                 1.2996
 IR Inten    --     15.1686                 2.3439                 1.7151

                     22                     23                     24
                      A                      A                      A
 Frequencies --   1079.6254              1109.6830              1116.8521
 Red. masses --      1.8461                 1.5724                 1.7919
 Frc consts  --      1.2678                 1.1408                 1.3169
 IR Inten    --      0.8399                13.6755                13.5367

                     25                     26                     27
                      A                      A                      A
 Frequencies --   1122.8774              1160.7252              1196.9135
 Red. masses --      2.0986                 3.6373                 1.7424
 Frc consts  --      1.5590                 2.8873                 1.4707
 IR Inten    --      3.3605               130.3087                 8.7072

                     28                     29                     30
                      A                      A                      A
 Frequencies --   1230.5878              1244.4047              1288.1552
 Red. masses --      1.1274                 1.4600                 1.3156
 Frc consts  --      1.0059                 1.3321                 1.2862
 IR Inten    --      1.2062                34.3056                11.9058

                     31                     32                     33
                      A                      A                      A
 Frequencies --   1303.5645              1325.0039              1331.6263
 Red. masses --      1.3372                 1.6865                 1.2900
 Frc consts  --      1.3388                 1.7445                 1.3478
 IR Inten    --      0.7122                 0.6297                 0.2236

                     34                     35                     36
                      A                      A                      A
 Frequencies --   1345.0350              1381.6952              1399.3543
 Red. masses --      1.3181                 1.4413                 1.3833
 Frc consts  --      1.4050                 1.6212                 1.5960
 IR Inten    --      5.7085                 3.9681                 8.1784

                     37                     38                     39
                      A                      A                      A
 Frequencies --   1411.9523              1446.8704              1491.4325
 Red. masses --      1.7551                 1.6955                 1.0813
 Frc consts  --      2.0615                 2.0913                 1.4171
 IR Inten    --     18.4429                 5.5025                 0.3862

                     40                     41                     42
                      A                      A                      A
 Frequencies --   1500.3975              1509.5962              2947.7908
 Red. masses --      1.1046                 1.1009                 1.0718
 Frc consts  --      1.4651                 1.4781                 5.4875
 IR Inten    --      2.7320                 0.7248                64.8764

                     43                     44                     45
                      A                      A                      A
 Frequencies --   2960.1051              2990.7743              3065.9379
 Red. masses --      1.0700                 1.0700                 1.0896
 Frc consts  --      5.5241                 5.6392                 6.0344
 IR Inten    --     86.2876                73.5378                 8.9878

                     46                     47                     48
                      A                      A                      A
 Frequencies --   3070.5695              3073.4620              3088.7497
 Red. masses --      1.0891                 1.0898                 1.0947
 Frc consts  --      6.0502                 6.0655                 6.1531
 IR Inten    --     53.9369                29.8638                34.1502

                     49                     50                     51
                      A                      A                      A
 Frequencies --   3132.2317              3148.7471              3178.9238
 Red. masses --      1.0869                 1.0903                 1.0931
 Frc consts  --      6.2825                 6.3689                 6.5084
 IR Inten    --     12.0734                33.3974                18.5908

 - Thermochemistry -
 -------------------
 Temperature   298.150 Kelvin.  Pressure   1.00000 Atm.
 Atom     1 has atomic number  6 and mass  12.00000

 Molecular mass:   126.06808 amu.
 Principal axes and moments of inertia in atomic units:
                           1         2         3
     Eigenvalues --   716.27712 872.393951094.88439
           X            0.99735   0.07257  -0.00575
           Y           -0.07259   0.99736  -0.00328
           Z            0.00550   0.00369   0.99998
 This molecule is an asymmetric top.
 Rotational symmetry number  1.
 Warning -- assumption of classical behavior for rotation
           may cause significant error
 Rotational temperatures (Kelvin)      0.12092     0.09928     0.07911
 Rotational constants (GHZ):           2.51961     2.06872     1.64834
 Zero-point vibrational energy     427977.7 (Joules/Mol)
                                  102.28913 (Kcal/Mol)
 Warning -- explicit consideration of   7 degrees of freedom as
           vibrations may cause significant error
 Vibrational temperatures:    205.57   278.42   369.61   537.41   625.96
          (Kelvin)            663.94   794.39  1010.20  1021.70  1087.40
                             1107.11  1162.54  1212.01  1272.57  1329.79
                             1376.59  1408.09  1444.64  1464.04  1528.34
                             1535.49  1553.34  1596.58  1606.90  1615.57
                             1670.02  1722.09  1770.54  1790.42  1853.37
                             1875.54  1906.38  1915.91  1935.20  1987.95
                             2013.36  2031.48  2081.72  2145.84  2158.73
                             2171.97  4241.21  4258.93  4303.05  4411.20
                             4417.86  4422.02  4444.02  4506.58  4530.34
                             4573.76

 Zero-point correction=                           0.163008 (Hartree/Particle)
 Thermal correction to Energy=                    0.169719
 Thermal correction to Enthalpy=                  0.170663
 Thermal correction to Gibbs Free Energy=         0.132093
 Sum of electronic and zero-point Energies=           -423.011798
 Sum of electronic and thermal Energies=              -423.005087
 Sum of electronic and thermal Enthalpies=            -423.004143
 Sum of electronic and thermal Free Energies=         -423.042712

                     E (Thermal)             CV                S
                      KCal/Mol        Cal/Mol-Kelvin    Cal/Mol-Kelvin
 Total                  106.500             27.552             81.177
 Electronic               0.000              0.000              0.000
 Translational            0.889              2.981             40.409
 Rotational               0.889              2.981             28.016
 Vibrational            104.723             21.590             12.752
 Vibration     1          0.616              1.910              2.765
 Vibration     2          0.635              1.849              2.194
 Vibration     3          0.666              1.751              1.683
 Vibration     4          0.745              1.526              1.065
 Vibration     5          0.796              1.394              0.842
 Vibration     6          0.819              1.336              0.762
 Vibration     7          0.907              1.135              0.540

 Normal termination of Gaussian 09 at Mon Jan 27 13:38:10 2020.
