 Gaussian 09, Revision D.01,
 Gaussian 09:  ES64L-G09RevD.01 24-Apr-2013

 -----------------------------
 # b3lyp 6-31G(2df,p) opt Freq
 -----------------------------

 -----
 titel
 -----
 Symbolic Z-matrix:
 Charge =  0 Multiplicity = 1

 SCF Done:  E(RB3LYP) =  -423.106503271     A.U. after   13 cycles
 Optimization completed.
    -- Stationary point found.
 Normal termination of Gaussian 09 at Tue Jan 28 08:14:05 2020.

 ----------------------------------------------------------------------
 #N Geom=AllCheck Guess=TCheck SCRF=Check GenChk RB3LYP/6-31G(2df,p) Fr
 eq
 ----------------------------------------------------------------------

 Structure from the checkpoint file:  "/scratch/puck/g09_edf14581-0ad5-45a2-94c2-d92b9f0c3939/Gau-81162.chk"
 -----
 titel
 -----
 Charge =  0 Multiplicity = 1

                         Standard orientation:
 ---------------------------------------------------------------------
 Center     Atomic      Atomic             Coordinates (Angstroms)
 Number     Number       Type             X           Y           Z
 ---------------------------------------------------------------------
      1          8           0       -2.465786   -0.939015   -0.238587
      2          6           0       -1.300149   -0.373675    0.334767
      3          6           0       -1.359580    1.179242    0.066484
      4          8           0       -0.025259    1.677852   -0.198998
      5          6           0        0.795728    0.562353   -0.113929
      6          6           0        1.381413   -0.057548    1.203313
      7          6           0        1.443229   -1.157247    0.116499
      8          6           0        2.005832   -0.051313   -0.866759
      9          6           0        0.014867   -0.716281   -0.375336
     10          1           0       -2.479431   -1.875936   -0.020407
     11          1           0       -1.275553   -0.564334    1.414176
     12          1           0       -1.989974    1.354826   -0.812066
     13          1           0       -1.777493    1.724103    0.918046
     14          1           0        2.339436    0.341456    1.544395
     15          1           0        0.700722   -0.215957    2.040547
     16          1           0        1.836386   -2.165962    0.224603
     17          1           0        3.000607    0.334989   -0.631514
     18          1           0        1.875451   -0.237355   -1.935306
     19          1           0       -0.189831   -0.919709   -1.432027
 ---------------------------------------------------------------------

 SCF Done:  E(RB3LYP) =  -423.106503271     A.U. after    1 cycles

 The electronic state is 1-A.
 Alpha  occ. eigenvalues --  -19.14225 -19.14193 -10.24190 -10.24040 -10.22769
 Alpha  occ. eigenvalues --  -10.21302 -10.19529 -10.18455 -10.18195  -1.04339
 Alpha  occ. eigenvalues --   -1.02126  -0.90929  -0.75279  -0.67753  -0.67130
 Alpha  occ. eigenvalues --   -0.62324  -0.58068  -0.53842  -0.52669  -0.49185
 Alpha  occ. eigenvalues --   -0.47105  -0.45686  -0.43337  -0.42376  -0.38054
 Alpha  occ. eigenvalues --   -0.36448  -0.35232  -0.34453  -0.34177  -0.32339
 Alpha  occ. eigenvalues --   -0.30969  -0.29436  -0.25776  -0.24285
 Alpha virt. eigenvalues --    0.06504   0.08708   0.10722   0.11960   0.12389
 Alpha virt. eigenvalues --    0.14013   0.14130   0.14874   0.15903   0.16782
 Alpha virt. eigenvalues --    0.17734   0.19010   0.19670   0.21905   0.22227

 Mulliken charges:
               1
     1  O   -0.435209
     2  C    0.011451
     3  C   -0.092329
     4  O   -0.323201
     5  C    0.436519
     6  C   -0.289714
     7  C   -0.113244
     8  C   -0.291331
     9  C   -0.041575
    10  H    0.284699
    11  H    0.077944
    12  H    0.121453
    13  H    0.111263
    14  H    0.092441
    15  H    0.094481
    16  H    0.082312
    17  H    0.097586
    18  H    0.100510
    19  H    0.075944
 Sum of Mulliken charges =   0.00000

 Dipole moment (field-independent basis, Debye):
    X=              0.3806    Y=             -2.1024    Z=              0.9167  Tot=              2.3249
 Quadrupole moment (field-independent basis, Debye-Ang):
   XX=            -53.8732   YY=            -53.0845   ZZ=            -52.5304
   XY=              0.7244   XZ=             -2.0074   YZ=              0.1180

  Exact polarizability:  87.818  -2.325  68.339  -0.269   1.285  69.214
 Approx polarizability: 118.874  -1.884 106.340   1.037   0.965 106.141

                      1                      2                      3
                      A                      A                      A
 Frequencies --     76.0151               218.4864               263.1172
 Red. masses --      2.4797                 3.3055                 1.2968
 Frc consts  --      0.0084                 0.0930                 0.0529
 IR Inten    --      0.7416                 1.0224                71.5627

                      4                      5                      6
                      A                      A                      A
 Frequencies --    312.6233               359.6918               447.0223
 Red. masses --      2.7575                 3.9310                 3.5492
 Frc consts  --      0.1588                 0.2997                 0.4179
 IR Inten    --     32.2875                10.4820                 4.5537

                      7                      8                      9
                      A                      A                      A
 Frequencies --    477.6405               539.2525               581.0673
 Red. masses --      3.5140                 2.8872                 2.6899
 Frc consts  --      0.4723                 0.4947                 0.5351
 IR Inten    --      5.7606                 0.7660                 2.2331

                     10                     11                     12
                      A                      A                      A
 Frequencies --    595.4504               717.7877               760.6437
 Red. masses --      2.9479                 4.6732                 3.0699
 Frc consts  --      0.6158                 1.4186                 1.0465
 IR Inten    --      2.0751                 9.5339                 2.0965

                     13                     14                     15
                      A                      A                      A
 Frequencies --    813.5650               879.8382               896.7276
 Red. masses --      2.8063                 2.6300                 3.0299
 Frc consts  --      1.0944                 1.1995                 1.4355
 IR Inten    --      2.3104                 3.3078                 1.0617

                     16                     17                     18
                      A                      A                      A
 Frequencies --    947.8758               949.2900               966.9972
 Red. masses --      1.5397                 2.3740                 1.8019
 Frc consts  --      0.8151                 1.2604                 0.9927
 IR Inten    --      3.9067                12.6747                 9.6444

                     19                     20                     21
                      A                      A                      A
 Frequencies --    990.0261               999.2154              1008.7759
 Red. masses --      1.6958                 2.6288                 2.0533
 Frc consts  --      0.9793                 1.5464                 1.2311
 IR Inten    --     33.0793                61.7982                52.0633

                     22                     23                     24
                      A                      A                      A
 Frequencies --   1052.8162              1094.8599              1105.2752
 Red. masses --      1.4992                 1.7712                 2.2302
 Frc consts  --      0.9791                 1.2510                 1.6052
 IR Inten    --      7.0587                 2.5629                 4.1099

                     25                     26                     27
                      A                      A                      A
 Frequencies --   1123.4290              1126.3362              1160.2494
 Red. masses --      1.8388                 2.4301                 1.6507
 Frc consts  --      1.3673                 1.8164                 1.3092
 IR Inten    --     10.1712                63.2786                 0.9588

                     28                     29                     30
                      A                      A                      A
 Frequencies --   1164.2234              1193.1749              1205.5202
 Red. masses --      1.5484                 1.5221                 1.2762
 Frc consts  --      1.2365                 1.2767                 1.0927
 IR Inten    --      2.2949                 7.0041                 0.5637

                     31                     32                     33
                      A                      A                      A
 Frequencies --   1215.8290              1239.6165              1254.0873
 Red. masses --      1.7665                 2.2398                 1.2415
 Frc consts  --      1.5386                 2.0278                 1.1504
 IR Inten    --      4.9138                12.5835                36.9819

                     34                     35                     36
                      A                      A                      A
 Frequencies --   1262.8510              1298.7318              1367.8945
 Red. masses --      2.1410                 1.2994                 1.4218
 Frc consts  --      2.0117                 1.2914                 1.5674
 IR Inten    --    102.6751                22.8504                11.9477

                     37                     38                     39
                      A                      A                      A
 Frequencies --   1375.9420              1433.6160              1499.7830
 Red. masses --      1.5628                 1.3655                 1.1041
 Frc consts  --      1.7433                 1.6535                 1.4632
 IR Inten    --     49.9755                 5.1670                 0.9514

                     40                     41                     42
                      A                      A                      A
 Frequencies --   1509.9878              1542.7413              3020.9782
 Red. masses --      1.0920                 1.1809                 1.0838
 Frc consts  --      1.4670                 1.6559                 5.8279
 IR Inten    --      1.4531                10.0644                16.9660

                     43                     44                     45
                      A                      A                      A
 Frequencies --   3043.0397              3052.9540              3059.0299
 Red. masses --      1.0576                 1.0803                 1.0573
 Frc consts  --      5.7701                 5.9327                 5.8293
 IR Inten    --     45.7642                31.0545                53.6415

                     46                     47                     48
                      A                      A                      A
 Frequencies --   3070.4863              3094.9447              3130.5290
 Red. masses --      1.0569                 1.1094                 1.1121
 Frc consts  --      5.8709                 6.2607                 6.4215
 IR Inten    --     28.6271                34.7193                30.8906

                     49                     50                     51
                      A                      A                      A
 Frequencies --   3136.0504              3137.4922              3825.0522
 Red. masses --      1.1006                 1.1009                 1.0663
 Frc consts  --      6.3773                 6.3850                 9.1916
 IR Inten    --     53.7741                30.2505                26.5616

 - Thermochemistry -
 -------------------
 Temperature   298.150 Kelvin.  Pressure   1.00000 Atm.
 Atom     1 has atomic number  8 and mass  15.99491

 Molecular mass:   126.06808 amu.
 Principal axes and moments of inertia in atomic units:
                           1         2         3
     Eigenvalues --   592.320401172.532051423.94585
           X            0.99981  -0.01826  -0.00673
           Y            0.01834   0.99975   0.01246
           Z            0.00650  -0.01258   0.99990
 This molecule is an asymmetric top.
 Rotational symmetry number  1.
 Warning -- assumption of classical behavior for rotation
           may cause significant error
 Rotational temperatures (Kelvin)      0.14623     0.07387     0.06083
 Rotational constants (GHZ):           3.04690     1.53918     1.26742
 Zero-point vibrational energy     422273.6 (Joules/Mol)
                                  100.92581 (Kcal/Mol)
 Warning -- explicit consideration of  10 degrees of freedom as
           vibrations may cause significant error
 Vibrational temperatures:    109.37   314.35   378.57   449.79   517.52
          (Kelvin)            643.16   687.22   775.86   836.03   856.72
                             1032.74  1094.40  1170.54  1265.89  1290.19
                             1363.78  1365.81  1391.29  1424.42  1437.65
                             1451.40  1514.77  1575.26  1590.24  1616.36
                             1620.54  1669.34  1675.06  1716.71  1734.47
                             1749.30  1783.53  1804.35  1816.96  1868.58
                             1968.09  1979.67  2062.65  2157.85  2172.53
                             2219.66  4346.51  4378.25  4392.51  4401.26
                             4417.74  4452.93  4504.13  4512.07  4514.15
                             5503.39

 Zero-point correction=                           0.160836 (Hartree/Particle)
 Thermal correction to Energy=                    0.168172
 Thermal correction to Enthalpy=                  0.169116
 Thermal correction to Gibbs Free Energy=         0.129072
 Sum of electronic and zero-point Energies=           -422.945668
 Sum of electronic and thermal Energies=              -422.938332
 Sum of electronic and thermal Enthalpies=            -422.937388
 Sum of electronic and thermal Free Energies=         -422.977431

                     E (Thermal)             CV                S
                      KCal/Mol        Cal/Mol-Kelvin    Cal/Mol-Kelvin
 Total                  105.529             29.904             84.279
 Electronic               0.000              0.000              0.000
 Translational            0.889              2.981             40.409
 Rotational               0.889              2.981             28.383
 Vibrational            103.752             23.942             15.488
 Vibration     1          0.599              1.965              3.991
 Vibration     2          0.646              1.813              1.972
 Vibration     3          0.670              1.740              1.641
 Vibration     4          0.701              1.650              1.348
 Vibration     5          0.734              1.555              1.123
 Vibration     6          0.806              1.367              0.805
 Vibration     7          0.834              1.300              0.716
 Vibration     8          0.894              1.163              0.567
 Vibration     9          0.938              1.072              0.483
 Vibration    10          0.953              1.041              0.458

 Optimization completed.
    -- Stationary point found.
 Normal termination of Gaussian 09 at Tue Jan 28 09:04:49 2020.
