 Gaussian 09, Revision D.01,
 Gaussian 09:  ES64L-G09RevD.01 24-Apr-2013

 -----------------------------
 # b3lyp 6-31G(2df,p) opt Freq
 -----------------------------

 -----
 titel
 -----
 Symbolic Z-matrix:
 Charge =  0 Multiplicity = 1

 SCF Done:  E(RB3LYP) =  -423.191449085     A.U. after   14 cycles
 Optimization completed.
    -- Stationary point found.
 Normal termination of Gaussian 09 at Mon Jan 27 13:10:22 2020.

 ----------------------------------------------------------------------
 #N Geom=AllCheck Guess=TCheck SCRF=Check GenChk RB3LYP/6-31G(2df,p) Fr
 eq
 ----------------------------------------------------------------------

 Structure from the checkpoint file:  "/scratch/puck/g09_89a50407-3c43-419d-a6c4-b9d968e5c42c/Gau-156097.chk"
 -----
 titel
 -----
 Charge =  0 Multiplicity = 1

                         Standard orientation:
 ---------------------------------------------------------------------
 Center     Atomic      Atomic             Coordinates (Angstroms)
 Number     Number       Type             X           Y           Z
 ---------------------------------------------------------------------
      1          8           0        2.419913    0.467253   -0.697976
      2          6           0        1.494611    0.160829    0.018087
      3          6           0        0.637734    1.212722    0.713080
      4          6           0       -0.535097    1.722287   -0.183208
      5          6           0       -1.862497    1.022747    0.004511
      6          6           0       -2.117036   -0.277917   -0.142457
      7          6           0       -1.092441   -1.320262   -0.513423
      8          8           0       -0.184530   -1.564962    0.570356
      9          6           0        1.163538   -1.316829    0.261729
     10          1           0        0.239410    0.829522    1.655562
     11          1           0        1.307552    2.052108    0.917936
     12          1           0       -0.676511    2.784994    0.029506
     13          1           0       -0.218039    1.673840   -1.233779
     14          1           0       -2.688171    1.666566    0.300102
     15          1           0       -3.127045   -0.634908    0.039836
     16          1           0       -1.584084   -2.268812   -0.758272
     17          1           0       -0.532408   -1.007953   -1.406256
     18          1           0        1.747029   -1.643257    1.132815
     19          1           0        1.516335   -1.891893   -0.606402
 ---------------------------------------------------------------------

 SCF Done:  E(RB3LYP) =  -423.191449085     A.U. after    1 cycles

 The electronic state is 1-A.
 Alpha  occ. eigenvalues --  -19.14907 -19.13162 -10.26781 -10.23841 -10.23671
 Alpha  occ. eigenvalues --  -10.20142 -10.19303 -10.19281 -10.18631  -1.04757
 Alpha  occ. eigenvalues --   -1.03422  -0.81451  -0.77819  -0.71303  -0.69193
 Alpha  occ. eigenvalues --   -0.63136  -0.55137  -0.52759  -0.50677  -0.49102
 Alpha  occ. eigenvalues --   -0.48257  -0.46112  -0.43842  -0.42756  -0.40646
 Alpha  occ. eigenvalues --   -0.39347  -0.37718  -0.37095  -0.35299  -0.33219
 Alpha  occ. eigenvalues --   -0.32867  -0.28459  -0.25671  -0.23375
 Alpha virt. eigenvalues --   -0.02826   0.00531   0.08278   0.09813   0.12251
 Alpha virt. eigenvalues --    0.12810   0.14250   0.14951   0.15987   0.16632
 Alpha virt. eigenvalues --    0.17381   0.18891   0.20154   0.20934   0.21681

 Mulliken charges:
               1
     1  O   -0.302181
     2  C    0.334822
     3  C   -0.271888
     4  C   -0.266366
     5  C   -0.037242
     6  C   -0.054146
     7  C   -0.133758
     8  O   -0.239336
     9  C   -0.175795
    10  H    0.121658
    11  H    0.122914
    12  H    0.113332
    13  H    0.129000
    14  H    0.095174
    15  H    0.093648
    16  H    0.109183
    17  H    0.111162
    18  H    0.131945
    19  H    0.117875
 Sum of Mulliken charges =   0.00000

 Dipole moment (field-independent basis, Debye):
    X=             -1.8534    Y=              0.1492    Z=              0.4378  Tot=              1.9102
 Quadrupole moment (field-independent basis, Debye-Ang):
   XX=            -57.3895   YY=            -50.8810   ZZ=            -54.1046
   XY=             -2.6167   XZ=              4.3424   YZ=              2.9668

  Exact polarizability:  85.973   0.739  86.181  -1.972   2.984  58.171
 Approx polarizability: 118.736   5.922 127.100  -8.306   1.377  95.170

                      1                      2                      3
                      A                      A                      A
 Frequencies --     33.1200               107.0579               170.9375
 Red. masses --      4.0310                 2.1574                 3.2951
 Frc consts  --      0.0026                 0.0146                 0.0567
 IR Inten    --      4.3210                 3.1119                 0.6890

                      4                      5                      6
                      A                      A                      A
 Frequencies --    213.0236               226.6530               366.1980
 Red. masses --      4.2227                 3.2342                 1.8305
 Frc consts  --      0.1129                 0.0979                 0.1446
 IR Inten    --      6.3089                 1.0470                 1.9749

                      7                      8                      9
                      A                      A                      A
 Frequencies --    408.1144               470.1821               482.3236
 Red. masses --      2.7907                 2.6304                 4.3592
 Frc consts  --      0.2739                 0.3426                 0.5975
 IR Inten    --      5.5710                 0.7193                 6.6248

                     10                     11                     12
                      A                      A                      A
 Frequencies --    492.2964               600.9136               675.2939
 Red. masses --      3.0739                 3.1758                 2.8626
 Frc consts  --      0.4389                 0.6757                 0.7691
 IR Inten    --     14.5167                 1.4192                 7.2427

                     13                     14                     15
                      A                      A                      A
 Frequencies --    727.7875               740.5076               846.1664
 Red. masses --      1.5503                 2.8102                 3.1320
 Frc consts  --      0.4838                 0.9079                 1.3213
 IR Inten    --     15.2048                 3.6237                 3.0368

                     16                     17                     18
                      A                      A                      A
 Frequencies --    902.3579               946.8572               954.3080
 Red. masses --      2.4593                 2.1353                 2.2452
 Frc consts  --      1.1798                 1.1279                 1.2047
 IR Inten    --     10.2526                 1.7864                 4.1496

                     19                     20                     21
                      A                      A                      A
 Frequencies --    979.0899               996.8364              1012.4084
 Red. masses --      3.3165                 1.3172                 1.9595
 Frc consts  --      1.8732                 0.7712                 1.1833
 IR Inten    --     29.9097                 0.9706                 1.9864

                     22                     23                     24
                      A                      A                      A
 Frequencies --   1056.6174              1087.1914              1139.9719
 Red. masses --      2.7929                 2.9766                 2.1532
 Frc consts  --      1.8372                 2.0729                 1.6486
 IR Inten    --      0.9202                22.7284                27.4088

                     25                     26                     27
                      A                      A                      A
 Frequencies --   1159.3962              1216.3278              1255.6297
 Red. masses --      2.4518                 1.3161                 1.2231
 Frc consts  --      1.9418                 1.1472                 1.1362
 IR Inten    --     88.7162                29.6584                30.3828

                     28                     29                     30
                      A                      A                      A
 Frequencies --   1276.7258              1279.1703              1302.0125
 Red. masses --      1.1786                 1.1935                 1.1449
 Frc consts  --      1.1319                 1.1506                 1.1435
 IR Inten    --      0.1158                 3.1646                 4.0463

                     31                     32                     33
                      A                      A                      A
 Frequencies --   1332.4807              1358.0972              1366.7558
 Red. masses --      1.4135                 1.3607                 1.3166
 Frc consts  --      1.4786                 1.4787                 1.4490
 IR Inten    --     14.1615                 7.1415                 7.3694

                     34                     35                     36
                      A                      A                      A
 Frequencies --   1396.3357              1426.5144              1463.9359
 Red. masses --      1.2517                 1.4367                 1.0880
 Frc consts  --      1.4379                 1.7225                 1.3738
 IR Inten    --      4.5445                 2.7878                 5.8259

                     37                     38                     39
                      A                      A                      A
 Frequencies --   1468.1197              1490.1761              1506.4855
 Red. masses --      1.1101                 1.0874                 1.0837
 Frc consts  --      1.4097                 1.4227                 1.4490
 IR Inten    --      7.3931                 3.6152                 5.5664

                     40                     41                     42
                      A                      A                      A
 Frequencies --   1722.0877              1807.7208              2997.7434
 Red. masses --      6.7536                11.4029                 1.0614
 Frc consts  --     11.8003                21.9548                 5.6198
 IR Inten    --      4.6398               135.0363                19.0262

                     43                     44                     45
                      A                      A                      A
 Frequencies --   3006.9134              3021.2459              3053.4079
 Red. masses --      1.0599                 1.0688                 1.0997
 Frc consts  --      5.6464                 5.7478                 6.0409
 IR Inten    --     45.2413                14.6156                42.3909

                     46                     47                     48
                      A                      A                      A
 Frequencies --   3056.8929              3060.1850              3085.1405
 Red. masses --      1.1016                 1.0609                 1.0906
 Frc consts  --      6.0651                 5.8534                 6.1159
 IR Inten    --     10.6828                11.0409                18.5290

                     49                     50                     51
                      A                      A                      A
 Frequencies --   3122.2308              3142.2660              3170.1595
 Red. masses --      1.1059                 1.0847                 1.0952
 Frc consts  --      6.3517                 6.3102                 6.4847
 IR Inten    --     10.8102                 8.7400                30.4021

 - Thermochemistry -
 -------------------
 Temperature   298.150 Kelvin.  Pressure   1.00000 Atm.
 Atom     1 has atomic number  8 and mass  15.99491

 Molecular mass:   126.06808 amu.
 Principal axes and moments of inertia in atomic units:
                           1         2         3
     Eigenvalues --   770.461881128.607281663.11650
           X            0.99924  -0.03581   0.01515
           Y            0.03539   0.99900   0.02725
           Z           -0.01611  -0.02670   0.99951
 This molecule is an asymmetric top.
 Rotational symmetry number  1.
 Warning -- assumption of classical behavior for rotation
           may cause significant error
 Rotational temperatures (Kelvin)      0.11242     0.07674     0.05208
 Rotational constants (GHZ):           2.34241     1.59909     1.08516
 Zero-point vibrational energy     419771.8 (Joules/Mol)
                                  100.32788 (Kcal/Mol)
 Warning -- explicit consideration of  11 degrees of freedom as
           vibrations may cause significant error
 Vibrational temperatures:     47.65   154.03   245.94   306.49   326.10
          (Kelvin)            526.88   587.18   676.49   693.96   708.30
                              864.58   971.60  1047.12  1065.42  1217.44
                             1298.29  1362.31  1373.03  1408.69  1434.22
                             1456.63  1520.23  1564.22  1640.16  1668.11
                             1750.02  1806.57  1836.92  1840.44  1873.30
                             1917.14  1954.00  1966.45  2009.01  2052.43
                             2106.27  2112.29  2144.03  2167.49  2477.70
                             2600.90  4313.08  4326.27  4346.89  4393.17
                             4398.18  4402.92  4438.82  4492.19  4521.01
                             4561.15

 Zero-point correction=                           0.159883 (Hartree/Particle)
 Thermal correction to Energy=                    0.168366
 Thermal correction to Enthalpy=                  0.169310
 Thermal correction to Gibbs Free Energy=         0.125919
 Sum of electronic and zero-point Energies=           -423.031566
 Sum of electronic and thermal Energies=              -423.023083
 Sum of electronic and thermal Enthalpies=            -423.022139
 Sum of electronic and thermal Free Energies=         -423.065530

                     E (Thermal)             CV                S
                      KCal/Mol        Cal/Mol-Kelvin    Cal/Mol-Kelvin
 Total                  105.651             31.660             91.324
 Electronic               0.000              0.000              0.000
 Translational            0.889              2.981             40.409
 Rotational               0.889              2.981             28.760
 Vibrational            103.874             25.698             22.156
 Vibration     1          0.594              1.983              5.633
 Vibration     2          0.606              1.944              3.322
 Vibration     3          0.626              1.878              2.425
 Vibration     4          0.644              1.821              2.018
 Vibration     5          0.650              1.800              1.905
 Vibration     6          0.739              1.542              1.096
 Vibration     7          0.773              1.453              0.933
 Vibration     8          0.827              1.316              0.737
 Vibration     9          0.839              1.289              0.704
 Vibration    10          0.848              1.267              0.678
 Vibration    11          0.959              1.030              0.448

 Optimization completed.
    -- Stationary point found.
 Normal termination of Gaussian 09 at Mon Jan 27 13:54:04 2020.
