 Gaussian 09, Revision D.01,
 Gaussian 09:  ES64L-G09RevD.01 24-Apr-2013

 -----------------------------
 # b3lyp 6-31G(2df,p) opt Freq
 -----------------------------

 -----
 titel
 -----
 Symbolic Z-matrix:
 Charge =  0 Multiplicity = 1

 SCF Done:  E(RB3LYP) =  -423.169749867     A.U. after   13 cycles
 Optimization completed.
    -- Stationary point found.
 Normal termination of Gaussian 09 at Mon Jan 27 17:26:48 2020.

 ----------------------------------------------------------------------
 #N Geom=AllCheck Guess=TCheck SCRF=Check GenChk RB3LYP/6-31G(2df,p) Fr
 eq
 ----------------------------------------------------------------------

 Structure from the checkpoint file:  "/scratch/puck/g09_436ca609-1ec5-484e-82de-5d461aca3712/Gau-72545.chk"
 -----
 titel
 -----
 Charge =  0 Multiplicity = 1

                         Standard orientation:
 ---------------------------------------------------------------------
 Center     Atomic      Atomic             Coordinates (Angstroms)
 Number     Number       Type             X           Y           Z
 ---------------------------------------------------------------------
      1          6           0        2.453583    0.860014    0.017835
      2          6           0        1.141680    0.144998   -0.155076
      3          8           0        1.194856   -1.127512   -0.833978
      4          6           0        0.763899   -1.104161    0.533542
      5          6           0       -0.745588   -1.215442    0.690650
      6          6           0       -1.282573    0.075138    0.062330
      7          8           0       -2.518249    0.038627   -0.579150
      8          6           0       -0.928973    1.367936    0.731548
      9          6           0       -0.121862    0.895571   -0.467660
     10          1           0        2.370701    1.641634    0.780020
     11          1           0        3.240583    0.160767    0.311488
     12          1           0        2.756816    1.338977   -0.919673
     13          1           0        1.429738   -1.602123    1.235303
     14          1           0       -1.122469   -2.090864    0.148864
     15          1           0       -1.040511   -1.325031    1.740534
     16          1           0       -2.434140   -0.541153   -1.345015
     17          1           0       -1.612466    2.190827    0.557203
     18          1           0       -0.474145    1.350967    1.717784
     19          1           0       -0.207965    1.442756   -1.400496
 ---------------------------------------------------------------------

 SCF Done:  E(RB3LYP) =  -423.169749867     A.U. after    1 cycles

 The electronic state is 1-A.
 Alpha  occ. eigenvalues --  -19.14379 -19.14243 -10.24034 -10.23959 -10.23279
 Alpha  occ. eigenvalues --  -10.18798 -10.18795 -10.18702 -10.18287  -1.06596
 Alpha  occ. eigenvalues --   -1.03014  -0.86214  -0.75175  -0.73674  -0.64659
 Alpha  occ. eigenvalues --   -0.61835  -0.57191  -0.55480  -0.52303  -0.47886
 Alpha  occ. eigenvalues --   -0.46406  -0.44348  -0.42687  -0.41832  -0.40090
 Alpha  occ. eigenvalues --   -0.39577  -0.37999  -0.36303  -0.35136  -0.32694
 Alpha  occ. eigenvalues --   -0.30821  -0.27136  -0.25655  -0.24810
 Alpha virt. eigenvalues --    0.08061   0.09411   0.10002   0.10881   0.11596
 Alpha virt. eigenvalues --    0.13079   0.13795   0.14982   0.16439   0.17085
 Alpha virt. eigenvalues --    0.17829   0.19454   0.20256   0.21127   0.21548

 Mulliken charges:
               1
     1  C   -0.482935
     2  C    0.425780
     3  O   -0.309661
     4  C   -0.017559
     5  C   -0.329614
     6  C    0.435554
     7  O   -0.477143
     8  C   -0.324133
     9  C   -0.207388
    10  H    0.125107
    11  H    0.127687
    12  H    0.127559
    13  H    0.089561
    14  H    0.105832
    15  H    0.105629
    16  H    0.282195
    17  H    0.124118
    18  H    0.107959
    19  H    0.091452
 Sum of Mulliken charges =   0.00000

 Dipole moment (field-independent basis, Debye):
    X=              0.5855    Y=              0.3330    Z=              0.7672  Tot=              1.0210
 Quadrupole moment (field-independent basis, Debye-Ang):
   XX=            -56.7634   YY=            -52.2043   ZZ=            -50.8031
   XY=              3.4583   XZ=              3.6542   YZ=             -1.5385

  Exact polarizability:  80.331   2.356  75.771  -0.310  -1.728  66.448
 Approx polarizability: 106.937   2.439 112.211  -3.291   0.485 107.324

                      1                      2                      3
                      A                      A                      A
 Frequencies --    136.5158               184.4986               211.1106
 Red. masses --      3.6224                 1.4992                 1.5639
 Frc consts  --      0.0398                 0.0301                 0.0411
 IR Inten    --      3.6337                 1.0595                 1.2758

                      4                      5                      6
                      A                      A                      A
 Frequencies --    268.1866               335.4983               355.9552
 Red. masses --      2.1872                 1.3247                 1.9535
 Frc consts  --      0.0927                 0.0878                 0.1458
 IR Inten    --      6.6602                62.4038                10.2493

                      7                      8                      9
                      A                      A                      A
 Frequencies --    395.7505               413.0574               460.8346
 Red. masses --      3.1468                 2.9350                 5.0631
 Frc consts  --      0.2904                 0.2950                 0.6335
 IR Inten    --     10.5072                13.4008                 6.0933

                     10                     11                     12
                      A                      A                      A
 Frequencies --    485.1440               562.3140               626.0717
 Red. masses --      2.9290                 3.7742                 3.7212
 Frc consts  --      0.4062                 0.7031                 0.8594
 IR Inten    --      2.4041                11.3710                 6.7092

                     13                     14                     15
                      A                      A                      A
 Frequencies --    715.0953               754.6692               815.4612
 Red. masses --      3.5619                 3.1491                 3.0050
 Frc consts  --      1.0731                 1.0567                 1.1773
 IR Inten    --      4.8254                 1.2507                17.3933

                     16                     17                     18
                      A                      A                      A
 Frequencies --    872.2336               903.2360               915.8098
 Red. masses --      2.2632                 3.3157                 1.7729
 Frc consts  --      1.0145                 1.5938                 0.8761
 IR Inten    --     21.9863                 0.9029                 7.8472

                     19                     20                     21
                      A                      A                      A
 Frequencies --    942.0157               976.2422              1004.7192
 Red. masses --      1.5828                 2.0119                 1.6120
 Frc consts  --      0.8275                 1.1297                 0.9588
 IR Inten    --     10.2303                 2.4102                 8.4008

                     22                     23                     24
                      A                      A                      A
 Frequencies --   1018.1198              1038.2003              1054.8339
 Red. masses --      1.9387                 1.8478                 1.6190
 Frc consts  --      1.1840                 1.1735                 1.0614
 IR Inten    --      3.1012                 7.4580                 5.6423

                     25                     26                     27
                      A                      A                      A
 Frequencies --   1076.2274              1094.2681              1123.7132
 Red. masses --      1.5388                 1.5382                 1.8444
 Frc consts  --      1.0501                 1.0852                 1.3722
 IR Inten    --      4.8575                 0.5204                13.0372

                     28                     29                     30
                      A                      A                      A
 Frequencies --   1190.6185              1211.5761              1255.1054
 Red. masses --      1.4171                 1.5293                 1.9770
 Frc consts  --      1.1836                 1.3227                 1.8349
 IR Inten    --     11.6317                54.6435                 4.2175

                     31                     32                     33
                      A                      A                      A
 Frequencies --   1260.8169              1301.4351              1335.2331
 Red. masses --      2.0966                 1.4707                 2.3295
 Frc consts  --      1.9637                 1.4676                 2.4469
 IR Inten    --     38.2353                29.9520                 7.2609

                     34                     35                     36
                      A                      A                      A
 Frequencies --   1336.2518              1411.2692              1418.1878
 Red. masses --      2.2011                 1.3216                 1.7468
 Frc consts  --      2.3156                 1.5509                 2.0699
 IR Inten    --     97.3353                 4.1786                 3.6862

                     37                     38                     39
                      A                      A                      A
 Frequencies --   1445.0938              1471.1365              1485.3161
 Red. masses --      2.5945                 1.1904                 1.1092
 Frc consts  --      3.1923                 1.5180                 1.4418
 IR Inten    --      8.6311                 8.8118                 5.2792

                     40                     41                     42
                      A                      A                      A
 Frequencies --   1492.1875              1496.7213              3032.5355
 Red. masses --      1.3904                 1.1484                 1.0588
 Frc consts  --      1.8240                 1.5158                 5.7368
 IR Inten    --     12.5154                 1.4952                41.2704

                     43                     44                     45
                      A                      A                      A
 Frequencies --   3035.8028              3072.9260              3098.3833
 Red. masses --      1.0361                 1.1043                 1.1001
 Frc consts  --      5.6262                 6.1437                 6.2224
 IR Inten    --     16.4368                17.5937                15.6404

                     46                     47                     48
                      A                      A                      A
 Frequencies --   3122.0185              3124.6611              3134.9000
 Red. masses --      1.1016                 1.0562                 1.0906
 Frc consts  --      6.3260                 6.0757                 6.3149
 IR Inten    --     13.9547                10.9387                34.5368

                     49                     50                     51
                      A                      A                      A
 Frequencies --   3169.1861              3221.2881              3787.9326
 Red. masses --      1.0906                 1.1145                 1.0658
 Frc consts  --      6.4540                 6.8138                 9.0104
 IR Inten    --      8.5867                 5.7464                17.1658

 - Thermochemistry -
 -------------------
 Temperature   298.150 Kelvin.  Pressure   1.00000 Atm.
 Atom     1 has atomic number  6 and mass  12.00000

 Molecular mass:   126.06808 amu.
 Principal axes and moments of inertia in atomic units:
                           1         2         3
     Eigenvalues --   586.686851219.892501462.79930
           X            0.99931   0.03636   0.00740
           Y           -0.03612   0.99886  -0.03112
           Z           -0.00853   0.03083   0.99949
 This molecule is an asymmetric top.
 Rotational symmetry number  1.
 Warning -- assumption of classical behavior for rotation
           may cause significant error
 Rotational temperatures (Kelvin)      0.14763     0.07100     0.05921
 Rotational constants (GHZ):           3.07616     1.47943     1.23376
 Zero-point vibrational energy     416601.7 (Joules/Mol)
                                   99.57020 (Kcal/Mol)
 Warning -- explicit consideration of  11 degrees of freedom as
           vibrations may cause significant error
 Vibrational temperatures:    196.42   265.45   303.74   385.86   482.71
          (Kelvin)            512.14   569.40   594.30   663.04   698.01
                              809.04   900.78  1028.86  1085.80  1173.27
                             1254.95  1299.55  1317.64  1355.35  1404.59
                             1445.57  1464.85  1493.74  1517.67  1548.45
                             1574.41  1616.77  1713.03  1743.19  1805.81
                             1814.03  1872.47  1921.10  1922.57  2030.50
                             2040.45  2079.17  2116.63  2137.04  2146.92
                             2153.45  4363.14  4367.84  4421.25  4457.88
                             4491.88  4495.68  4510.42  4559.75  4634.71
                             5449.98

 Zero-point correction=                           0.158675 (Hartree/Particle)
 Thermal correction to Energy=                    0.166789
 Thermal correction to Enthalpy=                  0.167733
 Thermal correction to Gibbs Free Energy=         0.126635
 Sum of electronic and zero-point Energies=           -423.011075
 Sum of electronic and thermal Energies=              -423.002961
 Sum of electronic and thermal Enthalpies=            -423.002017
 Sum of electronic and thermal Free Energies=         -423.043115

                     E (Thermal)             CV                S
                      KCal/Mol        Cal/Mol-Kelvin    Cal/Mol-Kelvin
 Total                  104.662             32.611             86.498
 Electronic               0.000              0.000              0.000
 Translational            0.889              2.981             40.409
 Rotational               0.889              2.981             28.439
 Vibrational            102.884             26.650             17.651
 Vibration     1          0.614              1.917              2.852
 Vibration     2          0.631              1.861              2.282
 Vibration     3          0.643              1.824              2.034
 Vibration     4          0.673              1.732              1.608
 Vibration     5          0.717              1.605              1.233
 Vibration     6          0.731              1.563              1.140
 Vibration     7          0.762              1.479              0.978
 Vibration     8          0.777              1.442              0.916
 Vibration     9          0.819              1.337              0.764
 Vibration    10          0.841              1.283              0.696
 Vibration    11          0.918              1.113              0.519

 Optimization completed.
    -- Stationary point found.
 Normal termination of Gaussian 09 at Mon Jan 27 18:25:30 2020.
