 Gaussian 09, Revision D.01,
 Gaussian 09:  ES64L-G09RevD.01 24-Apr-2013

 -----------------------------
 # b3lyp 6-31G(2df,p) opt Freq
 -----------------------------

 -----
 titel
 -----
 Symbolic Z-matrix:
 Charge =  0 Multiplicity = 1

 SCF Done:  E(RB3LYP) =  -423.119245737     A.U. after   14 cycles
 Optimization completed.
    -- Stationary point found.
 Normal termination of Gaussian 09 at Tue Jan 28 09:23:12 2020.

 ----------------------------------------------------------------------
 #N Geom=AllCheck Guess=TCheck SCRF=Check GenChk RB3LYP/6-31G(2df,p) Fr
 eq
 ----------------------------------------------------------------------

 Structure from the checkpoint file:  "/scratch/puck/g09_8dfdfbf6-d846-4eee-adb8-0b9485443add/Gau-82539.chk"
 -----
 titel
 -----
 Charge =  0 Multiplicity = 1

                         Standard orientation:
 ---------------------------------------------------------------------
 Center     Atomic      Atomic             Coordinates (Angstroms)
 Number     Number       Type             X           Y           Z
 ---------------------------------------------------------------------
      1          6           0        0.697426    2.073336   -0.209923
      2          6           0        0.767900    0.587335   -0.055979
      3          6           0        1.677195   -0.351739   -0.899269
      4          6           0        0.741613   -1.469031   -0.441373
      5          6           0        0.329538   -1.053858    0.980961
      6          8           0        1.031782    0.137766    1.315152
      7          6           0       -0.399702   -0.482764   -0.190815
      8          6           0       -1.830476   -0.411576   -0.599155
      9          8           0       -2.574535    0.519646    0.177618
     10          1           0        1.637802    2.530099    0.117224
     11          1           0        0.529630    2.342569   -1.257058
     12          1           0       -0.120230    2.483142    0.388279
     13          1           0        1.575774   -0.157218   -1.970260
     14          1           0        2.732643   -0.389895   -0.611439
     15          1           0        0.671089   -2.490126   -0.795020
     16          1           0        0.038674   -1.738492    1.767864
     17          1           0       -1.926559   -0.067273   -1.635418
     18          1           0       -2.270646   -1.422097   -0.556785
     19          1           0       -2.427114    0.299776    1.103771
 ---------------------------------------------------------------------

 SCF Done:  E(RB3LYP) =  -423.119245737     A.U. after    1 cycles

 The electronic state is 1-A.
 Alpha  occ. eigenvalues --  -19.13623 -19.13309 -10.24545 -10.23891 -10.23634
 Alpha  occ. eigenvalues --  -10.19743 -10.19509 -10.18636 -10.17959  -1.05916
 Alpha  occ. eigenvalues --   -1.01656  -0.85843  -0.76161  -0.71907  -0.68151
 Alpha  occ. eigenvalues --   -0.61857  -0.56520  -0.53318  -0.50151  -0.48967
 Alpha  occ. eigenvalues --   -0.46801  -0.44115  -0.43266  -0.42782  -0.40919
 Alpha  occ. eigenvalues --   -0.39756  -0.36956  -0.35564  -0.34738  -0.32556
 Alpha  occ. eigenvalues --   -0.29125  -0.27542  -0.25414  -0.22988
 Alpha virt. eigenvalues --    0.07062   0.08652   0.10180   0.11475   0.11575
 Alpha virt. eigenvalues --    0.13362   0.14570   0.14911   0.15439   0.16351
 Alpha virt. eigenvalues --    0.17856   0.18234   0.19370   0.19959   0.21991

 Mulliken charges:
               1
     1  C   -0.502078
     2  C    0.374726
     3  C   -0.265869
     4  C   -0.187811
     5  C    0.032945
     6  O   -0.331932
     7  C    0.228918
     8  C   -0.217773
     9  O   -0.411960
    10  H    0.131330
    11  H    0.122917
    12  H    0.139210
    13  H    0.101568
    14  H    0.098920
    15  H    0.091693
    16  H    0.104372
    17  H    0.113629
    18  H    0.091963
    19  H    0.285231
 Sum of Mulliken charges =   0.00000

 Dipole moment (field-independent basis, Debye):
    X=              0.0403    Y=             -1.2474    Z=             -0.7785  Tot=              1.4709
 Quadrupole moment (field-independent basis, Debye-Ang):
   XX=            -58.1426   YY=            -50.5844   ZZ=            -51.9598
   XY=              3.3679   XZ=             -4.1210   YZ=             -1.4491

  Exact polarizability:  77.266   0.807  77.736  -2.232  -0.782  69.753
 Approx polarizability: 107.588  -1.250 110.788  -0.509  -0.063 111.412

                      1                      2                      3
                      A                      A                      A
 Frequencies --     90.1249               111.3726               182.2924
 Red. masses --      3.8503                 3.6234                 1.0782
 Frc consts  --      0.0184                 0.0265                 0.0211
 IR Inten    --      2.7393                 2.6224                 0.4626

                      4                      5                      6
                      A                      A                      A
 Frequencies --    195.2330               295.0501               311.5148
 Red. masses --      2.0538                 2.5133                 2.2453
 Frc consts  --      0.0461                 0.1289                 0.1284
 IR Inten    --      7.0251                 2.3998                11.7074

                      7                      8                      9
                      A                      A                      A
 Frequencies --    337.7211               414.1443               487.9795
 Red. masses --      1.3061                 2.7705                 2.4860
 Frc consts  --      0.0878                 0.2800                 0.3488
 IR Inten    --     88.5582                27.2030                 0.7030

                     10                     11                     12
                      A                      A                      A
 Frequencies --    551.8703               624.6692               638.2959
 Red. masses --      4.3074                 4.0847                 3.0417
 Frc consts  --      0.7729                 0.9391                 0.7302
 IR Inten    --      5.7858                 2.2395                 2.5604

                     13                     14                     15
                      A                      A                      A
 Frequencies --    764.2751               788.4098               818.6800
 Red. masses --      3.8732                 3.4366                 3.2663
 Frc consts  --      1.3330                 1.2586                 1.2898
 IR Inten    --     12.0347                 9.5979                16.4545

                     16                     17                     18
                      A                      A                      A
 Frequencies --    871.5041               880.8747               928.8607
 Red. masses --      2.2739                 1.6911                 1.8712
 Frc consts  --      1.0176                 0.7731                 0.9512
 IR Inten    --     20.8708                 5.0809                18.0010

                     19                     20                     21
                      A                      A                      A
 Frequencies --    964.1866               981.4323               993.7424
 Red. masses --      1.6813                 1.8847                 1.6625
 Frc consts  --      0.9209                 1.0696                 0.9673
 IR Inten    --      0.2391                 5.1687                 6.4639

                     22                     23                     24
                      A                      A                      A
 Frequencies --   1023.9284              1035.2398              1047.6704
 Red. masses --      1.7420                 2.9997                 5.3923
 Frc consts  --      1.0760                 1.8941                 3.4872
 IR Inten    --      5.2229                33.7729                83.4287

                     25                     26                     27
                      A                      A                      A
 Frequencies --   1101.7364              1118.4892              1145.0226
 Red. masses --      1.5905                 1.7802                 2.1669
 Frc consts  --      1.1374                 1.3122                 1.6739
 IR Inten    --     15.8957                 3.8788                15.1198

                     28                     29                     30
                      A                      A                      A
 Frequencies --   1163.8149              1217.5665              1237.2977
 Red. masses --      1.5424                 1.8877                 1.3377
 Frc consts  --      1.2309                 1.6488                 1.2066
 IR Inten    --      2.5693                 7.1199                11.8281

                     31                     32                     33
                      A                      A                      A
 Frequencies --   1247.1033              1285.7485              1333.1277
 Red. masses --      2.0786                 1.8033                 2.1196
 Frc consts  --      1.9047                 1.7564                 2.2195
 IR Inten    --      1.3493                 8.6834                21.5972

                     34                     35                     36
                      A                      A                      A
 Frequencies --   1364.4056              1415.6275              1418.2838
 Red. masses --      1.3708                 1.6228                 1.2594
 Frc consts  --      1.5035                 1.9161                 1.4926
 IR Inten    --      0.9372                17.7232                55.4953

                     37                     38                     39
                      A                      A                      A
 Frequencies --   1451.1218              1478.1865              1485.4269
 Red. masses --      3.4763                 1.0607                 1.0686
 Frc consts  --      4.3129                 1.3656                 1.3893
 IR Inten    --     30.4337                 1.6372                 5.0013

                     40                     41                     42
                      A                      A                      A
 Frequencies --   1488.5106              1498.9653              2964.2336
 Red. masses --      1.2138                 1.0829                 1.0712
 Frc consts  --      1.5845                 1.4336                 5.5455
 IR Inten    --      0.5938                 0.9943                62.1334

                     43                     44                     45
                      A                      A                      A
 Frequencies --   3039.3156              3046.9851              3055.3233
 Red. masses --      1.0367                 1.0566                 1.0896
 Frc consts  --      5.6425                 5.7795                 5.9926
 IR Inten    --     11.9699                45.3579                29.8923

                     46                     47                     48
                      A                      A                      A
 Frequencies --   3107.8489              3111.5419              3125.5179
 Red. masses --      1.1040                 1.1038                 1.1013
 Frc consts  --      6.2823                 6.2964                 6.3385
 IR Inten    --      0.7910                34.2087                10.8458

                     49                     50                     51
                      A                      A                      A
 Frequencies --   3192.3229              3202.0317              3808.5074
 Red. masses --      1.0913                 1.0963                 1.0660
 Frc consts  --      6.5523                 6.6225                 9.1100
 IR Inten    --      6.7537                24.5168                15.1680

 - Thermochemistry -
 -------------------
 Temperature   298.150 Kelvin.  Pressure   1.00000 Atm.
 Atom     1 has atomic number  6 and mass  12.00000

 Molecular mass:   126.06808 amu.
 Principal axes and moments of inertia in atomic units:
                           1         2         3
     Eigenvalues --   737.219091140.295371370.86728
           X            0.99892   0.04041  -0.02303
           Y           -0.04081   0.99901  -0.01748
           Z            0.02230   0.01840   0.99958
 This molecule is an asymmetric top.
 Rotational symmetry number  1.
 Warning -- assumption of classical behavior for rotation
           may cause significant error
 Rotational temperatures (Kelvin)      0.11749     0.07596     0.06318
 Rotational constants (GHZ):           2.44804     1.58270     1.31650
 Zero-point vibrational energy     415362.2 (Joules/Mol)
                                   99.27395 (Kcal/Mol)
 Warning -- explicit consideration of  10 degrees of freedom as
           vibrations may cause significant error
 Vibrational temperatures:    129.67   160.24   262.28   280.90   424.51
          (Kelvin)            448.20   485.90   595.86   702.09   794.02
                              898.76   918.36  1099.62  1134.34  1177.90
                             1253.90  1267.38  1336.42  1387.25  1412.06
                             1429.77  1473.20  1489.48  1507.36  1585.15
                             1609.25  1647.43  1674.47  1751.80  1780.19
                             1794.30  1849.90  1918.07  1963.07  2036.77
                             2040.59  2087.84  2126.78  2137.20  2141.63
                             2156.67  4264.87  4372.89  4383.93  4395.92
                             4471.50  4476.81  4496.92  4593.03  4607.00
                             5479.59

 Zero-point correction=                           0.158203 (Hartree/Particle)
 Thermal correction to Energy=                    0.166701
 Thermal correction to Enthalpy=                  0.167645
 Thermal correction to Gibbs Free Energy=         0.125162
 Sum of electronic and zero-point Energies=           -422.961043
 Sum of electronic and thermal Energies=              -422.952544
 Sum of electronic and thermal Enthalpies=            -422.951600
 Sum of electronic and thermal Free Energies=         -422.994084

                     E (Thermal)             CV                S
                      KCal/Mol        Cal/Mol-Kelvin    Cal/Mol-Kelvin
 Total                  104.607             32.615             89.415
 Electronic               0.000              0.000              0.000
 Translational            0.889              2.981             40.409
 Rotational               0.889              2.981             28.535
 Vibrational            102.829             26.653             20.471
 Vibration     1          0.602              1.956              3.657
 Vibration     2          0.607              1.940              3.245
 Vibration     3          0.630              1.864              2.305
 Vibration     4          0.636              1.847              2.178
 Vibration     5          0.689              1.683              1.445
 Vibration     6          0.700              1.652              1.354
 Vibration     7          0.718              1.600              1.223
 Vibration     8          0.778              1.440              0.912
 Vibration     9          0.844              1.277              0.689
 Vibration    10          0.907              1.136              0.540

 Normal termination of Gaussian 09 at Tue Jan 28 10:20:34 2020.
