 Gaussian 09, Revision D.01,
 Gaussian 09:  ES64L-G09RevD.01 24-Apr-2013

 -----------------------------
 # b3lyp 6-31G(2df,p) opt Freq
 -----------------------------

 -----
 titel
 -----
 Symbolic Z-matrix:
 Charge =  0 Multiplicity = 1

 SCF Done:  E(RB3LYP) =  -423.105841617     A.U. after   14 cycles
 Optimization completed.
    -- Stationary point found.
 Normal termination of Gaussian 09 at Tue Jan 28 14:05:43 2020.

 ----------------------------------------------------------------------
 #N Geom=AllCheck Guess=TCheck SCRF=Check GenChk RB3LYP/6-31G(2df,p) Fr
 eq
 ----------------------------------------------------------------------

 Structure from the checkpoint file:  "/scratch/puck/g09_33ca3191-e1b2-4652-bb75-425a714edd29/Gau-122921.chk"
 -----
 titel
 -----
 Charge =  0 Multiplicity = 1

                         Standard orientation:
 ---------------------------------------------------------------------
 Center     Atomic      Atomic             Coordinates (Angstroms)
 Number     Number       Type             X           Y           Z
 ---------------------------------------------------------------------
      1          6           0        2.800535    0.299037   -0.010658
      2          8           0        1.500023    0.656071   -0.423146
      3          6           0        0.505120    0.293563    0.485257
      4          6           0        0.061089   -1.200711    0.609011
      5          8           0       -0.226703   -1.592225   -0.757052
      6          6           0       -1.344858   -0.709548   -0.678975
      7          6           0       -1.403741   -0.674407    0.811697
      8          6           0       -0.924264    0.574661    0.056424
      9          6           0       -1.590524    1.904828   -0.121094
     10          1           0        2.922745   -0.791162    0.065472
     11          1           0        3.496032    0.676658   -0.763590
     12          1           0        3.055244    0.745837    0.963829
     13          1           0        0.702835    0.706530    1.488249
     14          1           0        0.600669   -1.952271    1.180755
     15          1           0       -2.110274   -0.753044   -1.442740
     16          1           0       -2.176259   -0.834062    1.550395
     17          1           0       -2.654308    1.788136   -0.354985
     18          1           0       -1.515844    2.515315    0.785913
     19          1           0       -1.127535    2.462755   -0.941692
 ---------------------------------------------------------------------

 SCF Done:  E(RB3LYP) =  -423.105841617     A.U. after    1 cycles

 The electronic state is 1-A.
 Alpha  occ. eigenvalues --  -19.13685 -19.13318 -10.23979 -10.23763 -10.23288
 Alpha  occ. eigenvalues --  -10.22192 -10.19982 -10.19465 -10.18325  -1.06443
 Alpha  occ. eigenvalues --   -1.02773  -0.86194  -0.73263  -0.72072  -0.68009
 Alpha  occ. eigenvalues --   -0.61830  -0.55428  -0.54504  -0.50939  -0.49364
 Alpha  occ. eigenvalues --   -0.46809  -0.46195  -0.42407  -0.41561  -0.40435
 Alpha  occ. eigenvalues --   -0.40090  -0.38481  -0.36992  -0.33788  -0.31273
 Alpha  occ. eigenvalues --   -0.30063  -0.26705  -0.24927  -0.22583
 Alpha virt. eigenvalues --    0.07732   0.09244   0.10811   0.11864   0.13602
 Alpha virt. eigenvalues --    0.13995   0.14284   0.14930   0.15530   0.16375
 Alpha virt. eigenvalues --    0.17140   0.18369   0.19119   0.19451   0.19628

 Mulliken charges:
               1
     1  C   -0.239134
     2  O   -0.249477
     3  C    0.135360
     4  C   -0.002823
     5  O   -0.283832
     6  C    0.059364
     7  C   -0.201908
     8  C    0.224769
     9  C   -0.516316
    10  H    0.112080
    11  H    0.128752
    12  H    0.100221
    13  H    0.061721
    14  H    0.084026
    15  H    0.109000
    16  H    0.100274
    17  H    0.119105
    18  H    0.120424
    19  H    0.138393
 Sum of Mulliken charges =   0.00000

 Dipole moment (field-independent basis, Debye):
    X=             -0.4947    Y=              0.7030    Z=              1.8673  Tot=              2.0557
 Quadrupole moment (field-independent basis, Debye-Ang):
   XX=            -46.6919   YY=            -55.7033   ZZ=            -52.8994
   XY=             -1.1268   XZ=              1.9972   YZ=             -2.0504

  Exact polarizability:  84.972  -1.163  74.166   1.524  -1.279  66.489
 Approx polarizability: 110.692  -0.962 108.031   0.946  -0.692 107.224

                      1                      2                      3
                      A                      A                      A
 Frequencies --     63.7024               157.9607               165.9877
 Red. masses --      2.8254                 2.1131                 1.2590
 Frc consts  --      0.0068                 0.0311                 0.0204
 IR Inten    --      3.5349                 1.5154                 0.0849

                      4                      5                      6
                      A                      A                      A
 Frequencies --    201.7384               230.3812               261.9801
 Red. masses --      1.2232                 2.4626                 2.6951
 Frc consts  --      0.0293                 0.0770                 0.1090
 IR Inten    --      0.2922                 2.5512                 1.2697

                      7                      8                      9
                      A                      A                      A
 Frequencies --    292.6696               422.2574               556.8426
 Red. masses --      3.9353                 3.5144                 3.5326
 Frc consts  --      0.1986                 0.3692                 0.6454
 IR Inten    --      0.6378                 0.6906                 0.5194

                     10                     11                     12
                      A                      A                      A
 Frequencies --    568.2515               694.0590               755.2049
 Red. masses --      4.7060                 3.6173                 3.5848
 Frc consts  --      0.8953                 1.0267                 1.2046
 IR Inten    --      3.3118                20.7048                 4.2533

                     13                     14                     15
                      A                      A                      A
 Frequencies --    784.8367               809.0198               845.9616
 Red. masses --      2.6149                 1.9851                 1.9349
 Frc consts  --      0.9490                 0.7655                 0.8158
 IR Inten    --     12.0631                 8.2697                 2.0988

                     16                     17                     18
                      A                      A                      A
 Frequencies --    887.8200               914.3280               953.2127
 Red. masses --      2.6505                 1.9859                 1.8798
 Frc consts  --      1.2309                 0.9782                 1.0063
 IR Inten    --      7.9206                 1.2410                16.1936

                     19                     20                     21
                      A                      A                      A
 Frequencies --    971.4221               989.4522              1021.2018
 Red. masses --      3.4297                 2.3962                 2.2684
 Frc consts  --      1.9069                 1.3822                 1.3938
 IR Inten    --     20.8788                24.3735                21.3195

                     22                     23                     24
                      A                      A                      A
 Frequencies --   1048.5704              1078.6709              1107.2306
 Red. masses --      2.8917                 2.5794                 1.9612
 Frc consts  --      1.8732                 1.7682                 1.4166
 IR Inten    --      7.6432                17.5458                16.8349

                     25                     26                     27
                      A                      A                      A
 Frequencies --   1144.3851              1149.5679              1162.5292
 Red. masses --      1.7555                 1.9386                 2.8816
 Frc consts  --      1.3545                 1.5094                 2.2945
 IR Inten    --     20.0350                10.1162               135.3687

                     28                     29                     30
                      A                      A                      A
 Frequencies --   1181.9332              1204.6452              1223.8848
 Red. masses --      1.3322                 1.4998                 1.5126
 Frc consts  --      1.0965                 1.2823                 1.3349
 IR Inten    --      7.3219                 2.2438                18.4231

                     31                     32                     33
                      A                      A                      A
 Frequencies --   1245.7899              1297.3847              1316.6974
 Red. masses --      1.8993                 1.7926                 2.4800
 Frc consts  --      1.7368                 1.7777                 2.5332
 IR Inten    --     61.4112                13.4802                 2.2631

                     34                     35                     36
                      A                      A                      A
 Frequencies --   1376.2478              1413.0739              1436.6514
 Red. masses --      1.4798                 1.2297                 3.0367
 Frc consts  --      1.6514                 1.4467                 3.6928
 IR Inten    --     32.9301                 9.9248                17.5097

                     37                     38                     39
                      A                      A                      A
 Frequencies --   1482.4976              1486.1565              1491.0149
 Red. masses --      1.1399                 1.0449                 1.0908
 Frc consts  --      1.4761                 1.3597                 1.4288
 IR Inten    --      4.0748                 4.4670                 2.5151

                     40                     41                     42
                      A                      A                      A
 Frequencies --   1499.2672              1506.8336              2969.7900
 Red. masses --      1.0583                 1.0639                 1.0590
 Frc consts  --      1.4016                 1.4233                 5.5032
 IR Inten    --      7.1157                 4.8506                29.6238

                     43                     44                     45
                      A                      A                      A
 Frequencies --   2978.2023              3026.5024              3026.6691
 Red. masses --      1.0631                 1.0722                 1.0607
 Frc consts  --      5.5557                 5.7862                 5.7249
 IR Inten    --     83.1443                 7.8431                74.5319

                     46                     47                     48
                      A                      A                      A
 Frequencies --   3088.4666              3098.3787              3117.3874
 Red. masses --      1.1007                 1.1007                 1.0963
 Frc consts  --      6.1857                 6.2256                 6.2770
 IR Inten    --     21.5718                15.6324                28.6230

                     49                     50                     51
                      A                      A                      A
 Frequencies --   3147.2542              3203.5547              3218.3801
 Red. masses --      1.0925                 1.0903                 1.1029
 Frc consts  --      6.3760                 6.5929                 6.7306
 IR Inten    --     32.8358                12.3478                 9.2871

 - Thermochemistry -
 -------------------
 Temperature   298.150 Kelvin.  Pressure   1.00000 Atm.
 Atom     1 has atomic number  6 and mass  12.00000

 Molecular mass:   126.06808 amu.
 Principal axes and moments of inertia in atomic units:
                           1         2         3
     Eigenvalues --   687.658791127.157021499.42032
           X            0.99868  -0.04977   0.01250
           Y            0.05003   0.99852  -0.02154
           Z           -0.01141   0.02214   0.99969
 This molecule is an asymmetric top.
 Rotational symmetry number  1.
 Warning -- assumption of classical behavior for rotation
           may cause significant error
 Rotational temperatures (Kelvin)      0.12595     0.07684     0.05776
 Rotational constants (GHZ):           2.62447     1.60114     1.20363
 Zero-point vibrational energy     414361.9 (Joules/Mol)
                                   99.03488 (Kcal/Mol)
 Warning -- explicit consideration of  10 degrees of freedom as
           vibrations may cause significant error
 Vibrational temperatures:     91.65   227.27   238.82   290.26   331.47
          (Kelvin)            376.93   421.09   607.53   801.17   817.59
                              998.59  1086.57  1129.20  1164.00  1217.15
                             1277.37  1315.51  1371.46  1397.66  1423.60
                             1469.28  1508.66  1551.96  1593.06  1646.51
                             1653.97  1672.62  1700.54  1733.21  1760.90
                             1792.41  1866.64  1894.43  1980.11  2033.10
                             2067.02  2132.98  2138.25  2145.24  2157.11
                             2167.99  4272.86  4284.96  4354.46  4354.70
                             4443.61  4457.87  4485.22  4528.19  4609.19
                             4630.53

 Zero-point correction=                           0.157822 (Hartree/Particle)
 Thermal correction to Energy=                    0.166303
 Thermal correction to Enthalpy=                  0.167247
 Thermal correction to Gibbs Free Energy=         0.124543
 Sum of electronic and zero-point Energies=           -422.948019
 Sum of electronic and thermal Energies=              -422.939538
 Sum of electronic and thermal Enthalpies=            -422.938594
 Sum of electronic and thermal Free Energies=         -422.981299

                     E (Thermal)             CV                S
                      KCal/Mol        Cal/Mol-Kelvin    Cal/Mol-Kelvin
 Total                  104.357             31.844             89.880
 Electronic               0.000              0.000              0.000
 Translational            0.889              2.981             40.409
 Rotational               0.889              2.981             28.543
 Vibrational            102.579             25.882             20.928
 Vibration     1          0.597              1.972              4.339
 Vibration     2          0.621              1.894              2.574
 Vibration     3          0.624              1.884              2.480
 Vibration     4          0.639              1.837              2.117
 Vibration     5          0.652              1.795              1.876
 Vibration     6          0.669              1.742              1.649
 Vibration     7          0.688              1.687              1.458
 Vibration     8          0.785              1.422              0.884
 Vibration     9          0.912              1.125              0.530
 Vibration    10          0.924              1.100              0.508

 Normal termination of Gaussian 09 at Tue Jan 28 14:46:28 2020.
