 Gaussian 09, Revision D.01,
 Gaussian 09:  ES64L-G09RevD.01 24-Apr-2013

 -----------------------------
 # b3lyp 6-31G(2df,p) opt Freq
 -----------------------------

 -----
 titel
 -----
 Symbolic Z-matrix:
 Charge =  0 Multiplicity = 1

 SCF Done:  E(RB3LYP) =  -423.168837437     A.U. after   14 cycles
 Optimization completed.
    -- Stationary point found.
 Normal termination of Gaussian 09 at Mon Jan 27 23:05:27 2020.

 ----------------------------------------------------------------------
 #N Geom=AllCheck Guess=TCheck SCRF=Check GenChk RB3LYP/6-31G(2df,p) Fr
 eq
 ----------------------------------------------------------------------

 Structure from the checkpoint file:  "/scratch/puck/g09_26c840b6-f934-44fc-9e5b-4573b45ab640/Gau-185889.chk"
 -----
 titel
 -----
 Charge =  0 Multiplicity = 1

                         Standard orientation:
 ---------------------------------------------------------------------
 Center     Atomic      Atomic             Coordinates (Angstroms)
 Number     Number       Type             X           Y           Z
 ---------------------------------------------------------------------
      1          6           0        0.478812    2.120082    0.661329
      2          6           0        0.366323    0.828129   -0.136704
      3          6           0        1.501954   -0.250527   -0.053392
      4          8           0        2.219940   -0.490871   -1.236533
      5          6           0        0.462514   -1.318917    0.339389
      6          6           0       -0.258200   -0.923723    1.575803
      7          6           0       -0.659860   -0.234091    0.288171
      8          6           0       -1.992181   -0.401218   -0.297082
      9          8           0       -2.485827    0.356168   -1.101164
     10          1           0        1.329364    2.715299    0.312879
     11          1           0       -0.426201    2.724937    0.547633
     12          1           0        0.622577    1.929874    1.730111
     13          1           0        0.201655    1.062764   -1.194030
     14          1           0        2.258731   -0.067876    0.716999
     15          1           0        1.590176   -0.581640   -1.960573
     16          1           0        0.424822   -2.323522   -0.066084
     17          1           0       -0.977724   -1.641969    1.958427
     18          1           0        0.241416   -0.343420    2.347049
     19          1           0       -2.533882   -1.315227    0.044085
 ---------------------------------------------------------------------

 SCF Done:  E(RB3LYP) =  -423.168837437     A.U. after    1 cycles

 The electronic state is 1-A.
 Alpha  occ. eigenvalues --  -19.14688 -19.13220 -10.26809 -10.24529 -10.21447
 Alpha  occ. eigenvalues --  -10.21324 -10.21235 -10.19877 -10.18033  -1.03937
 Alpha  occ. eigenvalues --   -1.03191  -0.91205  -0.76683  -0.70342  -0.67632
 Alpha  occ. eigenvalues --   -0.61719  -0.60158  -0.53724  -0.52152  -0.49108
 Alpha  occ. eigenvalues --   -0.45680  -0.45353  -0.43461  -0.42369  -0.40831
 Alpha  occ. eigenvalues --   -0.39957  -0.38219  -0.37192  -0.35749  -0.33586
 Alpha  occ. eigenvalues --   -0.31291  -0.27826  -0.26502  -0.24798
 Alpha virt. eigenvalues --   -0.02350   0.06887   0.08740   0.09960   0.11345
 Alpha virt. eigenvalues --    0.12099   0.12711   0.13362   0.15870   0.16395
 Alpha virt. eigenvalues --    0.16464   0.17375   0.19503   0.21123   0.22533

 Mulliken charges:
               1
     1  C   -0.426700
     2  C   -0.090420
     3  C    0.149067
     4  O   -0.435371
     5  C   -0.153734
     6  C   -0.341915
     7  C    0.263498
     8  C    0.050002
     9  O   -0.273901
    10  H    0.125016
    11  H    0.133398
    12  H    0.112645
    13  H    0.090697
    14  H    0.093199
    15  H    0.282093
    16  H    0.107643
    17  H    0.127809
    18  H    0.124124
    19  H    0.062851
 Sum of Mulliken charges =   0.00000

 Dipole moment (field-independent basis, Debye):
    X=              0.6060    Y=             -1.2348    Z=              1.7081  Tot=              2.1931
 Quadrupole moment (field-independent basis, Debye-Ang):
   XX=            -64.4114   YY=            -51.2812   ZZ=            -51.5833
   XY=              4.3593   XZ=             -2.6928   YZ=              1.0434

  Exact polarizability:  83.007   0.674  76.081   3.633  -4.207  73.029
 Approx polarizability: 122.947  -8.667 111.227  10.823 -11.852 115.774

                      1                      2                      3
                      A                      A                      A
 Frequencies --     75.4408               151.7450               156.6201
 Red. masses --      6.1538                 4.1856                 3.2307
 Frc consts  --      0.0206                 0.0568                 0.0467
 IR Inten    --      5.4147                 6.0722                 1.9768

                      4                      5                      6
                      A                      A                      A
 Frequencies --    203.9886               228.6391               280.1813
 Red. masses --      1.0523                 2.4497                 3.0133
 Frc consts  --      0.0258                 0.0755                 0.1394
 IR Inten    --      0.0918                 0.8985                 2.6932

                      7                      8                      9
                      A                      A                      A
 Frequencies --    312.3597               345.8264               379.1825
 Red. masses --      1.1810                 2.5939                 2.3801
 Frc consts  --      0.0679                 0.1828                 0.2016
 IR Inten    --     62.4503                 5.2511                30.7106

                     10                     11                     12
                      A                      A                      A
 Frequencies --    453.9404               493.2509               546.5725
 Red. masses --      3.2149                 4.6255                 3.5544
 Frc consts  --      0.3903                 0.6630                 0.6256
 IR Inten    --      0.7319                 0.1068                12.3940

                     13                     14                     15
                      A                      A                      A
 Frequencies --    678.1904               736.3969               784.1877
 Red. masses --      4.4783                 3.3753                 3.5470
 Frc consts  --      1.2136                 1.0784                 1.2852
 IR Inten    --     12.8468                 7.0160                 9.1312

                     16                     17                     18
                      A                      A                      A
 Frequencies --    855.6552               869.6579               939.4444
 Red. masses --      1.8446                 1.6596                 1.4290
 Frc consts  --      0.7957                 0.7395                 0.7431
 IR Inten    --      9.0822                11.2425                 7.9237

                     19                     20                     21
                      A                      A                      A
 Frequencies --    969.4873               995.7037              1029.8765
 Red. masses --      1.9288                 1.6795                 1.4128
 Frc consts  --      1.0681                 0.9810                 0.8829
 IR Inten    --     36.9304                28.4219                 0.3275

                     22                     23                     24
                      A                      A                      A
 Frequencies --   1048.5020              1083.7789              1093.0167
 Red. masses --      1.5716                 1.6003                 1.4767
 Frc consts  --      1.0179                 1.1074                 1.0394
 IR Inten    --      4.9791                 0.2186                 7.3440

                     25                     26                     27
                      A                      A                      A
 Frequencies --   1102.8576              1115.0285              1131.4834
 Red. masses --      2.2343                 2.3555                 2.3592
 Frc consts  --      1.6012                 1.7254                 1.7795
 IR Inten    --     32.7276                 4.9902                77.6648

                     28                     29                     30
                      A                      A                      A
 Frequencies --   1205.0197              1233.6343              1249.2110
 Red. masses --      1.6792                 1.7558                 1.6283
 Frc consts  --      1.4366                 1.5743                 1.4971
 IR Inten    --     24.8754                 5.4520                12.4587

                     31                     32                     33
                      A                      A                      A
 Frequencies --   1284.0581              1300.3926              1367.1803
 Red. masses --      1.6542                 2.2963                 1.7932
 Frc consts  --      1.6070                 2.2878                 1.9748
 IR Inten    --      5.5673                14.7493                 2.2718

                     34                     35                     36
                      A                      A                      A
 Frequencies --   1391.7262              1406.9882              1431.6750
 Red. masses --      1.7098                 1.2942                 1.2547
 Frc consts  --      1.9512                 1.5095                 1.5153
 IR Inten    --     14.4635                 4.1604                77.8850

                     37                     38                     39
                      A                      A                      A
 Frequencies --   1435.7193              1484.7133              1494.4597
 Red. masses --      1.4484                 1.2043                 1.0682
 Frc consts  --      1.7591                 1.5641                 1.4057
 IR Inten    --     17.9053                 8.6752                 1.5093

                     40                     41                     42
                      A                      A                      A
 Frequencies --   1498.8523              1796.0657              2848.6513
 Red. masses --      1.0708                10.4514                 1.0815
 Frc consts  --      1.4173                19.8642                 5.1708
 IR Inten    --      9.5115               243.0458               123.7731

                     43                     44                     45
                      A                      A                      A
 Frequencies --   3032.9041              3049.8406              3057.5367
 Red. masses --      1.0354                 1.0849                 1.0851
 Frc consts  --      5.6117                 5.9455                 5.9768
 IR Inten    --     17.6616                11.0944                34.0038

                     46                     47                     48
                      A                      A                      A
 Frequencies --   3100.1102              3106.8803              3113.9172
 Red. masses --      1.1000                 1.1010                 1.0560
 Frc consts  --      6.2288                 6.2613                 6.0329
 IR Inten    --     24.4057                15.5062                19.9023

                     49                     50                     51
                      A                      A                      A
 Frequencies --   3184.2575              3199.0257              3796.5965
 Red. masses --      1.0956                 1.1125                 1.0658
 Frc consts  --      6.5453                 6.7081                 9.0514
 IR Inten    --      6.2621                 8.7449                14.0108

 - Thermochemistry -
 -------------------
 Temperature   298.150 Kelvin.  Pressure   1.00000 Atm.
 Atom     1 has atomic number  6 and mass  12.00000

 Molecular mass:   126.06808 amu.
 Principal axes and moments of inertia in atomic units:
                           1         2         3
     Eigenvalues --   833.626531372.506321484.68422
           X            0.99897   0.04459  -0.00837
           Y           -0.04412   0.99777   0.05005
           Z            0.01058  -0.04963   0.99871
 This molecule is an asymmetric top.
 Rotational symmetry number  1.
 Warning -- assumption of classical behavior for rotation
           may cause significant error
 Rotational temperatures (Kelvin)      0.10390     0.06311     0.05834
 Rotational constants (GHZ):           2.16493     1.31492     1.21557
 Zero-point vibrational energy     413491.8 (Joules/Mol)
                                   98.82691 (Kcal/Mol)
 Warning -- explicit consideration of  12 degrees of freedom as
           vibrations may cause significant error
 Vibrational temperatures:    108.54   218.33   225.34   293.49   328.96
          (Kelvin)            403.12   449.42   497.57   545.56   653.12
                              709.68   786.39   975.76  1059.51  1128.27
                             1231.10  1251.24  1351.65  1394.87  1432.59
                             1481.76  1508.56  1559.31  1572.61  1586.76
                             1604.28  1627.95  1733.75  1774.92  1797.33
                             1847.47  1870.97  1967.07  2002.38  2024.34
                             2059.86  2065.68  2136.17  2150.19  2156.51
                             2584.13  4098.57  4363.67  4388.03  4399.11
                             4460.36  4470.10  4480.23  4581.43  4602.68
                             5462.45

 Zero-point correction=                           0.157491 (Hartree/Particle)
 Thermal correction to Energy=                    0.166538
 Thermal correction to Enthalpy=                  0.167482
 Thermal correction to Gibbs Free Energy=         0.123815
 Sum of electronic and zero-point Energies=           -423.011347
 Sum of electronic and thermal Energies=              -423.002299
 Sum of electronic and thermal Enthalpies=            -423.001355
 Sum of electronic and thermal Free Energies=         -423.045023

                     E (Thermal)             CV                S
                      KCal/Mol        Cal/Mol-Kelvin    Cal/Mol-Kelvin
 Total                  104.504             33.929             91.906
 Electronic               0.000              0.000              0.000
 Translational            0.889              2.981             40.409
 Rotational               0.889              2.981             28.920
 Vibrational            102.727             27.967             22.577
 Vibration     1          0.599              1.965              4.006
 Vibration     2          0.619              1.901              2.650
 Vibration     3          0.620              1.895              2.590
 Vibration     4          0.640              1.834              2.097
 Vibration     5          0.651              1.797              1.890
 Vibration     6          0.680              1.710              1.533
 Vibration     7          0.701              1.650              1.350
 Vibration     8          0.724              1.584              1.185
 Vibration     9          0.749              1.515              1.042
 Vibration    10          0.812              1.352              0.784
 Vibration    11          0.849              1.265              0.675
 Vibration    12          0.902              1.147              0.551

 Optimization completed.
    -- Stationary point found.
 Normal termination of Gaussian 09 at Mon Jan 27 23:51:51 2020.
