 Gaussian 09, Revision D.01,
 Gaussian 09:  ES64L-G09RevD.01 24-Apr-2013

 -----------------------------
 # b3lyp 6-31G(2df,p) opt Freq
 -----------------------------

 -----
 titel
 -----
 Symbolic Z-matrix:
 Charge =  0 Multiplicity = 1

 SCF Done:  E(RB3LYP) =  -423.126192739     A.U. after   14 cycles
 Optimization completed.
    -- Stationary point found.
 Normal termination of Gaussian 09 at Mon Jan 27 15:37:05 2020.

 ----------------------------------------------------------------------
 #N Geom=AllCheck Guess=TCheck SCRF=Check GenChk RB3LYP/6-31G(2df,p) Fr
 eq
 ----------------------------------------------------------------------

 Structure from the checkpoint file:  "/scratch/puck/g09_db49586e-e70e-46c5-b5a6-678405b87813/Gau-164803.chk"
 -----
 titel
 -----
 Charge =  0 Multiplicity = 1

                         Standard orientation:
 ---------------------------------------------------------------------
 Center     Atomic      Atomic             Coordinates (Angstroms)
 Number     Number       Type             X           Y           Z
 ---------------------------------------------------------------------
      1          6           0       -1.169544    1.892199    0.070737
      2          6           0       -0.932957    0.451586   -0.416520
      3          6           0       -1.846853   -0.506201    0.336024
      4          8           0       -2.675855   -1.207330   -0.183549
      5          6           0        0.504890    0.033095   -0.216236
      6          6           0        1.179087   -1.350592   -0.433654
      7          6           0        2.154918   -0.419913    0.317430
      8          6           0        1.821774    0.727281   -0.664078
      9          8           0        1.035037    0.024425    1.180437
     10          1           0       -0.539905    2.591231   -0.486631
     11          1           0       -2.213302    2.185947   -0.071006
     12          1           0       -0.918807    1.986070    1.131145
     13          1           0       -1.173923    0.356964   -1.481116
     14          1           0       -1.694082   -0.505886    1.437595
     15          1           0        0.766935   -2.168421    0.158623
     16          1           0        1.426357   -1.644933   -1.456559
     17          1           0        3.098522   -0.655563    0.807786
     18          1           0        1.977863    1.731759   -0.269604
     19          1           0        2.129002    0.621342   -1.707555
 ---------------------------------------------------------------------

 SCF Done:  E(RB3LYP) =  -423.126192739     A.U. after    1 cycles

 The electronic state is 1-A.
 Alpha  occ. eigenvalues --  -19.14041 -19.13696 -10.27012 -10.26283 -10.25577
 Alpha  occ. eigenvalues --  -10.20595 -10.19985 -10.19795 -10.19160  -1.06120
 Alpha  occ. eigenvalues --   -1.04686  -0.81203  -0.79438  -0.69163  -0.67467
 Alpha  occ. eigenvalues --   -0.62945  -0.57888  -0.54832  -0.51284  -0.46275
 Alpha  occ. eigenvalues --   -0.45793  -0.45637  -0.44437  -0.41862  -0.40412
 Alpha  occ. eigenvalues --   -0.39831  -0.37574  -0.36506  -0.35648  -0.34147
 Alpha  occ. eigenvalues --   -0.33172  -0.31596  -0.25290  -0.24121
 Alpha virt. eigenvalues --   -0.02396   0.08369   0.09377   0.11027   0.12154
 Alpha virt. eigenvalues --    0.12550   0.13305   0.13841   0.14531   0.16139
 Alpha virt. eigenvalues --    0.16828   0.17036   0.17348   0.18444   0.19520

 Mulliken charges:
               1
     1  C   -0.417030
     2  C   -0.213926
     3  C    0.160355
     4  O   -0.251918
     5  C    0.429601
     6  C   -0.266723
     7  C    0.052267
     8  C   -0.271719
     9  O   -0.349034
    10  H    0.129408
    11  H    0.128740
    12  H    0.145276
    13  H    0.102291
    14  H    0.096559
    15  H    0.114717
    16  H    0.100455
    17  H    0.100992
    18  H    0.110502
    19  H    0.099188
 Sum of Mulliken charges =   0.00000

 Dipole moment (field-independent basis, Debye):
    X=              2.2736    Y=              1.4043    Z=             -1.0420  Tot=              2.8683
 Quadrupole moment (field-independent basis, Debye-Ang):
   XX=            -56.8774   YY=            -53.4735   ZZ=            -54.2093
   XY=             -5.9718   XZ=             -3.0407   YZ=             -1.0711

  Exact polarizability:  84.486   2.131  76.266   0.298   0.161  67.662
 Approx polarizability: 116.831   7.809 109.741   3.858   3.352 111.443

                      1                      2                      3
                      A                      A                      A
 Frequencies --     22.5921                54.0231               170.0973
 Red. masses --      4.8655                 3.9599                 2.9350
 Frc consts  --      0.0015                 0.0068                 0.0500
 IR Inten    --      6.2236                 2.0269                 1.9152

                      4                      5                      6
                      A                      A                      A
 Frequencies --    184.5119               211.1810               290.0462
 Red. masses --      2.0680                 1.2926                 2.2624
 Frc consts  --      0.0415                 0.0340                 0.1121
 IR Inten    --      3.2824                 0.7763                 0.6564

                      7                      8                      9
                      A                      A                      A
 Frequencies --    366.7125               412.3852               462.9774
 Red. masses --      3.9760                 3.1285                 4.3184
 Frc consts  --      0.3150                 0.3135                 0.5454
 IR Inten    --      0.4505                10.0471                 5.1182

                     10                     11                     12
                      A                      A                      A
 Frequencies --    524.7167               603.8667               684.6819
 Red. masses --      1.8238                 2.6073                 3.8445
 Frc consts  --      0.2959                 0.5602                 1.0619
 IR Inten    --      4.3497                 4.7237                11.8124

                     13                     14                     15
                      A                      A                      A
 Frequencies --    733.8554               801.8884               883.8787
 Red. masses --      3.6101                 2.5700                 2.0782
 Frc consts  --      1.1455                 0.9737                 0.9566
 IR Inten    --     17.2167                 0.6365                13.7834

                     16                     17                     18
                      A                      A                      A
 Frequencies --    898.9756               912.4035               942.1275
 Red. masses --      2.7706                 2.6072                 1.8173
 Frc consts  --      1.3192                 1.2788                 0.9504
 IR Inten    --     19.3924                 9.0072                 4.1201

                     19                     20                     21
                      A                      A                      A
 Frequencies --    954.6220               983.1144               985.9204
 Red. masses --      2.1844                 3.2811                 1.3520
 Frc consts  --      1.1728                 1.8685                 0.7743
 IR Inten    --      7.0150                22.1556                 3.6473

                     22                     23                     24
                      A                      A                      A
 Frequencies --   1052.8780              1061.8264              1096.7086
 Red. masses --      1.3903                 1.5392                 1.5542
 Frc consts  --      0.9080                 1.0225                 1.1014
 IR Inten    --     13.8210                 1.7666                 6.4910

                     25                     26                     27
                      A                      A                      A
 Frequencies --   1119.6559              1136.6007              1149.8076
 Red. masses --      1.8631                 1.6275                 2.0601
 Frc consts  --      1.3761                 1.2388                 1.6047
 IR Inten    --      1.6384                 1.3232                11.8199

                     28                     29                     30
                      A                      A                      A
 Frequencies --   1167.0703              1216.1960              1233.1042
 Red. masses --      1.5339                 1.6862                 1.4700
 Frc consts  --      1.2310                 1.4695                 1.3169
 IR Inten    --      3.3713                18.7555                 1.7082

                     31                     32                     33
                      A                      A                      A
 Frequencies --   1243.6282              1262.7071              1299.0231
 Red. masses --      1.7420                 1.8703                 1.5957
 Frc consts  --      1.5873                 1.7569                 1.5865
 IR Inten    --      2.9513                27.5004                 9.4571

                     34                     35                     36
                      A                      A                      A
 Frequencies --   1358.1927              1404.3661              1424.7487
 Red. masses --      2.2117                 1.2123                 1.1908
 Frc consts  --      2.4038                 1.4088                 1.4242
 IR Inten    --     11.7783                 3.5307                 3.7283

                     37                     38                     39
                      A                      A                      A
 Frequencies --   1467.3665              1495.2821              1500.7142
 Red. masses --      1.1279                 1.0468                 1.0503
 Frc consts  --      1.4309                 1.3790                 1.3937
 IR Inten    --      1.6590                 7.6043                 5.7082

                     40                     41                     42
                      A                      A                      A
 Frequencies --   1512.1648              1832.1659              2896.7985
 Red. masses --      1.2505                10.1221                 1.0833
 Frc consts  --      1.6847                20.0194                 5.3558
 IR Inten    --      3.5942               174.8309                63.9070

                     43                     44                     45
                      A                      A                      A
 Frequencies --   3045.6449              3059.8856              3061.4414
 Red. masses --      1.0340                 1.0838                 1.0568
 Frc consts  --      5.6513                 5.9789                 5.8359
 IR Inten    --     14.9555                 6.0221                28.5881

                     46                     47                     48
                      A                      A                      A
 Frequencies --   3070.0773              3118.6742              3125.0088
 Red. masses --      1.0558                 1.1023                 1.1021
 Frc consts  --      5.8629                 6.3166                 6.3411
 IR Inten    --     27.2099                17.0920                15.3042

                     49                     50                     51
                      A                      A                      A
 Frequencies --   3129.6087              3146.9373              3151.6362
 Red. masses --      1.0943                 1.1093                 1.1108
 Frc consts  --      6.3151                 6.4726                 6.5007
 IR Inten    --     51.8875                13.4058                28.3419

 - Thermochemistry -
 -------------------
 Temperature   298.150 Kelvin.  Pressure   1.00000 Atm.
 Atom     1 has atomic number  6 and mass  12.00000

 Molecular mass:   126.06808 amu.
 Principal axes and moments of inertia in atomic units:
                           1         2         3
     Eigenvalues --   628.915811405.201521697.07857
           X            0.99905  -0.04029  -0.01639
           Y            0.04023   0.99918  -0.00428
           Z            0.01655   0.00361   0.99986
 This molecule is an asymmetric top.
 Rotational symmetry number  1.
 Warning -- assumption of classical behavior for rotation
           may cause significant error
 Rotational temperatures (Kelvin)      0.13772     0.06164     0.05104
 Rotational constants (GHZ):           2.86961     1.28433     1.06344
 Zero-point vibrational energy     412260.0 (Joules/Mol)
                                   98.53252 (Kcal/Mol)
 Warning -- explicit consideration of  11 degrees of freedom as
           vibrations may cause significant error
 Vibrational temperatures:     32.50    77.73   244.73   265.47   303.84
          (Kelvin)            417.31   527.62   593.33   666.12   754.95
                              868.83   985.10  1055.85  1153.74  1271.70
                             1293.42  1312.74  1355.51  1373.49  1414.48
                             1418.52  1514.85  1527.73  1577.92  1610.93
                             1635.31  1654.31  1679.15  1749.83  1774.16
                             1789.30  1816.75  1869.00  1954.13  2020.57
                             2049.89  2111.21  2151.37  2159.19  2175.67
                             2636.07  4167.84  4382.00  4402.49  4404.73
                             4417.15  4487.07  4496.19  4502.80  4527.74
                             4534.50

 Zero-point correction=                           0.157022 (Hartree/Particle)
 Thermal correction to Energy=                    0.165912
 Thermal correction to Enthalpy=                  0.166856
 Thermal correction to Gibbs Free Energy=         0.121888
 Sum of electronic and zero-point Energies=           -422.969171
 Sum of electronic and thermal Energies=              -422.960281
 Sum of electronic and thermal Enthalpies=            -422.959336
 Sum of electronic and thermal Free Energies=         -423.004305

                     E (Thermal)             CV                S
                      KCal/Mol        Cal/Mol-Kelvin    Cal/Mol-Kelvin
 Total                  104.111             32.585             94.643
 Electronic               0.000              0.000              0.000
 Translational            0.889              2.981             40.409
 Rotational               0.889              2.981             28.796
 Vibrational            102.334             26.624             25.438
 Vibration     1          0.593              1.985              6.392
 Vibration     2          0.596              1.976              4.664
 Vibration     3          0.625              1.879              2.434
 Vibration     4          0.631              1.861              2.282
 Vibration     5          0.643              1.824              2.033
 Vibration     6          0.686              1.692              1.474
 Vibration     7          0.740              1.541              1.094
 Vibration     8          0.776              1.443              0.918
 Vibration     9          0.821              1.332              0.757
 Vibration    10          0.880              1.195              0.599
 Vibration    11          0.962              1.024              0.443

 Optimization completed.
    -- Stationary point found.
 Normal termination of Gaussian 09 at Mon Jan 27 16:22:01 2020.
