 Gaussian 09, Revision D.01,
 Gaussian 09:  ES64L-G09RevD.01 24-Apr-2013

 -----------------------------
 # b3lyp 6-31G(2df,p) opt Freq
 -----------------------------

 -----
 titel
 -----
 Symbolic Z-matrix:
 Charge =  0 Multiplicity = 1

 SCF Done:  E(RB3LYP) =  -423.203069930     A.U. after   14 cycles
 Optimization completed.
    -- Stationary point found.
 Normal termination of Gaussian 09 at Mon Jan 27 14:00:43 2020.

 ----------------------------------------------------------------------
 #N Geom=AllCheck Guess=TCheck SCRF=Check GenChk RB3LYP/6-31G(2df,p) Fr
 eq
 ----------------------------------------------------------------------

 Structure from the checkpoint file:  "/scratch/puck/g09_aebec09a-1142-4dd3-a957-e017b9f38494/Gau-77185.chk"
 -----
 titel
 -----
 Charge =  0 Multiplicity = 1

                         Standard orientation:
 ---------------------------------------------------------------------
 Center     Atomic      Atomic             Coordinates (Angstroms)
 Number     Number       Type             X           Y           Z
 ---------------------------------------------------------------------
      1          6           0       -2.945925    0.053817    0.630903
      2          6           0       -1.678474   -0.467706    0.002003
      3          8           0       -1.446379   -1.639697   -0.189005
      4          6           0       -0.635651    0.600081   -0.416935
      5          8           0       -0.882532    1.770926   -0.238996
      6          6           0        0.661276    0.088291   -1.010103
      7          6           0        1.558014   -0.502216    0.071958
      8          6           0        3.055184   -0.363411   -0.036989
      9          6           0        2.300636    0.413989    1.012736
     10          1           0       -2.706075    0.628996    1.531001
     11          1           0       -3.442997    0.751896   -0.049929
     12          1           0       -3.606569   -0.778183    0.874980
     13          1           0        0.443415   -0.677586   -1.761346
     14          1           0        1.154111    0.937201   -1.492203
     15          1           0        1.187152   -1.432441    0.488375
     16          1           0        3.668944   -1.199369    0.279576
     17          1           0        3.453596    0.183620   -0.885081
     18          1           0        2.402704    0.115770    2.050176
     19          1           0        2.186653    1.483190    0.867029
 ---------------------------------------------------------------------

 SCF Done:  E(RB3LYP) =  -423.203069930     A.U. after    1 cycles

 The electronic state is 1-A.
 Alpha  occ. eigenvalues --  -19.15443 -19.15224 -10.28358 -10.27904 -10.20049
 Alpha  occ. eigenvalues --  -10.19600 -10.19389 -10.18901 -10.18759  -1.06757
 Alpha  occ. eigenvalues --   -1.05212  -0.86347  -0.75933  -0.75066  -0.63460
 Alpha  occ. eigenvalues --   -0.60296  -0.58075  -0.51592  -0.49349  -0.48707
 Alpha  occ. eigenvalues --   -0.47226  -0.45895  -0.44754  -0.42446  -0.41614
 Alpha  occ. eigenvalues --   -0.39643  -0.38216  -0.37161  -0.36620  -0.35254
 Alpha  occ. eigenvalues --   -0.31432  -0.29732  -0.28957  -0.23525
 Alpha virt. eigenvalues --   -0.08165   0.03798   0.09751   0.10442   0.11197
 Alpha virt. eigenvalues --    0.13427   0.14283   0.14438   0.15176   0.15861
 Alpha virt. eigenvalues --    0.17070   0.18032   0.20259   0.22286   0.23434

 Mulliken charges:
               1
     1  C   -0.473664
     2  C    0.298344
     3  O   -0.277635
     4  C    0.293399
     5  O   -0.283692
     6  C   -0.320048
     7  C    0.010709
     8  C   -0.271193
     9  C   -0.253673
    10  H    0.156676
    11  H    0.156753
    12  H    0.140105
    13  H    0.129045
    14  H    0.115570
    15  H    0.109771
    16  H    0.116477
    17  H    0.114593
    18  H    0.114533
    19  H    0.123930
 Sum of Mulliken charges =   0.00000

 Dipole moment (field-independent basis, Debye):
    X=              0.2065    Y=             -0.0639    Z=              0.2346  Tot=              0.3190
 Quadrupole moment (field-independent basis, Debye-Ang):
   XX=            -48.6280   YY=            -61.0970   ZZ=            -50.4758
   XY=             -1.3418   XZ=             -1.0565   YZ=             -0.9433

  Exact polarizability:  90.322  -3.362  75.323  -3.332   1.516  63.837
 Approx polarizability: 109.042  -7.588 132.854  -3.895   5.946  94.608

                      1                      2                      3
                      A                      A                      A
 Frequencies --     44.0601                55.0022                68.3653
 Red. masses --      3.6312                 3.9359                 3.4316
 Frc consts  --      0.0042                 0.0070                 0.0094
 IR Inten    --      3.8806                 1.1154                 1.3579

                      4                      5                      6
                      A                      A                      A
 Frequencies --    113.0709               138.2050               236.2275
 Red. masses --      1.0863                 3.6735                 3.6672
 Frc consts  --      0.0082                 0.0413                 0.1206
 IR Inten    --      0.0608                 2.7091                12.7114

                      7                      8                      9
                      A                      A                      A
 Frequencies --    309.3086               333.6195               384.2018
 Red. masses --      2.9534                 3.1914                 2.2503
 Frc consts  --      0.1665                 0.2093                 0.1957
 IR Inten    --      1.7272                 3.2096                 0.1112

                     10                     11                     12
                      A                      A                      A
 Frequencies --    414.0713               533.8289               545.1385
 Red. masses --      4.0408                 4.0141                 3.9631
 Frc consts  --      0.4082                 0.6740                 0.6939
 IR Inten    --      2.8204                28.6898                20.9005

                     13                     14                     15
                      A                      A                      A
 Frequencies --    665.4243               717.3417               776.5484
 Red. masses --      3.2297                 3.0030                 1.1340
 Frc consts  --      0.8426                 0.9104                 0.4029
 IR Inten    --      0.0202                 0.3102                 0.3352

                     16                     17                     18
                      A                      A                      A
 Frequencies --    810.3016               836.4430               894.1018
 Red. masses --      1.6854                 1.5305                 2.3650
 Frc consts  --      0.6520                 0.6309                 1.1139
 IR Inten    --      4.4608                14.6808                 3.7014

                     19                     20                     21
                      A                      A                      A
 Frequencies --    939.4203               950.7365               984.9401
 Red. masses --      2.1495                 2.1491                 2.1797
 Frc consts  --      1.1177                 1.1445                 1.2458
 IR Inten    --     24.7369                13.4519                 1.8711

                     22                     23                     24
                      A                      A                      A
 Frequencies --   1041.9342              1055.1371              1075.5124
 Red. masses --      2.1776                 1.3882                 1.8755
 Frc consts  --      1.3929                 0.9106                 1.2782
 IR Inten    --      1.7262                 3.3134                37.7648

                     25                     26                     27
                      A                      A                      A
 Frequencies --   1080.9119              1147.3628              1161.1828
 Red. masses --      1.3778                 1.1400                 1.8292
 Frc consts  --      0.9484                 0.8842                 1.4532
 IR Inten    --      4.8353                11.5491                31.3930

                     28                     29                     30
                      A                      A                      A
 Frequencies --   1199.9906              1218.5883              1244.2893
 Red. masses --      1.4014                 1.7569                 1.7341
 Frc consts  --      1.1890                 1.5372                 1.5818
 IR Inten    --      0.9838                 7.7297                 6.6098

                     31                     32                     33
                      A                      A                      A
 Frequencies --   1286.9589              1311.5755              1383.2164
 Red. masses --      1.7617                 1.8429                 1.3600
 Frc consts  --      1.7192                 1.8679                 1.5331
 IR Inten    --      2.0681                10.5011                26.6049

                     34                     35                     36
                      A                      A                      A
 Frequencies --   1395.9381              1452.0068              1458.2861
 Red. masses --      1.5642                 1.0532                 1.0888
 Frc consts  --      1.7958                 1.3082                 1.3642
 IR Inten    --      2.5899                11.8178                13.4278

                     37                     38                     39
                      A                      A                      A
 Frequencies --   1460.4135              1471.4483              1505.5031
 Red. masses --      1.0664                 1.0882                 1.3444
 Frc consts  --      1.3400                 1.3882                 1.7953
 IR Inten    --      4.0610                 0.8147                 1.9289

                     40                     41                     42
                      A                      A                      A
 Frequencies --   1799.2665              1803.8135              3049.8517
 Red. masses --     11.5964                11.8632                 1.0355
 Frc consts  --     22.1189                22.7424                 5.6751
 IR Inten    --     31.9888               178.3038                 0.3750

                     43                     44                     45
                      A                      A                      A
 Frequencies --   3051.1475              3108.7965              3111.3284
 Red. masses --      1.0569                 1.1049                 1.0969
 Frc consts  --      5.7972                 6.2913                 6.2563
 IR Inten    --      9.3409                 6.3698                 2.1159

                     46                     47                     48
                      A                      A                      A
 Frequencies --   3131.8569              3136.3551              3162.0677
 Red. masses --      1.0505                 1.0587                 1.1045
 Frc consts  --      6.0710                 6.1356                 6.5064
 IR Inten    --     18.5334                 8.1392                 7.5678

                     49                     50                     51
                      A                      A                      A
 Frequencies --   3171.9309              3210.4081              3225.4674
 Red. masses --      1.0894                 1.1179                 1.1149
 Frc consts  --      6.4577                 6.7883                 6.8341
 IR Inten    --      4.2382                 0.3593                17.0516

 - Thermochemistry -
 -------------------
 Temperature   298.150 Kelvin.  Pressure   1.00000 Atm.
 Atom     1 has atomic number  6 and mass  12.00000

 Molecular mass:   126.06808 amu.
 Principal axes and moments of inertia in atomic units:
                           1         2         3
     Eigenvalues --   582.501171848.528702091.66691
           X            0.99992  -0.00733  -0.00986
           Y            0.00739   0.99996   0.00570
           Z            0.00982  -0.00577   0.99994
 This molecule is an asymmetric top.
 Rotational symmetry number  1.
 Warning -- assumption of classical behavior for rotation
           may cause significant error
 Rotational temperatures (Kelvin)      0.14869     0.04686     0.04141
 Rotational constants (GHZ):           3.09826     0.97631     0.86282
 Zero-point vibrational energy     410695.4 (Joules/Mol)
                                   98.15855 (Kcal/Mol)
 Warning -- explicit consideration of  12 degrees of freedom as
           vibrations may cause significant error
 Vibrational temperatures:     63.39    79.14    98.36   162.68   198.85
          (Kelvin)            339.88   445.03   480.00   552.78   595.76
                              768.06   784.33   957.40  1032.09  1117.28
                             1165.84  1203.45  1286.41  1351.61  1367.90
                             1417.11  1499.11  1518.11  1547.42  1555.19
                             1650.80  1670.68  1726.52  1753.27  1790.25
                             1851.64  1887.06  1990.14  2008.44  2089.11
                             2098.15  2101.21  2117.08  2166.08  2588.74
                             2595.28  4388.05  4389.92  4472.86  4476.50
                             4506.04  4512.51  4549.50  4563.70  4619.06
                             4640.72

 Zero-point correction=                           0.156426 (Hartree/Particle)
 Thermal correction to Energy=                    0.166328
 Thermal correction to Enthalpy=                  0.167272
 Thermal correction to Gibbs Free Energy=         0.120023
 Sum of electronic and zero-point Energies=           -423.046644
 Sum of electronic and thermal Energies=              -423.036742
 Sum of electronic and thermal Enthalpies=            -423.035798
 Sum of electronic and thermal Free Energies=         -423.083047

                     E (Thermal)             CV                S
                      KCal/Mol        Cal/Mol-Kelvin    Cal/Mol-Kelvin
 Total                  104.372             34.740             99.445
 Electronic               0.000              0.000              0.000
 Translational            0.889              2.981             40.409
 Rotational               0.889              2.981             29.200
 Vibrational            102.595             28.779             29.836
 Vibration     1          0.595              1.980              5.068
 Vibration     2          0.596              1.976              4.629
 Vibration     3          0.598              1.969              4.200
 Vibration     4          0.607              1.939              3.216
 Vibration     5          0.614              1.915              2.829
 Vibration     6          0.655              1.785              1.831
 Vibration     7          0.699              1.656              1.366
 Vibration     8          0.715              1.608              1.243
 Vibration     9          0.753              1.504              1.023
 Vibration    10          0.778              1.440              0.912
 Vibration    11          0.889              1.175              0.579
 Vibration    12          0.900              1.150              0.554

 Optimization completed.
    -- Stationary point found.
 Normal termination of Gaussian 09 at Mon Jan 27 14:40:13 2020.
