 Gaussian 09, Revision D.01,
 Gaussian 09:  ES64L-G09RevD.01 24-Apr-2013

 -----------------------------
 # b3lyp 6-31G(2df,p) opt Freq
 -----------------------------

 -----
 titel
 -----
 Symbolic Z-matrix:
 Charge =  0 Multiplicity = 1

 SCF Done:  E(RB3LYP) =  -423.232774788     A.U. after   14 cycles
 Optimization completed.
    -- Stationary point found.
 Normal termination of Gaussian 09 at Tue Jan 28 00:42:21 2020.

 ----------------------------------------------------------------------
 #N Geom=AllCheck Guess=TCheck SCRF=Check GenChk RB3LYP/6-31G(2df,p) Fr
 eq
 ----------------------------------------------------------------------

 Structure from the checkpoint file:  "/scratch/puck/g09_254fdae9-9908-4fe6-a868-2fc29d126480/Gau-71662.chk"
 -----
 titel
 -----
 Charge =  0 Multiplicity = 1

                         Standard orientation:
 ---------------------------------------------------------------------
 Center     Atomic      Atomic             Coordinates (Angstroms)
 Number     Number       Type             X           Y           Z
 ---------------------------------------------------------------------
      1          6           0       -2.594045   -0.760574   -0.037819
      2          6           0       -1.114590   -0.580261    0.288973
      3          6           0       -0.112854   -1.381653   -0.577396
      4          6           0        1.253353   -0.661882   -0.449599
      5          6           0        2.113052   -1.169361    0.723959
      6          6           0        0.882578    0.801738   -0.228798
      7          8           0        1.596885    1.763742   -0.318448
      8          6           0       -0.626007    0.856152    0.163952
      9          8           0       -1.257286    1.868156    0.311053
     10          1           0       -2.788851   -0.534568   -1.091286
     11          1           0       -2.918135   -1.787417    0.154674
     12          1           0       -3.202500   -0.082127    0.565614
     13          1           0       -0.946352   -0.847040    1.345039
     14          1           0       -0.056594   -2.431898   -0.278673
     15          1           0       -0.448478   -1.361179   -1.620880
     16          1           0        1.842329   -0.739359   -1.368430
     17          1           0        3.018531   -0.564818    0.821889
     18          1           0        1.570646   -1.120962    1.674258
     19          1           0        2.403683   -2.210772    0.557335
 ---------------------------------------------------------------------

 SCF Done:  E(RB3LYP) =  -423.232774788     A.U. after    1 cycles

 The electronic state is 1-A.
 Alpha  occ. eigenvalues --  -19.15223 -19.15188 -10.27531 -10.27490 -10.20997
 Alpha  occ. eigenvalues --  -10.20938 -10.20394 -10.19754 -10.18901  -1.06796
 Alpha  occ. eigenvalues --   -1.04717  -0.85597  -0.77831  -0.71019  -0.67770
 Alpha  occ. eigenvalues --   -0.64416  -0.57266  -0.51630  -0.49493  -0.47930
 Alpha  occ. eigenvalues --   -0.45772  -0.44480  -0.43215  -0.42726  -0.40608
 Alpha  occ. eigenvalues --   -0.40349  -0.38655  -0.38479  -0.37655  -0.35604
 Alpha  occ. eigenvalues --   -0.34532  -0.33769  -0.30224  -0.22777
 Alpha virt. eigenvalues --   -0.08638   0.03891   0.08141   0.09661   0.10520
 Alpha virt. eigenvalues --    0.13282   0.14543   0.15082   0.15460   0.16438
 Alpha virt. eigenvalues --    0.17163   0.18521   0.19144   0.20595   0.21957

 Mulliken charges:
               1
     1  C   -0.403425
     2  C   -0.100114
     3  C   -0.253907
     4  C   -0.109859
     5  C   -0.399634
     6  C    0.318566
     7  O   -0.288842
     8  C    0.308463
     9  O   -0.289087
    10  H    0.125008
    11  H    0.117894
    12  H    0.140848
    13  H    0.114156
    14  H    0.109169
    15  H    0.111306
    16  H    0.107487
    17  H    0.143345
    18  H    0.122762
    19  H    0.125865
 Sum of Mulliken charges =   0.00000

 Dipole moment (field-independent basis, Debye):
    X=             -0.1358    Y=             -4.4631    Z=             -0.0145  Tot=              4.4652
 Quadrupole moment (field-independent basis, Debye-Ang):
   XX=            -55.0364   YY=            -61.1507   ZZ=            -50.8682
   XY=             -0.9566   XZ=              0.9120   YZ=             -0.2370

  Exact polarizability:  86.407  -0.248  80.220  -1.027   0.024  60.544
 Approx polarizability: 114.955  -0.137 125.447  -3.795  -0.284  94.173

                      1                      2                      3
                      A                      A                      A
 Frequencies --     54.4927               106.5835               190.1592
 Red. masses --      6.4078                 2.5282                 1.1854
 Frc consts  --      0.0112                 0.0169                 0.0253
 IR Inten    --      0.0342                 0.2993                 1.4158

                      4                      5                      6
                      A                      A                      A
 Frequencies --    205.9525               233.3668               236.0491
 Red. masses --      2.3216                 1.9676                 1.3477
 Frc consts  --      0.0580                 0.0631                 0.0442
 IR Inten    --      3.2230                 3.1549                 0.5109

                      7                      8                      9
                      A                      A                      A
 Frequencies --    312.7010               321.8446               336.8414
 Red. masses --      3.6641                 5.9755                 2.7495
 Frc consts  --      0.2111                 0.3647                 0.1838
 IR Inten    --      1.4613                 2.9788                 3.2679

                     10                     11                     12
                      A                      A                      A
 Frequencies --    457.2427               520.5306               590.5151
 Red. masses --      3.3960                 5.1259                 3.8479
 Frc consts  --      0.4183                 0.8183                 0.7906
 IR Inten    --      5.8602                 1.1747                 5.8810

                     13                     14                     15
                      A                      A                      A
 Frequencies --    630.6745               669.2633               789.7633
 Red. masses --      4.2563                 4.9714                 2.9168
 Frc consts  --      0.9975                 1.3120                 1.0719
 IR Inten    --      2.9452                 0.0279                 2.7383

                     16                     17                     18
                      A                      A                      A
 Frequencies --    851.4389               891.7317               915.6190
 Red. masses --      2.0730                 2.4272                 1.5167
 Frc consts  --      0.8855                 1.1372                 0.7492
 IR Inten    --      0.9133                 7.2537                 6.1495

                     19                     20                     21
                      A                      A                      A
 Frequencies --    977.4431               997.8754              1005.6297
 Red. masses --      2.1862                 2.5668                 1.3643
 Frc consts  --      1.2306                 1.5059                 0.8129
 IR Inten    --     32.9262                22.0129                 4.5213

                     22                     23                     24
                      A                      A                      A
 Frequencies --   1045.3819              1071.0443              1124.1574
 Red. masses --      1.8226                 1.6876                 2.0388
 Frc consts  --      1.1735                 1.1406                 1.5180
 IR Inten    --      8.6221                15.5382                 3.4846

                     25                     26                     27
                      A                      A                      A
 Frequencies --   1156.1121              1180.2074              1207.9882
 Red. masses --      2.2897                 2.6290                 1.4885
 Frc consts  --      1.8032                 2.1575                 1.2798
 IR Inten    --      3.9820                28.5120                 9.4798

                     28                     29                     30
                      A                      A                      A
 Frequencies --   1272.9582              1303.0906              1311.4343
 Red. masses --      1.6540                 1.3442                 1.5080
 Frc consts  --      1.5791                 1.3448                 1.5281
 IR Inten    --      0.8407                 3.3986                 6.1788

                     31                     32                     33
                      A                      A                      A
 Frequencies --   1324.5742              1356.6352              1404.4143
 Red. masses --      1.4090                 1.7024                 1.2049
 Frc consts  --      1.4565                 1.8461                 1.4002
 IR Inten    --      0.9510                 5.8435                 1.7103

                     34                     35                     36
                      A                      A                      A
 Frequencies --   1411.3613              1492.0145              1494.8689
 Red. masses --      1.2168                 1.0575                 1.0445
 Frc consts  --      1.4281                 1.3870                 1.3751
 IR Inten    --      2.7566                 7.4460                 1.0825

                     37                     38                     39
                      A                      A                      A
 Frequencies --   1496.8321              1499.6196              1502.9358
 Red. masses --      1.0499                 1.0528                 1.0706
 Frc consts  --      1.3860                 1.3950                 1.4248
 IR Inten    --      5.3431                 2.7182                 7.0251

                     40                     41                     42
                      A                      A                      A
 Frequencies --   1836.8133              1855.5009              2983.2376
 Red. masses --     12.8854                12.7790                 1.0795
 Frc consts  --     25.6139                25.9221                 5.6605
 IR Inten    --    212.5248                37.4415                 8.5402

                     43                     44                     45
                      A                      A                      A
 Frequencies --   3036.9203              3038.9475              3042.2258
 Red. masses --      1.0385                 1.0545                 1.0412
 Frc consts  --      5.6433                 5.7375                 5.6778
 IR Inten    --     20.8333                 9.1957                36.1183

                     46                     47                     48
                      A                      A                      A
 Frequencies --   3065.6539              3092.1283              3106.6963
 Red. masses --      1.0834                 1.1020                 1.1009
 Frc consts  --      5.9992                 6.2078                 6.2603
 IR Inten    --      8.8612                17.7048                24.8994

                     49                     50                     51
                      A                      A                      A
 Frequencies --   3109.8140              3123.5126              3124.6957
 Red. masses --      1.1016                 1.1024                 1.1016
 Frc consts  --      6.2767                 6.3371                 6.3373
 IR Inten    --     25.4364                14.1027                11.8338

 - Thermochemistry -
 -------------------
 Temperature   298.150 Kelvin.  Pressure   1.00000 Atm.
 Atom     1 has atomic number  6 and mass  12.00000

 Molecular mass:   126.06808 amu.
 Principal axes and moments of inertia in atomic units:
                           1         2         3
     Eigenvalues --   804.491241167.000601760.17972
           X            0.99978  -0.01431   0.01547
           Y            0.01437   0.99989  -0.00387
           Z           -0.01541   0.00410   0.99987
 This molecule is an asymmetric top.
 Rotational symmetry number  1.
 Warning -- assumption of classical behavior for rotation
           may cause significant error
 Rotational temperatures (Kelvin)      0.10766     0.07422     0.04921
 Rotational constants (GHZ):           2.24333     1.54648     1.02532
 Zero-point vibrational energy     414909.8 (Joules/Mol)
                                   99.16581 (Kcal/Mol)
 Warning -- explicit consideration of  12 degrees of freedom as
           vibrations may cause significant error
 Vibrational temperatures:     78.40   153.35   273.60   296.32   335.76
          (Kelvin)            339.62   449.91   463.06   484.64   657.87
                              748.93   849.62   907.40   962.92  1136.29
                             1225.03  1283.00  1317.37  1406.32  1435.72
                             1446.88  1504.07  1540.99  1617.41  1663.39
                             1698.05  1738.02  1831.50  1874.85  1886.86
                             1905.76  1951.89  2020.64  2030.63  2146.67
                             2150.78  2153.60  2157.62  2162.39  2642.76
                             2669.65  4292.21  4369.45  4372.36  4377.08
                             4410.79  4448.88  4469.84  4474.32  4494.03
                             4495.73

 Zero-point correction=                           0.158031 (Hartree/Particle)
 Thermal correction to Energy=                    0.167228
 Thermal correction to Enthalpy=                  0.168172
 Thermal correction to Gibbs Free Energy=         0.123863
 Sum of electronic and zero-point Energies=           -423.074744
 Sum of electronic and thermal Energies=              -423.065547
 Sum of electronic and thermal Enthalpies=            -423.064602
 Sum of electronic and thermal Free Energies=         -423.108912

                     E (Thermal)             CV                S
                      KCal/Mol        Cal/Mol-Kelvin    Cal/Mol-Kelvin
 Total                  104.937             33.751             93.256
 Electronic               0.000              0.000              0.000
 Translational            0.889              2.981             40.409
 Rotational               0.889              2.981             28.893
 Vibrational            103.160             27.790             23.955
 Vibration     1          0.596              1.976              4.647
 Vibration     2          0.605              1.944              3.330
 Vibration     3          0.633              1.853              2.226
 Vibration     4          0.640              1.831              2.079
 Vibration     5          0.654              1.790              1.853
 Vibration     6          0.655              1.786              1.832
 Vibration     7          0.701              1.649              1.348
 Vibration     8          0.707              1.632              1.301
 Vibration     9          0.718              1.602              1.227
 Vibration    10          0.815              1.345              0.774
 Vibration    11          0.876              1.205              0.609
 Vibration    12          0.948              1.052              0.466

 Optimization completed.
    -- Stationary point found.
 Normal termination of Gaussian 09 at Tue Jan 28 01:24:06 2020.
