 Gaussian 09, Revision D.01,
 Gaussian 09:  ES64L-G09RevD.01 24-Apr-2013

 -----------------------------
 # b3lyp 6-31G(2df,p) opt Freq
 -----------------------------

 -----
 titel
 -----
 Symbolic Z-matrix:
 Charge =  0 Multiplicity = 1

 SCF Done:  E(RB3LYP) =  -423.195916275     A.U. after   14 cycles
 Optimization completed.
    -- Stationary point found.
 Normal termination of Gaussian 09 at Tue Jan 28 08:14:18 2020.

 ----------------------------------------------------------------------
 #N Geom=AllCheck Guess=TCheck SCRF=Check GenChk RB3LYP/6-31G(2df,p) Fr
 eq
 ----------------------------------------------------------------------

 Structure from the checkpoint file:  "/scratch/puck/g09_f4597dc5-e591-424a-8796-5cde3995db0c/Gau-17745.chk"
 -----
 titel
 -----
 Charge =  0 Multiplicity = 1

                         Standard orientation:
 ---------------------------------------------------------------------
 Center     Atomic      Atomic             Coordinates (Angstroms)
 Number     Number       Type             X           Y           Z
 ---------------------------------------------------------------------
      1          6           0       -0.324971    2.067211    0.202576
      2          6           0        0.204920    0.880987   -0.600371
      3          8           0        1.629469    0.743678   -0.455057
      4          6           0        1.898752   -0.116958    0.644213
      5          6           0        0.779978   -1.144117    0.637989
      6          6           0        0.413853   -1.691157   -0.694471
      7          6           0       -0.345948   -0.475542   -0.157788
      8          6           0       -1.758612   -0.706416    0.199619
      9          8           0       -2.660000    0.091257    0.097323
     10          1           0       -1.391828    2.204695    0.020268
     11          1           0       -0.181749    1.916408    1.277584
     12          1           0        0.216844    2.969576   -0.093059
     13          1           0        0.033770    1.054930   -1.668614
     14          1           0        2.891229   -0.550358    0.482510
     15          1           0        1.911296    0.427050    1.601000
     16          1           0        0.566293   -1.706963    1.539479
     17          1           0        1.076376   -1.510761   -1.534016
     18          1           0       -0.131391   -2.628504   -0.726760
     19          1           0       -1.954426   -1.739601    0.572889
 ---------------------------------------------------------------------

 SCF Done:  E(RB3LYP) =  -423.195916275     A.U. after    1 cycles

 The electronic state is 1-A.
 Alpha  occ. eigenvalues --  -19.14393 -19.13704 -10.27371 -10.24046 -10.23952
 Alpha  occ. eigenvalues --  -10.21608 -10.21369 -10.20854 -10.16952  -1.04718
 Alpha  occ. eigenvalues --   -1.04166  -0.88265  -0.77132  -0.70243  -0.66518
 Alpha  occ. eigenvalues --   -0.63043  -0.58872  -0.55691  -0.50842  -0.49006
 Alpha  occ. eigenvalues --   -0.47652  -0.44705  -0.43446  -0.41574  -0.40717
 Alpha  occ. eigenvalues --   -0.40535  -0.39459  -0.37847  -0.35591  -0.33291
 Alpha  occ. eigenvalues --   -0.30863  -0.29471  -0.25955  -0.25263
 Alpha virt. eigenvalues --   -0.02290   0.08532   0.10379   0.10753   0.11129
 Alpha virt. eigenvalues --    0.13048   0.13532   0.14786   0.15862   0.17019
 Alpha virt. eigenvalues --    0.17309   0.18311   0.19695   0.20123   0.21574

 Mulliken charges:
               1
     1  C   -0.407855
     2  C    0.038621
     3  O   -0.268856
     4  C   -0.100040
     5  C   -0.104569
     6  C   -0.334597
     7  C    0.246249
     8  C    0.077545
     9  O   -0.272737
    10  H    0.149762
    11  H    0.109787
    12  H    0.119493
    13  H    0.092629
    14  H    0.115506
    15  H    0.100935
    16  H    0.103100
    17  H    0.141818
    18  H    0.124307
    19  H    0.068905
 Sum of Mulliken charges =   0.00000

 Dipole moment (field-independent basis, Debye):
    X=              1.6510    Y=             -1.9579    Z=              0.7475  Tot=              2.6680
 Quadrupole moment (field-independent basis, Debye-Ang):
   XX=            -62.4885   YY=            -50.7376   ZZ=            -51.2310
   XY=              0.0879   XZ=              2.0013   YZ=             -0.2350

  Exact polarizability:  84.623  -4.665  79.982   1.554  -0.483  63.737
 Approx polarizability: 127.820 -13.868 113.565   2.381  -2.643 100.013

                      1                      2                      3
                      A                      A                      A
 Frequencies --     94.8790               167.2785               196.3942
 Red. masses --      4.4302                 3.1720                 2.5630
 Frc consts  --      0.0235                 0.0523                 0.0582
 IR Inten    --      5.4580                 0.2506                 4.9498

                      4                      5                      6
                      A                      A                      A
 Frequencies --    243.6282               270.8389               285.9045
 Red. masses --      1.3958                 2.2575                 2.1460
 Frc consts  --      0.0488                 0.0976                 0.1034
 IR Inten    --      5.8520                 2.4926                 0.5396

                      7                      8                      9
                      A                      A                      A
 Frequencies --    374.5840               406.2397               430.0438
 Red. masses --      3.3846                 2.4113                 3.0786
 Frc consts  --      0.2798                 0.2345                 0.3354
 IR Inten    --      0.5280                 0.7281                 5.0768

                     10                     11                     12
                      A                      A                      A
 Frequencies --    522.9795               662.6091               689.8147
 Red. masses --      3.7332                 4.3522                 4.0478
 Frc consts  --      0.6016                 1.1258                 1.1348
 IR Inten    --      3.8890                28.2193                10.2262

                     13                     14                     15
                      A                      A                      A
 Frequencies --    755.8103               812.2448               854.6659
 Red. masses --      2.4615                 2.7995                 2.6670
 Frc consts  --      0.8285                 1.0882                 1.1478
 IR Inten    --      2.0235                 4.2133                 7.0685

                     16                     17                     18
                      A                      A                      A
 Frequencies --    886.8627               926.1701               947.5136
 Red. masses --      2.4608                 1.6235                 1.4862
 Frc consts  --      1.1404                 0.8205                 0.7861
 IR Inten    --     11.9603                 0.3589                38.0087

                     19                     20                     21
                      A                      A                      A
 Frequencies --    989.3790              1037.5547              1052.4526
 Red. masses --      2.2968                 2.2142                 1.9519
 Frc consts  --      1.3246                 1.4044                 1.2738
 IR Inten    --     18.8729                 6.6652                11.5215

                     22                     23                     24
                      A                      A                      A
 Frequencies --   1063.3681              1086.8152              1087.2911
 Red. masses --      1.4251                 1.4514                 1.7271
 Frc consts  --      0.9494                 1.0101                 1.2030
 IR Inten    --     11.2640                 2.0471                 3.7357

                     25                     26                     27
                      A                      A                      A
 Frequencies --   1105.5389              1128.8358              1137.9257
 Red. masses --      1.9446                 2.2703                 2.3194
 Frc consts  --      1.4003                 1.7045                 1.7695
 IR Inten    --     12.3266                28.3652                25.1404

                     28                     29                     30
                      A                      A                      A
 Frequencies --   1233.4848              1244.6859              1297.8666
 Red. masses --      1.3525                 1.5697                 1.7280
 Frc consts  --      1.2125                 1.4328                 1.7150
 IR Inten    --     25.0862                 0.8520                18.1829

                     31                     32                     33
                      A                      A                      A
 Frequencies --   1339.9322              1369.1111              1376.9992
 Red. masses --      2.1123                 1.3174                 2.0513
 Frc consts  --      2.2345                 1.4549                 2.2916
 IR Inten    --     30.8860                 6.5386                 5.7692

                     34                     35                     36
                      A                      A                      A
 Frequencies --   1394.3052              1403.3597              1445.3867
 Red. masses --      1.4129                 1.2882                 1.2442
 Frc consts  --      1.6183                 1.4947                 1.5315
 IR Inten    --      8.3140                19.7950                 3.5890

                     37                     38                     39
                      A                      A                      A
 Frequencies --   1473.2224              1488.2094              1498.3988
 Red. masses --      1.3188                 1.0561                 1.0655
 Frc consts  --      1.6864                 1.3781                 1.4095
 IR Inten    --      5.4932                 7.4737                 0.5572

                     40                     41                     42
                      A                      A                      A
 Frequencies --   1520.0840              1807.1501              2848.4582
 Red. masses --      1.0861                10.5508                 1.0813
 Frc consts  --      1.4786                20.3013                 5.1691
 IR Inten    --      0.4635               252.0883               110.5609

                     43                     44                     45
                      A                      A                      A
 Frequencies --   2988.8815              3043.9700              3048.7890
 Red. masses --      1.0688                 1.0582                 1.0637
 Frc consts  --      5.6253                 5.7770                 5.8253
 IR Inten    --     62.2725                 9.6748                31.4183

                     46                     47                     48
                      A                      A                      A
 Frequencies --   3070.8456              3114.9240              3133.6109
 Red. masses --      1.0943                 1.1007                 1.0534
 Frc consts  --      6.0802                 6.2923                 6.0943
 IR Inten    --     33.6144                29.2775                 8.5567

                     49                     50                     51
                      A                      A                      A
 Frequencies --   3149.3653              3180.8468              3224.7108
 Red. masses --      1.1002                 1.0916                 1.1170
 Frc consts  --      6.4292                 6.5072                 6.8436
 IR Inten    --      4.2994                 8.3491                 2.7891

 - Thermochemistry -
 -------------------
 Temperature   298.150 Kelvin.  Pressure   1.00000 Atm.
 Atom     1 has atomic number  6 and mass  12.00000

 Molecular mass:   126.06808 amu.
 Principal axes and moments of inertia in atomic units:
                           1         2         3
     Eigenvalues --   715.403171091.454331538.63724
           X            0.99970  -0.02235   0.00998
           Y            0.02223   0.99969   0.01155
           Z           -0.01023  -0.01132   0.99988
 This molecule is an asymmetric top.
 Rotational symmetry number  1.
 Warning -- assumption of classical behavior for rotation
           may cause significant error
 Rotational temperatures (Kelvin)      0.12107     0.07936     0.05629
 Rotational constants (GHZ):           2.52269     1.65352     1.17295
 Zero-point vibrational energy     418179.9 (Joules/Mol)
                                   99.94740 (Kcal/Mol)
 Warning -- explicit consideration of  10 degrees of freedom as
           vibrations may cause significant error
 Vibrational temperatures:    136.51   240.68   282.57   350.53   389.68
          (Kelvin)            411.35   538.94   584.49   618.74   752.45
                              953.35   992.49  1087.44  1168.64  1229.67
                             1276.00  1332.55  1363.26  1423.49  1492.81
                             1514.24  1529.95  1563.68  1564.37  1590.62
                             1624.14  1637.22  1774.71  1790.82  1867.34
                             1927.86  1969.84  1981.19  2006.09  2019.12
                             2079.59  2119.64  2141.20  2155.86  2187.06
                             2600.08  4098.29  4300.33  4379.59  4386.52
                             4418.26  4481.68  4508.56  4531.23  4576.52
                             4639.63

 Zero-point correction=                           0.159276 (Hartree/Particle)
 Thermal correction to Energy=                    0.167538
 Thermal correction to Enthalpy=                  0.168482
 Thermal correction to Gibbs Free Energy=         0.126640
 Sum of electronic and zero-point Energies=           -423.036640
 Sum of electronic and thermal Energies=              -423.028378
 Sum of electronic and thermal Enthalpies=            -423.027434
 Sum of electronic and thermal Free Energies=         -423.069276

                     E (Thermal)             CV                S
                      KCal/Mol        Cal/Mol-Kelvin    Cal/Mol-Kelvin
 Total                  105.132             31.755             88.064
 Electronic               0.000              0.000              0.000
 Translational            0.889              2.981             40.409
 Rotational               0.889              2.981             28.576
 Vibrational            103.354             25.793             19.080
 Vibration     1          0.603              1.953              3.557
 Vibration     2          0.624              1.883              2.466
 Vibration     3          0.636              1.845              2.167
 Vibration     4          0.659              1.773              1.776
 Vibration     5          0.675              1.727              1.591
 Vibration     6          0.684              1.700              1.498
 Vibration     7          0.746              1.524              1.061
 Vibration     8          0.771              1.457              0.940
 Vibration     9          0.791              1.405              0.859
 Vibration    10          0.878              1.199              0.603

 Optimization completed.
    -- Stationary point found.
 Normal termination of Gaussian 09 at Tue Jan 28 09:00:55 2020.
