 Gaussian 09, Revision D.01,
 Gaussian 09:  ES64L-G09RevD.01 24-Apr-2013

 -----------------------------
 # b3lyp 6-31G(2df,p) opt Freq
 -----------------------------

 -----
 titel
 -----
 Symbolic Z-matrix:
 Charge =  0 Multiplicity = 1

 SCF Done:  E(RB3LYP) =  -423.179996078     A.U. after   14 cycles
 Optimization completed.
    -- Stationary point found.
 Normal termination of Gaussian 09 at Tue Jan 28 12:40:52 2020.

 ----------------------------------------------------------------------
 #N Geom=AllCheck Guess=TCheck SCRF=Check GenChk RB3LYP/6-31G(2df,p) Fr
 eq
 ----------------------------------------------------------------------

 Structure from the checkpoint file:  "/scratch/puck/g09_8d11624d-ae6e-48b9-ad01-0b905a60d56e/Gau-29109.chk"
 -----
 titel
 -----
 Charge =  0 Multiplicity = 1

                         Standard orientation:
 ---------------------------------------------------------------------
 Center     Atomic      Atomic             Coordinates (Angstroms)
 Number     Number       Type             X           Y           Z
 ---------------------------------------------------------------------
      1          8           0        2.633924    0.720664   -0.129448
      2          6           0        2.137509   -0.604923    0.034108
      3          6           0        0.645743   -0.617057    0.095185
      4          6           0       -0.248272   -1.277976   -0.653965
      5          6           0       -1.621698   -0.707715   -0.340595
      6          6           0       -1.582791    0.752215   -0.890958
      7          8           0       -0.605990    1.406094   -0.067285
      8          6           0       -0.163582    0.397239    0.896785
      9          6           0       -1.456540   -0.378720    1.167189
     10          1           0        2.040219    1.176275   -0.736918
     11          1           0        2.490537   -1.274843   -0.765917
     12          1           0        2.575563   -0.966268    0.973766
     13          1           0       -0.040135   -1.986377   -1.447291
     14          1           0       -2.490347   -1.287591   -0.650096
     15          1           0       -1.281204    0.798887   -1.943389
     16          1           0       -2.552337    1.253209   -0.776266
     17          1           0        0.336173    0.915112    1.712685
     18          1           0       -1.311936   -1.268779    1.780994
     19          1           0       -2.252220    0.247943    1.579803
 ---------------------------------------------------------------------

 SCF Done:  E(RB3LYP) =  -423.179996078     A.U. after    1 cycles

 The electronic state is 1-A.
 Alpha  occ. eigenvalues --  -19.13656 -19.13098 -10.23278 -10.23011 -10.22847
 Alpha  occ. eigenvalues --  -10.20129 -10.18737 -10.18642 -10.18442  -1.03220
 Alpha  occ. eigenvalues --   -1.01073  -0.84467  -0.75387  -0.72586  -0.67278
 Alpha  occ. eigenvalues --   -0.60579  -0.58406  -0.53211  -0.52250  -0.49514
 Alpha  occ. eigenvalues --   -0.46212  -0.45127  -0.43849  -0.42344  -0.39497
 Alpha  occ. eigenvalues --   -0.38047  -0.36097  -0.36054  -0.34758  -0.32279
 Alpha  occ. eigenvalues --   -0.31521  -0.27803  -0.24569  -0.24215
 Alpha virt. eigenvalues --    0.00120   0.09291   0.10730   0.11927   0.12285
 Alpha virt. eigenvalues --    0.14009   0.15193   0.15739   0.15991   0.16324
 Alpha virt. eigenvalues --    0.17408   0.17859   0.19114   0.20825   0.21235

 Mulliken charges:
               1
     1  O   -0.418298
     2  C   -0.173850
     3  C    0.300540
     4  C   -0.196905
     5  C   -0.094929
     6  C   -0.070045
     7  O   -0.286955
     8  C    0.015863
     9  C   -0.225986
    10  H    0.290449
    11  H    0.091183
    12  H    0.111046
    13  H    0.098651
    14  H    0.071154
    15  H    0.096289
    16  H    0.100889
    17  H    0.084249
    18  H    0.105157
    19  H    0.101498
 Sum of Mulliken charges =   0.00000

 Dipole moment (field-independent basis, Debye):
    X=             -1.8834    Y=             -1.7697    Z=             -0.5155  Tot=              2.6353
 Quadrupole moment (field-independent basis, Debye-Ang):
   XX=            -56.1888   YY=            -55.1777   ZZ=            -49.8069
   XY=             -1.8151   XZ=             -0.0224   YZ=             -0.2402

  Exact polarizability:  88.048  -1.072  69.899   4.466   3.024  70.117
 Approx polarizability: 123.373   5.141 112.440  12.945   7.928 108.128

                      1                      2                      3
                      A                      A                      A
 Frequencies --     85.4057                98.3488               237.5300
 Red. masses --      4.4250                 3.2623                 2.4980
 Frc consts  --      0.0190                 0.0186                 0.0830
 IR Inten    --      7.2471                 0.7048                 1.6990

                      4                      5                      6
                      A                      A                      A
 Frequencies --    308.5215               337.3966               388.6994
 Red. masses --      1.6606                 1.6790                 3.4474
 Frc consts  --      0.0931                 0.1126                 0.3069
 IR Inten    --     81.2870                36.7270                23.3053

                      7                      8                      9
                      A                      A                      A
 Frequencies --    438.7386               488.7914               552.3819
 Red. masses --      2.7230                 2.2392                 3.4375
 Frc consts  --      0.3088                 0.3152                 0.6180
 IR Inten    --      0.9114                 1.0555                 2.7749

                     10                     11                     12
                      A                      A                      A
 Frequencies --    695.8530               728.7910               814.4559
 Red. masses --      4.1069                 4.0945                 4.5284
 Frc consts  --      1.1717                 1.2813                 1.7698
 IR Inten    --      5.6452                 3.6917                 2.9816

                     13                     14                     15
                      A                      A                      A
 Frequencies --    831.9061               858.9904               869.1193
 Red. masses --      3.2195                 2.4117                 1.8026
 Frc consts  --      1.3128                 1.0485                 0.8023
 IR Inten    --      9.2701                 7.9760                42.1673

                     16                     17                     18
                      A                      A                      A
 Frequencies --    906.3070               929.6167               933.5478
 Red. masses --      2.6294                 2.8069                 2.3574
 Frc consts  --      1.2725                 1.4292                 1.2105
 IR Inten    --     13.4859                 6.4432                 0.3732

                     19                     20                     21
                      A                      A                      A
 Frequencies --    964.9270               984.2626               995.7562
 Red. masses --      2.2388                 2.5704                 1.5338
 Frc consts  --      1.2282                 1.4671                 0.8960
 IR Inten    --     19.8415                17.6095                18.1625

                     22                     23                     24
                      A                      A                      A
 Frequencies --   1033.5175              1057.6130              1066.4626
 Red. masses --      1.9910                 4.4377                 1.6153
 Frc consts  --      1.2530                 2.9245                 1.0824
 IR Inten    --     13.4479                58.4831                 9.3278

                     25                     26                     27
                      A                      A                      A
 Frequencies --   1128.4140              1158.7991              1200.2779
 Red. masses --      1.1395                 1.8570                 1.2047
 Frc consts  --      0.8549                 1.4692                 1.0226
 IR Inten    --      1.9691                 0.6785                 5.5613

                     28                     29                     30
                      A                      A                      A
 Frequencies --   1203.1501              1233.1205              1251.9299
 Red. masses --      1.1099                 2.2341                 1.3474
 Frc consts  --      0.9466                 2.0015                 1.2443
 IR Inten    --     10.2795                 5.4055                 4.0458

                     31                     32                     33
                      A                      A                      A
 Frequencies --   1274.5502              1287.0802              1296.2213
 Red. masses --      1.5735                 1.2473                 1.8300
 Frc consts  --      1.5060                 1.2174                 1.8116
 IR Inten    --      8.1471                 0.1633                 0.5727

                     34                     35                     36
                      A                      A                      A
 Frequencies --   1327.8634              1360.3468              1365.8101
 Red. masses --      1.5580                 1.3780                 1.4960
 Frc consts  --      1.6186                 1.5024                 1.6442
 IR Inten    --     14.4840                 2.3816                 1.3387

                     37                     38                     39
                      A                      A                      A
 Frequencies --   1430.0102              1490.1009              1509.6600
 Red. masses --      1.2535                 1.1143                 1.0897
 Frc consts  --      1.5102                 1.4578                 1.4633
 IR Inten    --     84.7266                 2.3470                 0.5244

                     40                     41                     42
                      A                      A                      A
 Frequencies --   1521.3132              1683.3569              2977.6595
 Red. masses --      1.0916                 7.2361                 1.0677
 Frc consts  --      1.4885                12.0811                 5.5777
 IR Inten    --      0.5197                 0.3763                70.8726

                     43                     44                     45
                      A                      A                      A
 Frequencies --   3016.6459              3032.5997              3061.0402
 Red. masses --      1.0573                 1.0934                 1.1054
 Frc consts  --      5.6688                 5.9246                 6.1024
 IR Inten    --     64.8852                31.7412                20.7195

                     46                     47                     48
                      A                      A                      A
 Frequencies --   3066.8985              3125.3032              3134.3692
 Red. masses --      1.0632                 1.0890                 1.1058
 Frc consts  --      5.8921                 6.2669                 6.4007
 IR Inten    --     46.4710                37.3934                19.2740

                     49                     50                     51
                      A                      A                      A
 Frequencies --   3149.0096              3199.4320              3802.5038
 Red. masses --      1.0909                 1.0954                 1.0665
 Frc consts  --      6.3734                 6.6063                 9.0851
 IR Inten    --     18.1171                10.3100                20.3153

 - Thermochemistry -
 -------------------
 Temperature   298.150 Kelvin.  Pressure   1.00000 Atm.
 Atom     1 has atomic number  8 and mass  15.99491

 Molecular mass:   126.06808 amu.
 Principal axes and moments of inertia in atomic units:
                           1         2         3
     Eigenvalues --   569.311191298.393881437.57826
           X            0.99991  -0.01329  -0.00030
           Y            0.01329   0.99991   0.00151
           Z            0.00028  -0.00152   1.00000
 This molecule is an asymmetric top.
 Rotational symmetry number  1.
 Warning -- assumption of classical behavior for rotation
           may cause significant error
 Rotational temperatures (Kelvin)      0.15214     0.06671     0.06025
 Rotational constants (GHZ):           3.17004     1.38998     1.25540
 Zero-point vibrational energy     424042.7 (Joules/Mol)
                                  101.34864 (Kcal/Mol)
 Warning -- explicit consideration of   9 degrees of freedom as
           vibrations may cause significant error
 Vibrational temperatures:    122.88   141.50   341.75   443.89   485.44
          (Kelvin)            559.25   631.25   703.26   794.75  1001.18
                             1048.57  1171.82  1196.93  1235.89  1250.47
                             1303.97  1337.51  1343.17  1388.31  1416.13
                             1432.67  1487.00  1521.67  1534.40  1623.53
                             1667.25  1726.93  1731.06  1774.18  1801.25
                             1833.79  1851.82  1864.97  1910.50  1957.23
                             1965.09  2057.46  2143.92  2172.06  2188.83
                             2421.97  4284.18  4340.28  4363.23  4404.15
                             4412.58  4496.61  4509.65  4530.72  4603.26
                             5470.95

 Zero-point correction=                           0.161509 (Hartree/Particle)
 Thermal correction to Energy=                    0.169177
 Thermal correction to Enthalpy=                  0.170122
 Thermal correction to Gibbs Free Energy=         0.129140
 Sum of electronic and zero-point Energies=           -423.018487
 Sum of electronic and thermal Energies=              -423.010819
 Sum of electronic and thermal Enthalpies=            -423.009874
 Sum of electronic and thermal Free Energies=         -423.050856

                     E (Thermal)             CV                S
                      KCal/Mol        Cal/Mol-Kelvin    Cal/Mol-Kelvin
 Total                  106.160             30.166             86.252
 Electronic               0.000              0.000              0.000
 Translational            0.889              2.981             40.409
 Rotational               0.889              2.981             28.454
 Vibrational            104.383             24.204             17.390
 Vibration     1          0.601              1.959              3.763
 Vibration     2          0.604              1.950              3.487
 Vibration     3          0.656              1.783              1.821
 Vibration     4          0.698              1.657              1.370
 Vibration     5          0.718              1.601              1.224
 Vibration     6          0.757              1.494              1.005
 Vibration     7          0.799              1.386              0.831
 Vibration     8          0.845              1.275              0.687
 Vibration     9          0.908              1.134              0.539

 Optimization completed.
    -- Stationary point found.
 Normal termination of Gaussian 09 at Tue Jan 28 13:26:11 2020.
