 Gaussian 09, Revision D.01,
 Gaussian 09:  ES64L-G09RevD.01 24-Apr-2013

 -----------------------------
 # b3lyp 6-31G(2df,p) opt Freq
 -----------------------------

 -----
 titel
 -----
 Symbolic Z-matrix:
 Charge =  0 Multiplicity = 1

 SCF Done:  E(RB3LYP) =  -423.157709799     A.U. after   13 cycles
 Optimization completed.
    -- Stationary point found.
 Normal termination of Gaussian 09 at Mon Jan 27 22:06:10 2020.

 ----------------------------------------------------------------------
 #N Geom=AllCheck Guess=TCheck SCRF=Check GenChk RB3LYP/6-31G(2df,p) Fr
 eq
 ----------------------------------------------------------------------

 Structure from the checkpoint file:  "/scratch/puck/g09_a225522b-8ff1-4bd5-b31a-4fdba625813c/Gau-111369.chk"
 -----
 titel
 -----
 Charge =  0 Multiplicity = 1

                         Standard orientation:
 ---------------------------------------------------------------------
 Center     Atomic      Atomic             Coordinates (Angstroms)
 Number     Number       Type             X           Y           Z
 ---------------------------------------------------------------------
      1          8           0       -0.518003    2.112429   -0.441383
      2          6           0       -0.679405    0.943643    0.352100
      3          6           0        0.581231    0.509201    1.085765
      4          6           0        1.787777    0.071854    0.252667
      5          6           0        1.366503   -0.370694   -1.152608
      6          6           0        0.189849   -1.165439   -0.503975
      7          6           0        0.857754   -0.949495    0.887529
      8          6           0       -1.082642   -0.325466   -0.469416
      9          8           0       -2.066012   -1.096758    0.204624
     10          1           0        0.421202    2.205180   -0.626964
     11          1           0       -1.485384    1.161945    1.064110
     12          1           0        0.823356    0.963774    2.039987
     13          1           0        2.788624    0.356742    0.556007
     14          1           0        1.108843    0.393604   -1.895210
     15          1           0        2.106094   -1.046865   -1.588222
     16          1           0        0.030667   -2.183043   -0.857073
     17          1           0        1.031841   -1.672873    1.671671
     18          1           0       -1.419428   -0.026508   -1.472309
     19          1           0       -2.860095   -0.558952    0.289700
 ---------------------------------------------------------------------

 SCF Done:  E(RB3LYP) =  -423.157709799     A.U. after    1 cycles

 The electronic state is 1-A.
 Alpha  occ. eigenvalues --  -19.13291 -19.13098 -10.22674 -10.22149 -10.19737
 Alpha  occ. eigenvalues --  -10.19196 -10.19037 -10.18816 -10.18791  -1.02153
 Alpha  occ. eigenvalues --   -1.00836  -0.90851  -0.74223  -0.73210  -0.65539
 Alpha  occ. eigenvalues --   -0.59598  -0.57186  -0.53332  -0.52480  -0.50507
 Alpha  occ. eigenvalues --   -0.47744  -0.45096  -0.42684  -0.40631  -0.39907
 Alpha  occ. eigenvalues --   -0.37701  -0.35928  -0.34390  -0.32061  -0.31518
 Alpha  occ. eigenvalues --   -0.28989  -0.27250  -0.26184  -0.24626
 Alpha virt. eigenvalues --    0.07579   0.08609   0.09570   0.11226   0.12736
 Alpha virt. eigenvalues --    0.13675   0.14145   0.15188   0.16658   0.17120
 Alpha virt. eigenvalues --    0.18860   0.19162   0.20504   0.21296   0.22632

 Mulliken charges:
               1
     1  O   -0.445905
     2  C    0.082629
     3  C   -0.078311
     4  C   -0.091059
     5  C   -0.259536
     6  C   -0.051878
     7  C   -0.069652
     8  C    0.112383
     9  O   -0.445748
    10  H    0.287178
    11  H    0.070791
    12  H    0.088250
    13  H    0.085962
    14  H    0.090335
    15  H    0.106308
    16  H    0.077402
    17  H    0.089861
    18  H    0.069240
    19  H    0.281752
 Sum of Mulliken charges =   0.00000

 Dipole moment (field-independent basis, Debye):
    X=              1.1042    Y=              0.0434    Z=              0.2481  Tot=              1.1325
 Quadrupole moment (field-independent basis, Debye-Ang):
   XX=            -48.5817   YY=            -57.7696   ZZ=            -51.8440
   XY=              0.1010   XZ=             -0.5606   YZ=              1.5226

  Exact polarizability:  78.770  -0.379  70.648  -1.864   0.675  69.709
 Approx polarizability: 111.498   0.690 108.516  -4.568  -2.263 104.791

                      1                      2                      3
                      A                      A                      A
 Frequencies --    112.8628               200.5131               260.6629
 Red. masses --      3.9053                 2.7330                 1.8347
 Frc consts  --      0.0293                 0.0647                 0.0734
 IR Inten    --      8.1701                16.7990                48.5908

                      4                      5                      6
                      A                      A                      A
 Frequencies --    300.5731               319.0528               335.6622
 Red. masses --      2.1270                 1.1049                 3.9625
 Frc consts  --      0.1132                 0.0663                 0.2630
 IR Inten    --     10.1490               100.6929                 8.2007

                      7                      8                      9
                      A                      A                      A
 Frequencies --    385.1474               471.0099               564.1464
 Red. masses --      2.4724                 5.1393                 4.2123
 Frc consts  --      0.2161                 0.6718                 0.7899
 IR Inten    --      0.4522                 1.2351                 4.0367

                     10                     11                     12
                      A                      A                      A
 Frequencies --    672.7798               704.0932               757.2916
 Red. masses --      3.9949                 4.5607                 2.1782
 Frc consts  --      1.0654                 1.3321                 0.7360
 IR Inten    --      4.5525                 7.0329                 7.2085

                     13                     14                     15
                      A                      A                      A
 Frequencies --    799.8006               828.8448               872.4944
 Red. masses --      1.7890                 2.7884                 2.2774
 Frc consts  --      0.6743                 1.1286                 1.0214
 IR Inten    --     11.1672                 5.1998                 6.2726

                     16                     17                     18
                      A                      A                      A
 Frequencies --    902.7986               913.7573               961.3869
 Red. masses --      2.2787                 2.1021                 1.4671
 Frc consts  --      1.0942                 1.0341                 0.7989
 IR Inten    --      1.2034                 6.2731                 8.8265

                     19                     20                     21
                      A                      A                      A
 Frequencies --    984.1403              1003.5128              1009.4017
 Red. masses --      1.8212                 2.3262                 2.4074
 Frc consts  --      1.0392                 1.3802                 1.4452
 IR Inten    --      1.6858                 3.8284                 0.7997

                     22                     23                     24
                      A                      A                      A
 Frequencies --   1031.5964              1052.8419              1069.6225
 Red. masses --      1.7564                 2.7857                 1.3864
 Frc consts  --      1.1013                 1.8193                 0.9345
 IR Inten    --      0.1070                97.6721                 7.8409

                     25                     26                     27
                      A                      A                      A
 Frequencies --   1087.5339              1102.6725              1119.0573
 Red. masses --      3.4413                 1.3317                 2.7290
 Frc consts  --      2.3980                 0.9540                 2.0136
 IR Inten    --     45.2542                 8.1162                22.5338

                     28                     29                     30
                      A                      A                      A
 Frequencies --   1149.2178              1180.9491              1229.9973
 Red. masses --      1.4704                 1.3477                 1.4215
 Frc consts  --      1.1442                 1.1074                 1.2671
 IR Inten    --      3.8137                32.6005                 9.3741

                     31                     32                     33
                      A                      A                      A
 Frequencies --   1235.4480              1255.5529              1279.6901
 Red. masses --      1.5057                 1.3643                 1.5034
 Frc consts  --      1.3541                 1.2671                 1.4506
 IR Inten    --      3.2894                12.7371                 8.1437

                     34                     35                     36
                      A                      A                      A
 Frequencies --   1288.2415              1305.7292              1312.3278
 Red. masses --      1.4679                 1.5942                 1.3546
 Frc consts  --      1.4353                 1.6014                 1.3745
 IR Inten    --     28.2435                 0.8957                 9.2051

                     37                     38                     39
                      A                      A                      A
 Frequencies --   1345.2736              1399.8625              1407.2558
 Red. masses --      1.5799                 2.1825                 1.3367
 Frc consts  --      1.6846                 2.5199                 1.5597
 IR Inten    --     20.1241                 2.2356                57.5697

                     40                     41                     42
                      A                      A                      A
 Frequencies --   1431.4830              1502.6395              3005.8642
 Red. masses --      1.6087                 1.1072                 1.0844
 Frc consts  --      1.9422                 1.4729                 5.7725
 IR Inten    --      0.5697                 0.6422                37.2102

                     43                     44                     45
                      A                      A                      A
 Frequencies --   3025.1249              3032.4410              3096.4906
 Red. masses --      1.0856                 1.0636                 1.1012
 Frc consts  --      5.8531                 5.7623                 6.2209
 IR Inten    --     46.3007                61.2076                20.2690

                     46                     47                     48
                      A                      A                      A
 Frequencies --   3127.3961              3170.6617              3179.5846
 Red. masses --      1.0892                 1.0901                 1.0901
 Frc consts  --      6.2768                 6.4566                 6.4934
 IR Inten    --     27.2935                11.0715                23.5125

                     49                     50                     51
                      A                      A                      A
 Frequencies --   3213.0172              3811.3253              3830.2552
 Red. masses --      1.0970                 1.0661                 1.0660
 Frc consts  --      6.6726                 9.1242                 9.2147
 IR Inten    --     13.9146                16.9001                15.9909

 - Thermochemistry -
 -------------------
 Temperature   298.150 Kelvin.  Pressure   1.00000 Atm.
 Atom     1 has atomic number  8 and mass  15.99491

 Molecular mass:   126.06808 amu.
 Principal axes and moments of inertia in atomic units:
                           1         2         3
     Eigenvalues --   786.72457 940.804741232.96681
           X            0.99974  -0.02093  -0.00905
           Y            0.02113   0.99951   0.02294
           Z            0.00857  -0.02313   0.99970
 This molecule is an asymmetric top.
 Rotational symmetry number  1.
 Warning -- assumption of classical behavior for rotation
           may cause significant error
 Rotational temperatures (Kelvin)      0.11009     0.09206     0.07025
 Rotational constants (GHZ):           2.29399     1.91830     1.46374
 Zero-point vibrational energy     422515.6 (Joules/Mol)
                                  100.98364 (Kcal/Mol)
 Warning -- explicit consideration of   9 degrees of freedom as
           vibrations may cause significant error
 Vibrational temperatures:    162.38   288.49   375.04   432.46   459.05
          (Kelvin)            482.94   554.14   677.68   811.68   967.98
                             1013.03  1089.57  1150.73  1192.52  1255.32
                             1298.92  1314.69  1383.22  1415.96  1443.83
                             1452.30  1484.24  1514.80  1538.95  1564.72
                             1586.50  1610.07  1653.47  1699.12  1769.69
                             1777.53  1806.46  1841.19  1853.49  1878.65
                             1888.14  1935.55  2014.09  2024.72  2059.58
                             2161.96  4324.76  4352.47  4363.00  4455.15
                             4499.62  4561.87  4574.71  4622.81  5483.64
                             5510.88

 Zero-point correction=                           0.160928 (Hartree/Particle)
 Thermal correction to Energy=                    0.168568
 Thermal correction to Enthalpy=                  0.169512
 Thermal correction to Gibbs Free Energy=         0.129196
 Sum of electronic and zero-point Energies=           -422.996782
 Sum of electronic and thermal Energies=              -422.989142
 Sum of electronic and thermal Enthalpies=            -422.988197
 Sum of electronic and thermal Free Energies=         -423.028514

                     E (Thermal)             CV                S
                      KCal/Mol        Cal/Mol-Kelvin    Cal/Mol-Kelvin
 Total                  105.778             30.990             84.853
 Electronic               0.000              0.000              0.000
 Translational            0.889              2.981             40.409
 Rotational               0.889              2.981             28.303
 Vibrational            104.001             25.029             16.142
 Vibration     1          0.607              1.939              3.219
 Vibration     2          0.638              1.839              2.128
 Vibration     3          0.669              1.745              1.657
 Vibration     4          0.693              1.673              1.414
 Vibration     5          0.705              1.637              1.315
 Vibration     6          0.717              1.604              1.233
 Vibration     7          0.754              1.502              1.019
 Vibration     8          0.828              1.314              0.735
 Vibration     9          0.920              1.109              0.516

 Optimization completed.
    -- Stationary point found.
 Normal termination of Gaussian 09 at Mon Jan 27 23:05:55 2020.
