 Gaussian 09, Revision D.01,
 Gaussian 09:  ES64L-G09RevD.01 24-Apr-2013

 -----------------------------
 # b3lyp 6-31G(2df,p) opt Freq
 -----------------------------

 -----
 titel
 -----
 Symbolic Z-matrix:
 Charge =  0 Multiplicity = 1

 SCF Done:  E(RB3LYP) =  -423.204660844     A.U. after   14 cycles
 Optimization completed.
    -- Stationary point found.
 Normal termination of Gaussian 09 at Mon Jan 27 22:03:54 2020.

 ----------------------------------------------------------------------
 #N Geom=AllCheck Guess=TCheck SCRF=Check GenChk RB3LYP/6-31G(2df,p) Fr
 eq
 ----------------------------------------------------------------------

 Structure from the checkpoint file:  "/scratch/puck/g09_74611e35-c11a-4944-a307-5d6a2b34a8d5/Gau-76206.chk"
 -----
 titel
 -----
 Charge =  0 Multiplicity = 1

                         Standard orientation:
 ---------------------------------------------------------------------
 Center     Atomic      Atomic             Coordinates (Angstroms)
 Number     Number       Type             X           Y           Z
 ---------------------------------------------------------------------
      1          8           0        0.258397   -1.993442   -0.211426
      2          6           0        0.265142   -0.651372   -0.601834
      3          6           0        1.444503    0.120795   -0.010918
      4          8           0        2.440622   -0.421760    0.401094
      5          6           0        1.071764    1.597347    0.077822
      6          6           0       -0.421801    1.642463   -0.331826
      7          6           0       -0.908996    0.205624   -0.143780
      8          6           0       -2.334010   -0.222103   -0.299225
      9          6           0       -1.694666   -0.211157    1.073138
     10          1           0        1.137717   -2.159483    0.162424
     11          1           0        0.343738   -0.570104   -1.704439
     12          1           0        1.234510    1.921636    1.110783
     13          1           0        1.727833    2.206298   -0.551225
     14          1           0       -0.999210    2.357179    0.259194
     15          1           0       -0.519118    1.938686   -1.383219
     16          1           0       -3.074350    0.538823   -0.525849
     17          1           0       -2.525971   -1.188024   -0.754423
     18          1           0       -2.000842    0.557058    1.775646
     19          1           0       -1.448078   -1.170041    1.513509
 ---------------------------------------------------------------------

 SCF Done:  E(RB3LYP) =  -423.204660844     A.U. after    1 cycles

 The electronic state is 1-A.
 Alpha  occ. eigenvalues --  -19.14670 -19.14045 -10.27484 -10.23786 -10.20224
 Alpha  occ. eigenvalues --  -10.20112 -10.19863 -10.18619 -10.18482  -1.06122
 Alpha  occ. eigenvalues --   -1.02100  -0.87593  -0.80512  -0.70690  -0.66700
 Alpha  occ. eigenvalues --   -0.60389  -0.56378  -0.54948  -0.49464  -0.48979
 Alpha  occ. eigenvalues --   -0.47912  -0.47556  -0.44202  -0.42598  -0.40078
 Alpha  occ. eigenvalues --   -0.39025  -0.36773  -0.36660  -0.35178  -0.34432
 Alpha  occ. eigenvalues --   -0.29952  -0.29094  -0.27238  -0.24876
 Alpha virt. eigenvalues --   -0.02703   0.08323   0.10001   0.10475   0.11581
 Alpha virt. eigenvalues --    0.12353   0.14457   0.15628   0.15748   0.16727
 Alpha virt. eigenvalues --    0.18900   0.19596   0.21004   0.22538   0.23033

 Mulliken charges:
               1
     1  O   -0.442753
     2  C   -0.013671
     3  C    0.376175
     4  O   -0.332692
     5  C   -0.324343
     6  C   -0.305099
     7  C    0.331490
     8  C   -0.340649
     9  C   -0.302087
    10  H    0.293219
    11  H    0.090125
    12  H    0.142478
    13  H    0.134711
    14  H    0.110275
    15  H    0.109116
    16  H    0.109606
    17  H    0.126175
    18  H    0.106600
    19  H    0.131322
 Sum of Mulliken charges =   0.00000

 Dipole moment (field-independent basis, Debye):
    X=             -1.0579    Y=              2.2817    Z=             -0.4718  Tot=              2.5589
 Quadrupole moment (field-independent basis, Debye-Ang):
   XX=            -58.4430   YY=            -52.6752   ZZ=            -51.8377
   XY=             -0.0444   XZ=             -1.5745   YZ=             -0.5172

  Exact polarizability:  83.698  -0.263  76.651   1.662  -1.342  65.229
 Approx polarizability: 117.238  -3.977 109.566   5.479  -3.601 102.783

                      1                      2                      3
                      A                      A                      A
 Frequencies --     78.7562               123.5538               222.9257
 Red. masses --      5.7144                 2.0728                 3.2043
 Frc consts  --      0.0209                 0.0186                 0.0938
 IR Inten    --      0.8552                 0.8613                 3.1218

                      4                      5                      6
                      A                      A                      A
 Frequencies --    243.4770               283.6665               338.0107
 Red. masses --      3.1775                 4.0034                 2.1827
 Frc consts  --      0.1110                 0.1898                 0.1469
 IR Inten    --      2.8624                15.9558                 1.3374

                      7                      8                      9
                      A                      A                      A
 Frequencies --    389.7142               446.4804               495.5730
 Red. masses --      1.2805                 2.4013                 3.6722
 Frc consts  --      0.1146                 0.2820                 0.5314
 IR Inten    --     38.8104                29.7714                 4.8587

                     10                     11                     12
                      A                      A                      A
 Frequencies --    515.6837               599.1164               629.2025
 Red. masses --      4.5720                 2.6125                 4.3981
 Frc consts  --      0.7163                 0.5525                 1.0259
 IR Inten    --      0.8742                 1.8326                 3.7831

                     13                     14                     15
                      A                      A                      A
 Frequencies --    728.2902               756.5052               788.9908
 Red. masses --      2.4127                 2.6005                 1.0488
 Frc consts  --      0.7540                 0.8769                 0.3847
 IR Inten    --      4.1300                 4.7442                 0.5533

                     16                     17                     18
                      A                      A                      A
 Frequencies --    859.3059               904.0694               925.1111
 Red. masses --      2.1648                 1.3508                 2.0830
 Frc consts  --      0.9418                 0.6505                 1.0503
 IR Inten    --     10.1152                 0.2529                 0.7366

                     19                     20                     21
                      A                      A                      A
 Frequencies --    954.7047               983.5563               998.0335
 Red. masses --      2.5510                 2.3707                 2.4346
 Frc consts  --      1.3699                 1.3512                 1.4288
 IR Inten    --      6.2535                 2.4537                11.6404

                     22                     23                     24
                      A                      A                      A
 Frequencies --   1025.5687              1057.2698              1083.7461
 Red. masses --      2.0395                 1.3558                 1.9625
 Frc consts  --      1.2639                 0.8929                 1.3581
 IR Inten    --      3.3505                 3.2980                49.2267

                     25                     26                     27
                      A                      A                      A
 Frequencies --   1087.8540              1170.1542              1179.3440
 Red. masses --      1.9562                 1.7000                 2.0980
 Frc consts  --      1.3639                 1.3715                 1.7193
 IR Inten    --     55.4860                48.5465                 8.8056

                     28                     29                     30
                      A                      A                      A
 Frequencies --   1193.4485              1208.3771              1230.6085
 Red. masses --      1.2814                 1.6052                 1.5133
 Frc consts  --      1.0754                 1.3810                 1.3503
 IR Inten    --      0.3794                 6.0752                18.5904

                     31                     32                     33
                      A                      A                      A
 Frequencies --   1275.9881              1292.2209              1320.3297
 Red. masses --      1.6381                 1.5165                 1.4720
 Frc consts  --      1.5714                 1.4920                 1.5119
 IR Inten    --      3.7145                 0.4248                 4.4616

                     34                     35                     36
                      A                      A                      A
 Frequencies --   1362.6041              1371.8167              1423.4272
 Red. masses --      1.8005                 1.6795                 1.5594
 Frc consts  --      1.9696                 1.8622                 1.8616
 IR Inten    --     22.1785                 7.8428                48.0362

                     37                     38                     39
                      A                      A                      A
 Frequencies --   1446.5877              1456.6572              1496.3527
 Red. masses --      1.0767                 1.0947                 1.1452
 Frc consts  --      1.3275                 1.3685                 1.5108
 IR Inten    --      7.1719                 1.9074                 1.9192

                     40                     41                     42
                      A                      A                      A
 Frequencies --   1504.2727              1837.0187              2907.2192
 Red. masses --      1.4878                12.6328                 1.0781
 Frc consts  --      1.9835                25.1175                 5.3684
 IR Inten    --      2.6844               191.8595                42.0213

                     43                     44                     45
                      A                      A                      A
 Frequencies --   3035.4112              3059.4081              3093.3099
 Red. masses --      1.0672                 1.0613                 1.0974
 Frc consts  --      5.7932                 5.8527                 6.1868
 IR Inten    --     30.4006                 9.5486                 7.1505

                     46                     47                     48
                      A                      A                      A
 Frequencies --   3105.7872              3125.3556              3134.9265
 Red. masses --      1.1018                 1.0531                 1.0557
 Frc consts  --      6.2616                 6.0606                 6.1127
 IR Inten    --     15.4996                15.8252                13.2692

                     49                     50                     51
                      A                      A                      A
 Frequencies --   3209.2064              3230.0576              3703.2398
 Red. masses --      1.1171                 1.1155                 1.0652
 Frc consts  --      6.7786                 6.8573                 8.6071
 IR Inten    --      3.1534                 6.7116                55.5335

 - Thermochemistry -
 -------------------
 Temperature   298.150 Kelvin.  Pressure   1.00000 Atm.
 Atom     1 has atomic number  8 and mass  15.99491

 Molecular mass:   126.06808 amu.
 Principal axes and moments of inertia in atomic units:
                           1         2         3
     Eigenvalues --   712.652471121.279561569.71443
           X            0.99984   0.01616  -0.00722
           Y           -0.01620   0.99985  -0.00565
           Z            0.00713   0.00577   0.99996
 This molecule is an asymmetric top.
 Rotational symmetry number  1.
 Warning -- assumption of classical behavior for rotation
           may cause significant error
 Rotational temperatures (Kelvin)      0.12154     0.07725     0.05518
 Rotational constants (GHZ):           2.53243     1.60954     1.14973
 Zero-point vibrational energy     418048.8 (Joules/Mol)
                                   99.91605 (Kcal/Mol)
 Warning -- explicit consideration of  11 degrees of freedom as
           vibrations may cause significant error
 Vibrational temperatures:    113.31   177.77   320.74   350.31   408.13
          (Kelvin)            486.32   560.71   642.38   713.02   741.95
                              861.99   905.28  1047.85  1088.44  1135.18
                             1236.35  1300.75  1331.03  1373.61  1415.12
                             1435.95  1475.56  1521.17  1559.27  1565.18
                             1683.59  1696.81  1717.10  1738.58  1770.57
                             1835.86  1859.22  1899.66  1960.48  1973.74
                             2047.99  2081.31  2095.80  2152.92  2164.31
                             2643.06  4182.83  4367.27  4401.80  4450.58
                             4468.53  4496.68  4510.45  4617.33  4647.33
                             5328.13

 Zero-point correction=                           0.159226 (Hartree/Particle)
 Thermal correction to Energy=                    0.167537
 Thermal correction to Enthalpy=                  0.168481
 Thermal correction to Gibbs Free Energy=         0.126405
 Sum of electronic and zero-point Energies=           -423.045434
 Sum of electronic and thermal Energies=              -423.037124
 Sum of electronic and thermal Enthalpies=            -423.036180
 Sum of electronic and thermal Free Energies=         -423.078256

                     E (Thermal)             CV                S
                      KCal/Mol        Cal/Mol-Kelvin    Cal/Mol-Kelvin
 Total                  105.131             32.398             88.557
 Electronic               0.000              0.000              0.000
 Translational            0.889              2.981             40.409
 Rotational               0.889              2.981             28.619
 Vibrational            103.353             26.437             19.530
 Vibration     1          0.600              1.963              3.922
 Vibration     2          0.610              1.929              3.044
 Vibration     3          0.649              1.806              1.935
 Vibration     4          0.659              1.774              1.777
 Vibration     5          0.682              1.704              1.511
 Vibration     6          0.718              1.600              1.222
 Vibration     7          0.758              1.492              1.001
 Vibration     8          0.806              1.369              0.806
 Vibration     9          0.851              1.260              0.669
 Vibration    10          0.871              1.215              0.620
 Vibration    11          0.957              1.034              0.451

 Optimization completed.
    -- Stationary point found.
 Normal termination of Gaussian 09 at Mon Jan 27 22:45:40 2020.
