 Gaussian 09, Revision D.01,
 Gaussian 09:  ES64L-G09RevD.01 24-Apr-2013

 -----------------------------
 # b3lyp 6-31G(2df,p) opt Freq
 -----------------------------

 -----
 titel
 -----
 Symbolic Z-matrix:
 Charge =  0 Multiplicity = 1

 SCF Done:  E(RB3LYP) =  -423.146833836     A.U. after   14 cycles
 Optimization completed.
    -- Stationary point found.
 Normal termination of Gaussian 09 at Tue Jan 28 09:14:35 2020.

 ----------------------------------------------------------------------
 #N Geom=AllCheck Guess=TCheck SCRF=Check GenChk RB3LYP/6-31G(2df,p) Fr
 eq
 ----------------------------------------------------------------------

 Structure from the checkpoint file:  "/scratch/puck/g09_e0515c63-6d03-439c-824a-b9c688a94786/Gau-130451.chk"
 -----
 titel
 -----
 Charge =  0 Multiplicity = 1

                         Standard orientation:
 ---------------------------------------------------------------------
 Center     Atomic      Atomic             Coordinates (Angstroms)
 Number     Number       Type             X           Y           Z
 ---------------------------------------------------------------------
      1          6           0        2.585239   -0.353043   -0.260519
      2          8           0        1.365244   -1.055044   -0.042992
      3          6           0        0.313603   -0.248341    0.277806
      4          6           0        0.035839    0.575629    1.603025
      5          6           0       -1.252685    0.789346    0.746042
      6          6           0       -1.165082   -0.742690    0.391916
      7          6           0       -1.875467   -1.304974   -0.826842
      8          6           0       -0.283275    0.991543   -0.431083
      9          8           0       -0.089809    1.716062   -1.359354
     10          1           0        2.932643    0.135264    0.660098
     11          1           0        3.323366   -1.095141   -0.569517
     12          1           0        2.472637    0.402282   -1.046669
     13          1           0       -0.107240   -0.048003    2.487782
     14          1           0        0.653122    1.451551    1.808027
     15          1           0       -2.135897    1.358404    1.016161
     16          1           0       -1.311753   -1.367439    1.278629
     17          1           0       -2.949915   -1.401850   -0.640280
     18          1           0       -1.742174   -0.668852   -1.707722
     19          1           0       -1.487294   -2.299180   -1.069804
 ---------------------------------------------------------------------

 SCF Done:  E(RB3LYP) =  -423.146833836     A.U. after    1 cycles

 The electronic state is 1-A.
 Alpha  occ. eigenvalues --  -19.15960 -19.13771 -10.27165 -10.25506 -10.23175
 Alpha  occ. eigenvalues --  -10.21213 -10.20993 -10.20599 -10.18096  -1.05978
 Alpha  occ. eigenvalues --   -1.04483  -0.91917  -0.74514  -0.71210  -0.65013
 Alpha  occ. eigenvalues --   -0.62185  -0.61595  -0.52893  -0.48569  -0.47315
 Alpha  occ. eigenvalues --   -0.46543  -0.45172  -0.44852  -0.41993  -0.41414
 Alpha  occ. eigenvalues --   -0.38648  -0.37887  -0.36535  -0.34990  -0.34092
 Alpha  occ. eigenvalues --   -0.32753  -0.32289  -0.28032  -0.22727
 Alpha virt. eigenvalues --    0.00935   0.09220   0.10680   0.11084   0.12586
 Alpha virt. eigenvalues --    0.13289   0.14059   0.14483   0.15940   0.16124
 Alpha virt. eigenvalues --    0.17007   0.17418   0.18354   0.20204   0.20238

 Mulliken charges:
               1
     1  C   -0.273252
     2  O   -0.291373
     3  C    0.315966
     4  C   -0.313197
     5  C   -0.189484
     6  C   -0.028010
     7  C   -0.443840
     8  C    0.376516
     9  O   -0.344600
    10  H    0.116134
    11  H    0.133459
    12  H    0.145321
    13  H    0.111662
    14  H    0.111867
    15  H    0.099940
    16  H    0.082386
    17  H    0.121435
    18  H    0.136542
    19  H    0.132531
 Sum of Mulliken charges =   0.00000

 Dipole moment (field-independent basis, Debye):
    X=             -0.0047    Y=             -0.8990    Z=              2.0027  Tot=              2.1952
 Quadrupole moment (field-independent basis, Debye-Ang):
   XX=            -47.3944   YY=            -57.6466   ZZ=            -54.9530
   XY=              1.4641   XZ=             -0.7395   YZ=              4.0717

  Exact polarizability:  82.517   1.882  71.950  -1.249  -0.019  73.914
 Approx polarizability: 110.288   1.311 111.628  -4.139  -7.209 115.112

                      1                      2                      3
                      A                      A                      A
 Frequencies --     70.8090               145.5912               148.8473
 Red. masses --      2.8521                 3.6305                 3.7105
 Frc consts  --      0.0084                 0.0453                 0.0484
 IR Inten    --      4.5048                 2.7240                 2.7408

                      4                      5                      6
                      A                      A                      A
 Frequencies --    164.3861               196.9650               241.1297
 Red. masses --      1.1725                 1.0758                 3.0316
 Frc consts  --      0.0187                 0.0246                 0.1039
 IR Inten    --      0.2617                 0.2264                 2.9015

                      7                      8                      9
                      A                      A                      A
 Frequencies --    298.1770               333.8431               464.0500
 Red. masses --      3.8394                 2.9346                 3.2059
 Frc consts  --      0.2011                 0.1927                 0.4068
 IR Inten    --      2.1027                 0.0762                 0.8158

                     10                     11                     12
                      A                      A                      A
 Frequencies --    495.3314               547.0198               678.3580
 Red. masses --      3.6491                 3.0815                 3.9842
 Frc consts  --      0.5275                 0.5433                 1.0802
 IR Inten    --      1.1451                 0.1622                 5.3485

                     13                     14                     15
                      A                      A                      A
 Frequencies --    719.9609               753.5852               757.3171
 Red. masses --      4.3414                 4.5235                 3.9068
 Frc consts  --      1.3259                 1.5135                 1.3202
 IR Inten    --      1.2758                23.9302                23.8101

                     16                     17                     18
                      A                      A                      A
 Frequencies --    837.0756               868.5570               931.6079
 Red. masses --      3.7834                 2.3553                 2.0204
 Frc consts  --      1.5619                 1.0469                 1.0331
 IR Inten    --      2.3634                 7.8128                 5.0618

                     19                     20                     21
                      A                      A                      A
 Frequencies --    977.1839              1004.9921              1021.5529
 Red. masses --      2.2614                 1.1032                 1.3893
 Frc consts  --      1.2723                 0.6565                 0.8542
 IR Inten    --     10.9193                 0.4416                 8.0432

                     22                     23                     24
                      A                      A                      A
 Frequencies --   1063.1219              1074.6175              1095.2618
 Red. masses --      4.5351                 1.7437                 1.7911
 Frc consts  --      3.0200                 1.1864                 1.2659
 IR Inten    --     56.0421                10.7197                 5.7555

                     25                     26                     27
                      A                      A                      A
 Frequencies --   1138.6111              1156.9844              1169.7695
 Red. masses --      1.8533                 1.8452                 1.9852
 Frc consts  --      1.4156                 1.4553                 1.6005
 IR Inten    --      0.9102                 1.5040                 4.1949

                     28                     29                     30
                      A                      A                      A
 Frequencies --   1182.0443              1195.6016              1231.7861
 Red. masses --      1.2839                 1.6414                 1.9551
 Frc consts  --      1.0569                 1.3824                 1.7478
 IR Inten    --      1.3190                 5.3740                10.3262

                     31                     32                     33
                      A                      A                      A
 Frequencies --   1238.3021              1347.9054              1401.8912
 Red. masses --      1.7731                 3.0175                 1.4028
 Frc consts  --      1.6019                 3.2301                 1.6244
 IR Inten    --      0.6968               195.6055                28.2057

                     34                     35                     36
                      A                      A                      A
 Frequencies --   1420.8227              1488.0136              1491.2531
 Red. masses --      1.3011                 1.1591                 1.0762
 Frc consts  --      1.5475                 1.5121                 1.4100
 IR Inten    --      7.3105                 5.4178                 5.4721

                     37                     38                     39
                      A                      A                      A
 Frequencies --   1492.9727              1498.0213              1507.3984
 Red. masses --      1.0588                 1.0537                 1.0507
 Frc consts  --      1.3905                 1.3932                 1.4066
 IR Inten    --      8.0100                 4.6978                14.1641

                     40                     41                     42
                      A                      A                      A
 Frequencies --   1518.2416              1904.2983              3007.3454
 Red. masses --      1.1990                12.4587                 1.0372
 Frc consts  --      1.6284                26.6190                 5.5271
 IR Inten    --     11.1008               296.1585                44.4909

                     43                     44                     45
                      A                      A                      A
 Frequencies --   3036.4142              3060.9479              3070.4153
 Red. masses --      1.0354                 1.0848                 1.0551
 Frc consts  --      5.6244                 5.9882                 5.8606
 IR Inten    --     19.8805                15.9495                15.0917

                     46                     47                     48
                      A                      A                      A
 Frequencies --   3076.3784              3104.2828              3110.2995
 Red. masses --      1.0980                 1.1012                 1.1013
 Frc consts  --      6.1224                 6.2523                 6.2770
 IR Inten    --     36.1664                17.0580                20.6855

                     49                     50                     51
                      A                      A                      A
 Frequencies --   3135.1237              3145.0498              3183.1072
 Red. masses --      1.1013                 1.1127                 1.0943
 Frc consts  --      6.3780                 6.4846                 6.5326
 IR Inten    --     21.6878                20.1460                11.6708

 - Thermochemistry -
 -------------------
 Temperature   298.150 Kelvin.  Pressure   1.00000 Atm.
 Atom     1 has atomic number  6 and mass  12.00000

 Molecular mass:   126.06808 amu.
 Principal axes and moments of inertia in atomic units:
                           1         2         3
     Eigenvalues --   827.302951196.606121321.95380
           X            0.99821   0.05767   0.01584
           Y           -0.05966   0.97829   0.19846
           Z           -0.00405  -0.19905   0.97998
 This molecule is an asymmetric top.
 Rotational symmetry number  1.
 Warning -- assumption of classical behavior for rotation
           may cause significant error
 Rotational temperatures (Kelvin)      0.10469     0.07238     0.06552
 Rotational constants (GHZ):           2.18148     1.50822     1.36521
 Zero-point vibrational energy     413923.6 (Joules/Mol)
                                   98.93012 (Kcal/Mol)
 Warning -- explicit consideration of  11 degrees of freedom as
           vibrations may cause significant error
 Vibrational temperatures:    101.88   209.47   214.16   236.51   283.39
          (Kelvin)            346.93   429.01   480.33   667.66   712.67
                              787.04   976.00  1035.86  1084.24  1089.61
                             1204.36  1249.66  1340.37  1405.95  1445.96
                             1469.78  1529.59  1546.13  1575.84  1638.21
                             1664.64  1683.04  1700.70  1720.20  1772.26
                             1781.64  1939.33  2017.01  2044.24  2140.92
                             2145.58  2148.05  2155.32  2168.81  2184.41
                             2739.86  4326.89  4368.72  4404.02  4417.64
                             4426.22  4466.36  4475.02  4510.74  4525.02
                             4579.78

 Zero-point correction=                           0.157655 (Hartree/Particle)
 Thermal correction to Energy=                    0.166691
 Thermal correction to Enthalpy=                  0.167635
 Thermal correction to Gibbs Free Energy=         0.123825
 Sum of electronic and zero-point Energies=           -422.989179
 Sum of electronic and thermal Energies=              -422.980143
 Sum of electronic and thermal Enthalpies=            -422.979199
 Sum of electronic and thermal Free Energies=         -423.023009

                     E (Thermal)             CV                S
                      KCal/Mol        Cal/Mol-Kelvin    Cal/Mol-Kelvin
 Total                  104.600             33.308             92.206
 Electronic               0.000              0.000              0.000
 Translational            0.889              2.981             40.409
 Rotational               0.889              2.981             28.661
 Vibrational            102.823             27.347             23.137
 Vibration     1          0.598              1.968              4.131
 Vibration     2          0.617              1.907              2.729
 Vibration     3          0.618              1.904              2.687
 Vibration     4          0.623              1.886              2.499
 Vibration     5          0.636              1.844              2.161
 Vibration     6          0.658              1.777              1.795
 Vibration     7          0.691              1.677              1.427
 Vibration     8          0.715              1.608              1.241
 Vibration     9          0.822              1.330              0.754
 Vibration    10          0.851              1.260              0.670
 Vibration    11          0.902              1.146              0.550

 Optimization completed.
    -- Stationary point found.
 Normal termination of Gaussian 09 at Tue Jan 28 09:55:32 2020.
