 Gaussian 09, Revision D.01,
 Gaussian 09:  ES64L-G09RevD.01 24-Apr-2013

 -----------------------------
 # b3lyp 6-31G(2df,p) opt Freq
 -----------------------------

 -----
 titel
 -----
 Symbolic Z-matrix:
 Charge =  0 Multiplicity = 1

 SCF Done:  E(RB3LYP) =  -423.216675725     A.U. after   14 cycles
 Optimization completed.
    -- Stationary point found.
 Normal termination of Gaussian 09 at Tue Jan 28 08:21:09 2020.

 ----------------------------------------------------------------------
 #N Geom=AllCheck Guess=TCheck SCRF=Check GenChk RB3LYP/6-31G(2df,p) Fr
 eq
 ----------------------------------------------------------------------

 Structure from the checkpoint file:  "/scratch/puck/g09_e3ecd307-56d7-415b-8e9c-d31aa9e8d4a6/Gau-59904.chk"
 -----
 titel
 -----
 Charge =  0 Multiplicity = 1

                         Standard orientation:
 ---------------------------------------------------------------------
 Center     Atomic      Atomic             Coordinates (Angstroms)
 Number     Number       Type             X           Y           Z
 ---------------------------------------------------------------------
      1          6           0        2.438559    1.009498   -0.194174
      2          6           0        2.128435   -0.369999    0.419329
      3          6           0        0.754057   -0.881599    0.016939
      4          8           0        0.605835   -1.705384   -0.857421
      5          6           0       -0.455460   -0.282308    0.739451
      6          6           0       -1.798480   -1.022128    0.483327
      7          6           0       -2.277888    0.115007   -0.468189
      8          6           0       -1.073599    0.938671   -0.017469
      9          8           0       -0.753200    2.086057   -0.111906
     10          1           0        1.709186    1.763634    0.111224
     11          1           0        3.432469    1.340998    0.118722
     12          1           0        2.428354    0.953949   -1.286768
     13          1           0        2.859201   -1.107810    0.077612
     14          1           0        2.186282   -0.306844    1.512258
     15          1           0       -0.199378   -0.041574    1.774585
     16          1           0       -1.671515   -1.994319    0.009352
     17          1           0       -2.406620   -1.116332    1.383932
     18          1           0       -2.197814   -0.152062   -1.527352
     19          1           0       -3.254983    0.572127   -0.294222
 ---------------------------------------------------------------------

 SCF Done:  E(RB3LYP) =  -423.216675725     A.U. after    1 cycles

 The electronic state is 1-A.
 Alpha  occ. eigenvalues --  -19.15141 -19.13709 -10.28466 -10.27738 -10.20573
 Alpha  occ. eigenvalues --  -10.20068 -10.19810 -10.19558 -10.18320  -1.06069
 Alpha  occ. eigenvalues --   -1.04732  -0.85453  -0.78465  -0.70822  -0.65026
 Alpha  occ. eigenvalues --   -0.63308  -0.56675  -0.51554  -0.49573  -0.47480
 Alpha  occ. eigenvalues --   -0.46271  -0.45117  -0.43611  -0.42405  -0.40547
 Alpha  occ. eigenvalues --   -0.39541  -0.38196  -0.36382  -0.35916  -0.34909
 Alpha  occ. eigenvalues --   -0.34743  -0.33776  -0.26276  -0.24544
 Alpha virt. eigenvalues --   -0.03906  -0.01375   0.08799   0.11007   0.11598
 Alpha virt. eigenvalues --    0.12031   0.14133   0.15090   0.16133   0.17014
 Alpha virt. eigenvalues --    0.17398   0.18250   0.18964   0.19313   0.21257

 Mulliken charges:
               1
     1  C   -0.398025
     2  C   -0.271312
     3  C    0.367178
     4  O   -0.302348
     5  C   -0.222678
     6  C   -0.239260
     7  C   -0.323415
     8  C    0.398527
     9  O   -0.286032
    10  H    0.158010
    11  H    0.120804
    12  H    0.131811
    13  H    0.122434
    14  H    0.108309
    15  H    0.106441
    16  H    0.134726
    17  H    0.111750
    18  H    0.150204
    19  H    0.132873
 Sum of Mulliken charges =   0.00000

 Dipole moment (field-independent basis, Debye):
    X=             -0.4611    Y=             -0.4929    Z=              1.7648  Tot=              1.8895
 Quadrupole moment (field-independent basis, Debye-Ang):
   XX=            -47.0469   YY=            -62.9281   ZZ=            -52.0810
   XY=              2.3619   XZ=              1.1025   YZ=             -2.2781

  Exact polarizability:  90.075   1.780  77.329   2.358   1.033  64.420
 Approx polarizability: 113.349   0.507 127.639   3.064   7.931 103.566

                      1                      2                      3
                      A                      A                      A
 Frequencies --     28.3234                53.7448                75.1001
 Red. masses --      2.6171                 2.7032                 4.4335
 Frc consts  --      0.0012                 0.0046                 0.0147
 IR Inten    --      1.9915                 4.3892                 3.1214

                      4                      5                      6
                      A                      A                      A
 Frequencies --    140.9219               231.8806               238.5864
 Red. masses --      6.4127                 3.0941                 1.3298
 Frc consts  --      0.0750                 0.0980                 0.0446
 IR Inten    --      3.2648                 1.3179                 0.9778

                      7                      8                      9
                      A                      A                      A
 Frequencies --    279.8612               385.5179               427.8900
 Red. masses --      2.0549                 2.5721                 3.4133
 Frc consts  --      0.0948                 0.2252                 0.3682
 IR Inten    --      2.7260                 3.0740                 1.8602

                     10                     11                     12
                      A                      A                      A
 Frequencies --    479.1646               564.9156               659.1264
 Red. masses --      3.3878                 3.2934                 4.7306
 Frc consts  --      0.4583                 0.6192                 1.2109
 IR Inten    --      3.8568                 9.3471                 4.8326

                     13                     14                     15
                      A                      A                      A
 Frequencies --    701.1210               711.0405               759.8229
 Red. masses --      2.2866                 1.7440                 2.6889
 Frc consts  --      0.6623                 0.5195                 0.9146
 IR Inten    --      1.6451                 2.5112                 9.3929

                     16                     17                     18
                      A                      A                      A
 Frequencies --    809.0348               876.2978               922.1510
 Red. masses --      1.2858                 2.4674                 2.4025
 Frc consts  --      0.4959                 1.1163                 1.2037
 IR Inten    --      2.5401                 6.3819                37.9841

                     19                     20                     21
                      A                      A                      A
 Frequencies --    947.7071              1001.5160              1002.3665
 Red. masses --      2.6822                 1.7006                 3.1227
 Frc consts  --      1.4194                 1.0050                 1.8486
 IR Inten    --      5.0526                92.5650                 2.1555

                     22                     23                     24
                      A                      A                      A
 Frequencies --   1024.3871              1068.0669              1091.8708
 Red. masses --      1.6296                 3.3888                 1.9854
 Frc consts  --      1.0075                 2.2777                 1.3946
 IR Inten    --     34.5986                65.7290                 4.4754

                     25                     26                     27
                      A                      A                      A
 Frequencies --   1102.4682              1159.6383              1188.4271
 Red. masses --      2.0432                 1.4162                 1.7600
 Frc consts  --      1.4632                 1.1220                 1.4646
 IR Inten    --     18.5484                 4.9325                50.1884

                     28                     29                     30
                      A                      A                      A
 Frequencies --   1221.1335              1230.9942              1271.5957
 Red. masses --      1.5561                 1.1680                 1.4806
 Frc consts  --      1.3671                 1.0428                 1.4106
 IR Inten    --     12.5324                 0.5991                 7.7323

                     31                     32                     33
                      A                      A                      A
 Frequencies --   1279.5425              1312.5191              1331.9374
 Red. masses --      1.2141                 1.6302                 1.5238
 Frc consts  --      1.1711                 1.6546                 1.5928
 IR Inten    --      2.8029                48.8122                 5.8441

                     34                     35                     36
                      A                      A                      A
 Frequencies --   1417.6964              1430.4986              1475.1708
 Red. masses --      1.2011                 1.0936                 1.1028
 Frc consts  --      1.4223                 1.3186                 1.4140
 IR Inten    --      1.9818                 9.0441                 5.7423

                     37                     38                     39
                      A                      A                      A
 Frequencies --   1479.2018              1503.7194              1512.6797
 Red. masses --      1.0815                 1.0369                 1.0628
 Frc consts  --      1.3943                 1.3815                 1.4328
 IR Inten    --      2.2882                 8.7099                12.2801

                     40                     41                     42
                      A                      A                      A
 Frequencies --   1791.6268              1883.4209              3039.1744
 Red. masses --     10.8768                12.5790                 1.0616
 Frc consts  --     20.5706                26.2901                 5.7772
 IR Inten    --    189.4166               211.2587                11.4265

                     43                     44                     45
                      A                      A                      A
 Frequencies --   3046.9264              3058.0181              3081.2439
 Red. masses --      1.0351                 1.0601                 1.0817
 Frc consts  --      5.6616                 5.8407                 6.0506
 IR Inten    --     25.5707                 7.2843                10.1284

                     46                     47                     48
                      A                      A                      A
 Frequencies --   3093.4419              3099.9241              3116.6080
 Red. masses --      1.0644                 1.1002                 1.1027
 Frc consts  --      6.0012                 6.2290                 6.3106
 IR Inten    --     17.4033                10.3183                 8.0896

                     49                     50                     51
                      A                      A                      A
 Frequencies --   3117.5146              3134.8247              3159.1407
 Red. masses --      1.1029                 1.1022                 1.1071
 Frc consts  --      6.3153                 6.3817                 6.5100
 IR Inten    --     21.9257                 9.5869                 5.0222

 - Thermochemistry -
 -------------------
 Temperature   298.150 Kelvin.  Pressure   1.00000 Atm.
 Atom     1 has atomic number  6 and mass  12.00000

 Molecular mass:   126.06808 amu.
 Principal axes and moments of inertia in atomic units:
                           1         2         3
     Eigenvalues --   762.945741291.356201783.08217
           X            0.99744   0.07135   0.00499
           Y           -0.07123   0.99724  -0.02106
           Z           -0.00648   0.02065   0.99977
 This molecule is an asymmetric top.
 Rotational symmetry number  1.
 Warning -- assumption of classical behavior for rotation
           may cause significant error
 Rotational temperatures (Kelvin)      0.11353     0.06707     0.04858
 Rotational constants (GHZ):           2.36549     1.39755     1.01215
 Zero-point vibrational energy     412828.3 (Joules/Mol)
                                   98.66833 (Kcal/Mol)
 Warning -- explicit consideration of  11 degrees of freedom as
           vibrations may cause significant error
 Vibrational temperatures:     40.75    77.33   108.05   202.75   333.62
          (Kelvin)            343.27   402.66   554.67   615.64   689.41
                              812.79   948.33  1008.76  1023.03  1093.21
                             1164.02  1260.80  1326.77  1363.54  1440.96
                             1442.18  1473.86  1536.71  1570.96  1586.20
                             1668.46  1709.88  1756.94  1771.12  1829.54
                             1840.97  1888.42  1916.36  2039.75  2058.17
                             2122.44  2128.24  2163.51  2176.41  2577.75
                             2709.82  4372.69  4383.84  4399.80  4433.22
                             4450.77  4460.09  4484.10  4485.40  4510.31
                             4545.29

 Zero-point correction=                           0.157238 (Hartree/Particle)
 Thermal correction to Energy=                    0.166715
 Thermal correction to Enthalpy=                  0.167659
 Thermal correction to Gibbs Free Energy=         0.121222
 Sum of electronic and zero-point Energies=           -423.059438
 Sum of electronic and thermal Energies=              -423.049961
 Sum of electronic and thermal Enthalpies=            -423.049017
 Sum of electronic and thermal Free Energies=         -423.095454

                     E (Thermal)             CV                S
                      KCal/Mol        Cal/Mol-Kelvin    Cal/Mol-Kelvin
 Total                  104.615             33.682             97.735
 Electronic               0.000              0.000              0.000
 Translational            0.889              2.981             40.409
 Rotational               0.889              2.981             28.953
 Vibrational            102.838             27.721             28.373
 Vibration     1          0.593              1.984              5.944
 Vibration     2          0.596              1.976              4.675
 Vibration     3          0.599              1.966              4.015
 Vibration     4          0.615              1.912              2.791
 Vibration     5          0.653              1.792              1.864
 Vibration     6          0.657              1.782              1.813
 Vibration     7          0.680              1.711              1.535
 Vibration     8          0.754              1.501              1.017
 Vibration     9          0.789              1.410              0.866
 Vibration    10          0.836              1.296              0.712
 Vibration    11          0.921              1.107              0.514

 Optimization completed.
    -- Stationary point found.
 Normal termination of Gaussian 09 at Tue Jan 28 10:14:17 2020.
