 Gaussian 09, Revision D.01,
 Gaussian 09:  ES64L-G09RevD.01 24-Apr-2013

 -----------------------------
 # b3lyp 6-31G(2df,p) opt Freq
 -----------------------------

 -----
 titel
 -----
 Symbolic Z-matrix:
 Charge =  0 Multiplicity = 1

 SCF Done:  E(RB3LYP) =  -423.204376435     A.U. after   14 cycles
 Optimization completed.
    -- Stationary point found.
 Normal termination of Gaussian 09 at Mon Jan 27 14:07:59 2020.

 ----------------------------------------------------------------------
 #N Geom=AllCheck Guess=TCheck SCRF=Check GenChk RB3LYP/6-31G(2df,p) Fr
 eq
 ----------------------------------------------------------------------

 Structure from the checkpoint file:  "/scratch/puck/g09_231d8182-9ab9-4673-9e4f-3fb4604c24f0/Gau-103717.chk"
 -----
 titel
 -----
 Charge =  0 Multiplicity = 1

                         Standard orientation:
 ---------------------------------------------------------------------
 Center     Atomic      Atomic             Coordinates (Angstroms)
 Number     Number       Type             X           Y           Z
 ---------------------------------------------------------------------
      1          6           0        2.744665   -0.847311   -0.470553
      2          6           0        1.738874    0.179677    0.015226
      3          8           0        2.070618    1.128066    0.690143
      4          6           0        0.284377   -0.066425   -0.372696
      5          6           0       -0.404585   -1.038323    0.643710
      6          6           0       -1.857413   -0.609461    0.622813
      7          8           0       -2.390893   -0.446748   -0.697164
      8          6           0       -1.964285    0.724023    0.022262
      9          6           0       -0.588263    1.210352   -0.372592
     10          1           0        2.843728   -0.772230   -1.560226
     11          1           0        3.716122   -0.672614   -0.006822
     12          1           0        2.400626   -1.864844   -0.255789
     13          1           0        0.251249   -0.539957   -1.356989
     14          1           0       -0.265775   -2.089244    0.373498
     15          1           0       -0.007166   -0.894877    1.656121
     16          1           0       -2.553916   -0.985118    1.368343
     17          1           0       -2.755253    1.424282    0.277809
     18          1           0       -0.578136    1.713749   -1.344021
     19          1           0       -0.209500    1.915125    0.375228
 ---------------------------------------------------------------------

 SCF Done:  E(RB3LYP) =  -423.204376435     A.U. after    1 cycles

 The electronic state is 1-A.
 Alpha  occ. eigenvalues --  -19.14811 -19.13020 -10.27093 -10.23734 -10.23489
 Alpha  occ. eigenvalues --  -10.19976 -10.19906 -10.19130 -10.18590  -1.07046
 Alpha  occ. eigenvalues --   -1.04076  -0.82218  -0.74974  -0.72759  -0.67997
 Alpha  occ. eigenvalues --   -0.59723  -0.57788  -0.53988  -0.50414  -0.48741
 Alpha  occ. eigenvalues --   -0.44645  -0.44419  -0.43689  -0.42996  -0.42248
 Alpha  occ. eigenvalues --   -0.38213  -0.37415  -0.37321  -0.35825  -0.34693
 Alpha  occ. eigenvalues --   -0.33656  -0.29270  -0.26449  -0.24664
 Alpha virt. eigenvalues --   -0.01363   0.08014   0.10556   0.11387   0.11904
 Alpha virt. eigenvalues --    0.13211   0.13377   0.14342   0.14837   0.15709
 Alpha virt. eigenvalues --    0.17545   0.17897   0.19371   0.20098   0.20695

 Mulliken charges:
               1
     1  C   -0.479979
     2  C    0.370654
     3  O   -0.305002
     4  C   -0.086320
     5  C   -0.261186
     6  C    0.051442
     7  O   -0.260522
     8  C    0.046405
     9  C   -0.261675
    10  H    0.144846
    11  H    0.141670
    12  H    0.138069
    13  H    0.094237
    14  H    0.114358
    15  H    0.118548
    16  H    0.095852
    17  H    0.096565
    18  H    0.110647
    19  H    0.131392
 Sum of Mulliken charges =   0.00000

 Dipole moment (field-independent basis, Debye):
    X=              0.1170    Y=             -1.3398    Z=              0.0216  Tot=              1.3451
 Quadrupole moment (field-independent basis, Debye-Ang):
   XX=            -56.9437   YY=            -52.9833   ZZ=            -53.0118
   XY=             -6.7974   XZ=             -7.1977   YZ=             -2.9513

  Exact polarizability:  85.962  -2.279  74.924  -1.885  -0.528  63.754
 Approx polarizability: 108.175   3.482 117.909   3.938   5.260 104.615

                      1                      2                      3
                      A                      A                      A
 Frequencies --     39.3957                94.4306               128.9684
 Red. masses --      3.7189                 3.4878                 1.0481
 Frc consts  --      0.0034                 0.0183                 0.0103
 IR Inten    --      4.1037                 5.8765                 0.2439

                      4                      5                      6
                      A                      A                      A
 Frequencies --    184.1517               280.8673               322.1378
 Red. masses --      3.9030                 4.8236                 2.9427
 Frc consts  --      0.0780                 0.2242                 0.1799
 IR Inten    --      3.5089                 0.9356                 1.6892

                      7                      8                      9
                      A                      A                      A
 Frequencies --    331.3885               423.7903               577.4298
 Red. masses --      2.1074                 2.5385                 3.0032
 Frc consts  --      0.1364                 0.2686                 0.5900
 IR Inten    --      1.7605                14.4253                 3.4533

                     10                     11                     12
                      A                      A                      A
 Frequencies --    596.7747               635.3426               668.5880
 Red. masses --      3.2289                 3.0885                 5.3162
 Frc consts  --      0.6775                 0.7345                 1.4001
 IR Inten    --     10.1635                 0.1977                 2.8080

                     13                     14                     15
                      A                      A                      A
 Frequencies --    811.3017               826.2520               863.1596
 Red. masses --      3.1691                 4.2509                 2.3193
 Frc consts  --      1.2290                 1.7099                 1.0181
 IR Inten    --      0.6579                 2.4456                30.7931

                     16                     17                     18
                      A                      A                      A
 Frequencies --    902.8747               910.9708               940.0342
 Red. masses --      1.8665                 1.8846                 2.7884
 Frc consts  --      0.8965                 0.9214                 1.4517
 IR Inten    --      2.0884                 2.7148                 7.9394

                     19                     20                     21
                      A                      A                      A
 Frequencies --    957.2172               977.3221              1013.1200
 Red. masses --      2.1990                 1.9636                 1.8797
 Frc consts  --      1.1871                 1.1050                 1.1367
 IR Inten    --      9.4065                 7.9563                 3.6464

                     22                     23                     24
                      A                      A                      A
 Frequencies --   1033.9553              1085.6420              1091.9540
 Red. masses --      1.4067                 1.5979                 1.8060
 Frc consts  --      0.8860                 1.1096                 1.2687
 IR Inten    --      0.9606                 0.9460                 2.1739

                     25                     26                     27
                      A                      A                      A
 Frequencies --   1104.5458              1177.9105              1180.1723
 Red. masses --      2.3624                 1.8409                 1.3113
 Frc consts  --      1.6982                 1.5049                 1.0761
 IR Inten    --      7.2415                39.1837                 2.8228

                     28                     29                     30
                      A                      A                      A
 Frequencies --   1228.7860              1265.2387              1295.2508
 Red. masses --      1.4263                 1.4062                 1.5171
 Frc consts  --      1.2689                 1.3263                 1.4996
 IR Inten    --     49.7060                 8.1905                11.1026

                     31                     32                     33
                      A                      A                      A
 Frequencies --   1301.1650              1314.5410              1332.8125
 Red. masses --      1.5158                 1.3360                 1.4246
 Frc consts  --      1.5120                 1.3602                 1.4911
 IR Inten    --     29.6439                 2.2662                 0.8659

                     34                     35                     36
                      A                      A                      A
 Frequencies --   1368.2471              1385.2803              1442.4008
 Red. masses --      1.4286                 1.4926                 3.0900
 Frc consts  --      1.5758                 1.6876                 3.7878
 IR Inten    --      7.1042                39.3200                22.8315

                     37                     38                     39
                      A                      A                      A
 Frequencies --   1461.9037              1475.0164              1478.6237
 Red. masses --      1.0556                 1.0528                 1.0926
 Frc consts  --      1.3292                 1.3496                 1.4074
 IR Inten    --      9.7322                 6.8073                 3.2818

                     40                     41                     42
                      A                      A                      A
 Frequencies --   1490.3751              1808.0499              3034.0320
 Red. masses --      1.1097                10.5301                 1.0378
 Frc consts  --      1.4523                20.2816                 5.6289
 IR Inten    --      2.6009               131.1158                 1.8167

                     43                     44                     45
                      A                      A                      A
 Frequencies --   3036.8766              3053.8305              3072.9963
 Red. masses --      1.0611                 1.0589                 1.0872
 Frc consts  --      5.7657                 5.8181                 6.0492
 IR Inten    --     21.0401                15.5217                 1.3921

                     46                     47                     48
                      A                      A                      A
 Frequencies --   3091.7134              3094.8249              3102.0135
 Red. masses --      1.1006                 1.0973                 1.1018
 Frc consts  --      6.1983                 6.1924                 6.2467
 IR Inten    --     15.8240                 8.2895                23.7763

                     49                     50                     51
                      A                      A                      A
 Frequencies --   3142.1300              3152.1277              3155.6633
 Red. masses --      1.0870                 1.1021                 1.0954
 Frc consts  --      6.3231                 6.4515                 6.4272
 IR Inten    --     19.0511                12.4663                39.2024

 - Thermochemistry -
 -------------------
 Temperature   298.150 Kelvin.  Pressure   1.00000 Atm.
 Atom     1 has atomic number  6 and mass  12.00000

 Molecular mass:   126.06808 amu.
 Principal axes and moments of inertia in atomic units:
                           1         2         3
     Eigenvalues --   482.648721666.175631849.37672
           X            0.99911  -0.03579  -0.02235
           Y            0.03487   0.99857  -0.04042
           Z            0.02376   0.03960   0.99893
 This molecule is an asymmetric top.
 Rotational symmetry number  1.
 Warning -- assumption of classical behavior for rotation
           may cause significant error
 Rotational temperatures (Kelvin)      0.17946     0.05198     0.04683
 Rotational constants (GHZ):           3.73924     1.08316     0.97586
 Zero-point vibrational energy     417159.3 (Joules/Mol)
                                   99.70348 (Kcal/Mol)
 Warning -- explicit consideration of  10 degrees of freedom as
           vibrations may cause significant error
 Vibrational temperatures:     56.68   135.86   185.56   264.95   404.10
          (Kelvin)            463.48   476.79   609.74   830.79   858.62
                              914.12   961.95  1167.28  1188.79  1241.89
                             1299.03  1310.68  1352.50  1377.22  1406.15
                             1457.65  1487.63  1561.99  1571.08  1589.19
                             1694.75  1698.00  1767.95  1820.39  1863.57
                             1872.08  1891.33  1917.62  1968.60  1993.11
                             2075.29  2103.35  2122.22  2127.41  2144.31
                             2601.38  4365.29  4369.38  4393.78  4421.35
                             4448.28  4452.76  4463.10  4520.82  4535.20
                             4540.29

 Zero-point correction=                           0.158888 (Hartree/Particle)
 Thermal correction to Energy=                    0.167439
 Thermal correction to Enthalpy=                  0.168383
 Thermal correction to Gibbs Free Energy=         0.124752
 Sum of electronic and zero-point Energies=           -423.045489
 Sum of electronic and thermal Energies=              -423.036937
 Sum of electronic and thermal Enthalpies=            -423.035993
 Sum of electronic and thermal Free Energies=         -423.079624

                     E (Thermal)             CV                S
                      KCal/Mol        Cal/Mol-Kelvin    Cal/Mol-Kelvin
 Total                  105.070             31.666             91.829
 Electronic               0.000              0.000              0.000
 Translational            0.889              2.981             40.409
 Rotational               0.889              2.981             28.788
 Vibrational            103.292             25.704             22.633
 Vibration     1          0.594              1.981              5.289
 Vibration     2          0.603              1.953              3.566
 Vibration     3          0.611              1.924              2.961
 Vibration     4          0.631              1.861              2.286
 Vibration     5          0.681              1.709              1.528
 Vibration     6          0.707              1.631              1.299
 Vibration     7          0.714              1.613              1.253
 Vibration     8          0.786              1.419              0.879
 Vibration     9          0.934              1.080              0.490
 Vibration    10          0.955              1.039              0.455

 Optimization completed.
    -- Stationary point found.
 Normal termination of Gaussian 09 at Mon Jan 27 14:48:24 2020.
