 Gaussian 09, Revision D.01,
 Gaussian 09:  ES64L-G09RevD.01 24-Apr-2013

 -----------------------------
 # b3lyp 6-31G(2df,p) opt Freq
 -----------------------------

 -----
 titel
 -----
 Symbolic Z-matrix:
 Charge =  0 Multiplicity = 1

 SCF Done:  E(RB3LYP) =  -423.113897007     A.U. after   13 cycles
 Optimization completed.
    -- Stationary point found.
 Normal termination of Gaussian 09 at Tue Jan 28 03:07:29 2020.

 ----------------------------------------------------------------------
 #N Geom=AllCheck Guess=TCheck SCRF=Check GenChk RB3LYP/6-31G(2df,p) Fr
 eq
 ----------------------------------------------------------------------

 Structure from the checkpoint file:  "/scratch/puck/g09_f1ce13d5-4181-4937-a2c3-2e504603c278/Gau-88874.chk"
 -----
 titel
 -----
 Charge =  0 Multiplicity = 1

                         Standard orientation:
 ---------------------------------------------------------------------
 Center     Atomic      Atomic             Coordinates (Angstroms)
 Number     Number       Type             X           Y           Z
 ---------------------------------------------------------------------
      1          6           0       -2.328681   -1.075068    0.128123
      2          6           0       -1.216924   -0.323046   -0.597308
      3          6           0       -1.217446    1.251091   -0.350247
      4          6           0        0.157339    1.402473    0.386729
      5          8           0        0.117657    0.234550    1.242007
      6          6           0        0.192235   -0.502025   -0.038996
      7          6           0        1.472959   -1.324837    0.005033
      8          8           0        2.239254   -0.091738   -0.156794
      9          6           0        1.061570    0.632511   -0.590820
     10          1           0       -2.264187   -0.895766    1.204655
     11          1           0       -3.313715   -0.744362   -0.217029
     12          1           0       -2.259279   -2.153985   -0.047484
     13          1           0       -1.240880   -0.546404   -1.668698
     14          1           0       -1.286261    1.827229   -1.277674
     15          1           0       -2.031203    1.554274    0.311955
     16          1           0        0.376422    2.343266    0.894671
     17          1           0        1.692269   -1.831405    0.948188
     18          1           0        1.624607   -2.000161   -0.846685
     19          1           0        1.120633    0.938229   -1.638695
 ---------------------------------------------------------------------

 SCF Done:  E(RB3LYP) =  -423.113897007     A.U. after    1 cycles

 The electronic state is 1-A.
 Alpha  occ. eigenvalues --  -19.14003 -19.13401 -10.24274 -10.24113 -10.24057
 Alpha  occ. eigenvalues --  -10.23123 -10.20417 -10.19239 -10.17606  -1.07831
 Alpha  occ. eigenvalues --   -1.00830  -0.80731  -0.74575  -0.71757  -0.67853
 Alpha  occ. eigenvalues --   -0.63837  -0.56831  -0.53387  -0.51043  -0.49579
 Alpha  occ. eigenvalues --   -0.48099  -0.45331  -0.42602  -0.40532  -0.39690
 Alpha  occ. eigenvalues --   -0.39499  -0.36920  -0.34425  -0.34199  -0.33467
 Alpha  occ. eigenvalues --   -0.31974  -0.28072  -0.25412  -0.24969
 Alpha virt. eigenvalues --    0.06090   0.08961   0.09759   0.10600   0.12771
 Alpha virt. eigenvalues --    0.13894   0.14633   0.15556   0.15681   0.16319
 Alpha virt. eigenvalues --    0.16891   0.17718   0.18404   0.18479   0.20747

 Mulliken charges:
               1
     1  C   -0.409237
     2  C   -0.075440
     3  C   -0.243502
     4  C    0.015534
     5  O   -0.324701
     6  C    0.361956
     7  C   -0.182770
     8  O   -0.295961
     9  C    0.103564
    10  H    0.135519
    11  H    0.113505
    12  H    0.113038
    13  H    0.077323
    14  H    0.102442
    15  H    0.114860
    16  H    0.084631
    17  H    0.124975
    18  H    0.104745
    19  H    0.079519
 Sum of Mulliken charges =   0.00000

 Dipole moment (field-independent basis, Debye):
    X=             -1.7391    Y=             -0.1327    Z=             -1.7114  Tot=              2.4435
 Quadrupole moment (field-independent basis, Debye-Ang):
   XX=            -58.0304   YY=            -48.4423   ZZ=            -54.3264
   XY=             -1.5929   XZ=             -0.0604   YZ=             -0.1420

  Exact polarizability:  79.261  -3.680  78.891  -0.044  -0.336  65.097
 Approx polarizability: 108.391  -4.517 114.593   0.129  -1.119 105.807

                      1                      2                      3
                      A                      A                      A
 Frequencies --    175.0509               228.4361               243.6423
 Red. masses --      2.9658                 2.9367                 1.0630
 Frc consts  --      0.0535                 0.0903                 0.0372
 IR Inten    --      1.2058                 0.1128                 0.0594

                      4                      5                      6
                      A                      A                      A
 Frequencies --    309.6159               316.3959               425.7696
 Red. masses --      3.3210                 2.1191                 2.2396
 Frc consts  --      0.1876                 0.1250                 0.2392
 IR Inten    --      3.3065                 2.7889                 0.2983

                      7                      8                      9
                      A                      A                      A
 Frequencies --    462.8797               510.5943               602.2895
 Red. masses --      3.0411                 5.7985                 4.3312
 Frc consts  --      0.3839                 0.8907                 0.9257
 IR Inten    --      9.4309                 2.0200                 2.5060

                     10                     11                     12
                      A                      A                      A
 Frequencies --    701.0863               755.6749               803.1448
 Red. masses --      3.2591                 4.4877                 3.0635
 Frc consts  --      0.9438                 1.5099                 1.1643
 IR Inten    --      2.1601                 9.7035                 9.7178

                     13                     14                     15
                      A                      A                      A
 Frequencies --    826.6977               863.0575               890.0318
 Red. masses --      2.7258                 2.4294                 2.5022
 Frc consts  --      1.0976                 1.0662                 1.1678
 IR Inten    --     23.0640                 4.8744                11.0724

                     16                     17                     18
                      A                      A                      A
 Frequencies --    919.8847               926.7694               957.0515
 Red. masses --      2.4281                 1.9630                 5.4974
 Frc consts  --      1.2106                 0.9934                 2.9667
 IR Inten    --     12.6541                 3.4924                41.3138

                     19                     20                     21
                      A                      A                      A
 Frequencies --    963.0445              1010.6761              1027.4195
 Red. masses --      3.9647                 3.1602                 1.6584
 Frc consts  --      2.1665                 1.9019                 1.0314
 IR Inten    --     49.2704                40.9862                 5.8110

                     22                     23                     24
                      A                      A                      A
 Frequencies --   1049.6872              1072.1368              1089.5105
 Red. masses --      1.5869                 2.2110                 2.0351
 Frc consts  --      1.0302                 1.4974                 1.4233
 IR Inten    --      3.1518                 8.5504                 3.8737

                     25                     26                     27
                      A                      A                      A
 Frequencies --   1119.3275              1156.2229              1183.0049
 Red. masses --      1.9171                 1.2170                 1.7353
 Frc consts  --      1.4152                 0.9586                 1.4308
 IR Inten    --      8.3248                 2.4233                 0.8648

                     28                     29                     30
                      A                      A                      A
 Frequencies --   1202.1317              1223.5189              1232.6027
 Red. masses --      1.4812                 2.1503                 1.7838
 Frc consts  --      1.2612                 1.8966                 1.5968
 IR Inten    --      1.3510                 5.4934                16.1042

                     31                     32                     33
                      A                      A                      A
 Frequencies --   1272.1826              1289.0023              1295.4749
 Red. masses --      1.3520                 1.4674                 1.5526
 Frc consts  --      1.2892                 1.4365                 1.5352
 IR Inten    --      0.5700                 3.2001                 1.1876

                     34                     35                     36
                      A                      A                      A
 Frequencies --   1323.0459              1355.1781              1384.1926
 Red. masses --      1.6990                 1.4273                 1.8477
 Frc consts  --      1.7523                 1.5444                 2.0858
 IR Inten    --      9.1991                 2.1867                 1.7921

                     37                     38                     39
                      A                      A                      A
 Frequencies --   1406.2860              1480.1740              1495.7927
 Red. masses --      1.2810                 1.1036                 1.0489
 Frc consts  --      1.4926                 1.4246                 1.3826
 IR Inten    --      4.8753                 2.8710                 4.3249

                     40                     41                     42
                      A                      A                      A
 Frequencies --   1496.1667              1507.0949              3021.4845
 Red. masses --      1.1075                 1.0522                 1.0616
 Frc consts  --      1.4607                 1.4080                 5.7101
 IR Inten    --      0.3969                 2.5533                59.8612

                     43                     44                     45
                      A                      A                      A
 Frequencies --   3034.3124              3053.2393              3063.0700
 Red. masses --      1.0363                 1.0797                 1.0668
 Frc consts  --      5.6214                 5.9300                 5.8971
 IR Inten    --     28.3040                16.0225                15.5471

                     46                     47                     48
                      A                      A                      A
 Frequencies --   3075.5290              3097.3005              3105.4543
 Red. masses --      1.0851                 1.1013                 1.1037
 Frc consts  --      6.0475                 6.2248                 6.2714
 IR Inten    --     51.4830                23.3920                23.0216

                     49                     50                     51
                      A                      A                      A
 Frequencies --   3107.6118              3119.2115              3123.4990
 Red. masses --      1.0921                 1.1043                 1.1016
 Frc consts  --      6.2142                 6.3305                 6.3323
 IR Inten    --     53.0330                 9.2812                31.1119

 - Thermochemistry -
 -------------------
 Temperature   298.150 Kelvin.  Pressure   1.00000 Atm.
 Atom     1 has atomic number  6 and mass  12.00000

 Molecular mass:   126.06808 amu.
 Principal axes and moments of inertia in atomic units:
                           1         2         3
     Eigenvalues --   576.900141088.366421321.31430
           X            1.00000   0.00143   0.00020
           Y           -0.00143   0.99983  -0.01838
           Z           -0.00023   0.01838   0.99983
 This molecule is an asymmetric top.
 Rotational symmetry number  1.
 Warning -- assumption of classical behavior for rotation
           may cause significant error
 Rotational temperatures (Kelvin)      0.15014     0.07958     0.06555
 Rotational constants (GHZ):           3.12834     1.65821     1.36587
 Zero-point vibrational energy     420802.3 (Joules/Mol)
                                  100.57417 (Kcal/Mol)
 Warning -- explicit consideration of   9 degrees of freedom as
           vibrations may cause significant error
 Vibrational temperatures:    251.86   328.67   350.55   445.47   455.22
          (Kelvin)            612.59   665.98   734.63   866.56  1008.71
                             1087.25  1155.54  1189.43  1241.75  1280.56
                             1323.51  1333.41  1376.98  1385.60  1454.14
                             1478.23  1510.26  1542.56  1567.56  1610.46
                             1663.54  1702.08  1729.60  1760.37  1773.44
                             1830.38  1854.58  1863.90  1903.57  1949.80
                             1991.54  2023.33  2129.64  2152.11  2152.65
                             2168.37  4347.24  4365.69  4392.92  4407.07
                             4424.99  4456.32  4468.05  4471.15  4487.84
                             4494.01

 Zero-point correction=                           0.160275 (Hartree/Particle)
 Thermal correction to Energy=                    0.167449
 Thermal correction to Enthalpy=                  0.168394
 Thermal correction to Gibbs Free Energy=         0.129119
 Sum of electronic and zero-point Energies=           -422.953622
 Sum of electronic and thermal Energies=              -422.946448
 Sum of electronic and thermal Enthalpies=            -422.945504
 Sum of electronic and thermal Free Energies=         -422.984778

                     E (Thermal)             CV                S
                      KCal/Mol        Cal/Mol-Kelvin    Cal/Mol-Kelvin
 Total                  105.076             29.536             82.659
 Electronic               0.000              0.000              0.000
 Translational            0.889              2.981             40.409
 Rotational               0.889              2.981             28.208
 Vibrational            103.299             23.574             14.043
 Vibration     1          0.627              1.873              2.381
 Vibration     2          0.651              1.798              1.891
 Vibration     3          0.659              1.773              1.776
 Vibration     4          0.699              1.655              1.364
 Vibration     5          0.703              1.642              1.329
 Vibration     6          0.788              1.414              0.873
 Vibration     7          0.821              1.332              0.758
 Vibration     8          0.866              1.227              0.632
 Vibration     9          0.961              1.027              0.446

 Optimization completed.
    -- Stationary point found.
 Normal termination of Gaussian 09 at Tue Jan 28 03:53:16 2020.
