 Gaussian 09, Revision D.01,
 Gaussian 09:  ES64L-G09RevD.01 24-Apr-2013

 -----------------------------
 # b3lyp 6-31G(2df,p) opt Freq
 -----------------------------

 -----
 titel
 -----
 Symbolic Z-matrix:
 Charge =  0 Multiplicity = 1

 SCF Done:  E(RB3LYP) =  -423.150695478     A.U. after   14 cycles
 Optimization completed.
    -- Stationary point found.
 Normal termination of Gaussian 09 at Mon Jan 27 18:46:34 2020.

 ----------------------------------------------------------------------
 #N Geom=AllCheck Guess=TCheck SCRF=Check GenChk RB3LYP/6-31G(2df,p) Fr
 eq
 ----------------------------------------------------------------------

 Structure from the checkpoint file:  "/scratch/puck/g09_229bcc42-8641-4b5d-ade6-80d4ba861943/Gau-183339.chk"
 -----
 titel
 -----
 Charge =  0 Multiplicity = 1

                         Standard orientation:
 ---------------------------------------------------------------------
 Center     Atomic      Atomic             Coordinates (Angstroms)
 Number     Number       Type             X           Y           Z
 ---------------------------------------------------------------------
      1          6           0       -0.215369    1.830807    0.391575
      2          6           0       -0.789481    0.506910    0.004554
      3          8           0       -1.976416    0.528798   -0.806631
      4          6           0       -2.526997   -0.595624   -0.068818
      5          6           0       -1.248234   -0.740854    0.738924
      6          6           0       -0.069089   -0.796694   -0.221680
      7          6           0        1.303292   -1.006279    0.399013
      8          6           0        2.394020   -0.382771   -0.447745
      9          8           0        3.150368    0.473518   -0.067471
     10          1           0        0.031651    2.402094   -0.510534
     11          1           0       -0.935130    2.414600    0.973307
     12          1           0        0.702709    1.717213    0.972707
     13          1           0       -3.392143   -0.279015    0.525212
     14          1           0       -2.814041   -1.425873   -0.725514
     15          1           0       -1.166554   -1.025176    1.780000
     16          1           0       -0.218502   -1.278779   -1.187420
     17          1           0        1.363956   -0.581842    1.405202
     18          1           0        1.501919   -2.084846    0.476895
     19          1           0        2.445675   -0.769877   -1.491989
 ---------------------------------------------------------------------

 SCF Done:  E(RB3LYP) =  -423.150695478     A.U. after    1 cycles

 The electronic state is 1-A.
 Alpha  occ. eigenvalues --  -19.14408 -19.13806 -10.27589 -10.24830 -10.23792
 Alpha  occ. eigenvalues --  -10.20629 -10.20450 -10.20050 -10.18459  -1.05307
 Alpha  occ. eigenvalues --   -1.05039  -0.85092  -0.75520  -0.74483  -0.67784
 Alpha  occ. eigenvalues --   -0.59438  -0.58096  -0.53075  -0.50055  -0.49758
 Alpha  occ. eigenvalues --   -0.47263  -0.46058  -0.43845  -0.42198  -0.41317
 Alpha  occ. eigenvalues --   -0.40502  -0.39324  -0.37705  -0.36242  -0.33863
 Alpha  occ. eigenvalues --   -0.32152  -0.27754  -0.25366  -0.23388
 Alpha virt. eigenvalues --   -0.02514   0.07788   0.09847   0.10241   0.11524
 Alpha virt. eigenvalues --    0.11755   0.13265   0.14346   0.14966   0.15237
 Alpha virt. eigenvalues --    0.17023   0.17571   0.18207   0.20337   0.21906

 Mulliken charges:
               1
     1  C   -0.496682
     2  C    0.472394
     3  O   -0.322245
     4  C   -0.100820
     5  C   -0.201573
     6  C   -0.094608
     7  C   -0.323329
     8  C    0.169953
     9  O   -0.239420
    10  H    0.138402
    11  H    0.127184
    12  H    0.142536
    13  H    0.110469
    14  H    0.103873
    15  H    0.100122
    16  H    0.090855
    17  H    0.121127
    18  H    0.123041
    19  H    0.078720
 Sum of Mulliken charges =   0.00000

 Dipole moment (field-independent basis, Debye):
    X=             -1.2552    Y=             -2.2034    Z=              0.9798  Tot=              2.7185
 Quadrupole moment (field-independent basis, Debye-Ang):
   XX=            -61.5164   YY=            -51.6164   ZZ=            -52.6432
   XY=             -2.1789   XZ=             -3.5890   YZ=              1.4044

  Exact polarizability:  90.035   4.779  74.429  -1.930   2.436  65.341
 Approx polarizability: 118.734   9.653 112.939   0.088   2.228 102.687

                      1                      2                      3
                      A                      A                      A
 Frequencies --     51.2131                73.6062               140.4364
 Red. masses --      6.6095                 3.4029                 1.8953
 Frc consts  --      0.0102                 0.0109                 0.0220
 IR Inten    --      5.8048                 3.3068                 3.6543

                      4                      5                      6
                      A                      A                      A
 Frequencies --    185.7195               214.5834               249.8890
 Red. masses --      1.2869                 2.7442                 2.3553
 Frc consts  --      0.0262                 0.0744                 0.0867
 IR Inten    --      0.8158                 1.0233                 2.6286

                      7                      8                      9
                      A                      A                      A
 Frequencies --    322.9939               351.3447               416.1540
 Red. masses --      2.5064                 3.2110                 2.9621
 Frc consts  --      0.1541                 0.2335                 0.3022
 IR Inten    --      1.8753                 1.0416                 3.1428

                     10                     11                     12
                      A                      A                      A
 Frequencies --    451.2283               552.4932               661.1556
 Red. masses --      2.7360                 3.1095                 3.5503
 Frc consts  --      0.3282                 0.5592                 0.9144
 IR Inten    --      6.8238                10.7412                 2.7484

                     13                     14                     15
                      A                      A                      A
 Frequencies --    735.5512               776.3532               847.0230
 Red. masses --      2.4575                 2.5588                 1.9173
 Frc consts  --      0.7834                 0.9087                 0.8104
 IR Inten    --      2.0238                 8.5563                 5.5931

                     16                     17                     18
                      A                      A                      A
 Frequencies --    916.7958               924.5371               967.8526
 Red. masses --      1.5481                 1.7891                 2.8996
 Frc consts  --      0.7666                 0.9010                 1.6003
 IR Inten    --     13.0036                17.6970                14.6445

                     19                     20                     21
                      A                      A                      A
 Frequencies --    988.8750              1006.6652              1014.1509
 Red. masses --      4.4123                 1.5457                 1.9188
 Frc consts  --      2.5421                 0.9229                 1.1628
 IR Inten    --     63.8148                 4.8751                15.7573

                     22                     23                     24
                      A                      A                      A
 Frequencies --   1051.1072              1087.3994              1102.6685
 Red. masses --      1.8007                 2.0516                 2.0167
 Frc consts  --      1.1721                 1.4293                 1.4447
 IR Inten    --      2.2187                 0.0514                 2.3079

                     25                     26                     27
                      A                      A                      A
 Frequencies --   1111.7000              1134.5793              1163.0262
 Red. masses --      2.3321                 1.8840                 1.3137
 Frc consts  --      1.6981                 1.4289                 1.0470
 IR Inten    --      2.2191                14.3507                 5.6211

                     28                     29                     30
                      A                      A                      A
 Frequencies --   1189.0759              1205.5675              1254.9015
 Red. masses --      1.9182                 1.3216                 1.5527
 Frc consts  --      1.5980                 1.1317                 1.4406
 IR Inten    --     48.3604                 9.7445                 1.8693

                     31                     32                     33
                      A                      A                      A
 Frequencies --   1297.5031              1338.8716              1344.7808
 Red. masses --      1.5815                 1.4771                 1.6847
 Frc consts  --      1.5687                 1.5601                 1.7950
 IR Inten    --      5.2191                 5.3853                 3.0864

                     34                     35                     36
                      A                      A                      A
 Frequencies --   1414.5045              1427.2606              1454.1209
 Red. masses --      1.3103                 1.1966                 2.6752
 Frc consts  --      1.5447                 1.4361                 3.3327
 IR Inten    --      3.6573                 4.3281                 7.9081

                     37                     38                     39
                      A                      A                      A
 Frequencies --   1465.2127              1473.2233              1500.2540
 Red. masses --      1.1140                 1.0732                 1.1525
 Frc consts  --      1.4091                 1.3723                 1.5284
 IR Inten    --      7.9043                 5.5408                 4.7583

                     40                     41                     42
                      A                      A                      A
 Frequencies --   1518.9685              1832.9664              2864.1317
 Red. masses --      1.1275                10.0503                 1.0824
 Frc consts  --      1.5327                19.8947                 5.2316
 IR Inten    --      0.8009               154.7643               107.1054

                     43                     44                     45
                      A                      A                      A
 Frequencies --   3013.2905              3019.7899              3037.3764
 Red. masses --      1.0655                 1.0547                 1.0372
 Frc consts  --      5.7001                 5.6668                 5.6377
 IR Inten    --     19.0597                84.8833                16.4453

                     46                     47                     48
                      A                      A                      A
 Frequencies --   3067.2062              3092.7218              3098.8637
 Red. masses --      1.1113                 1.0939                 1.0999
 Frc consts  --      6.1598                 6.1648                 6.2232
 IR Inten    --     36.0670                 1.8360                14.4792

                     49                     50                     51
                      A                      A                      A
 Frequencies --   3109.2984              3130.2221              3195.0464
 Red. masses --      1.0890                 1.1000                 1.0938
 Frc consts  --      6.2031                 6.3501                 6.5785
 IR Inten    --     26.0657                10.2603                 9.4029

 - Thermochemistry -
 -------------------
 Temperature   298.150 Kelvin.  Pressure   1.00000 Atm.
 Atom     1 has atomic number  6 and mass  12.00000

 Molecular mass:   126.06808 amu.
 Principal axes and moments of inertia in atomic units:
                           1         2         3
     Eigenvalues --   515.583991721.484881981.84225
           X            0.99998  -0.00066  -0.00692
           Y            0.00091   0.99933   0.03672
           Z            0.00689  -0.03673   0.99930
 This molecule is an asymmetric top.
 Rotational symmetry number  1.
 Warning -- assumption of classical behavior for rotation
           may cause significant error
 Rotational temperatures (Kelvin)      0.16799     0.05031     0.04370
 Rotational constants (GHZ):           3.50038     1.04836     0.91064
 Zero-point vibrational energy     411780.1 (Joules/Mol)
                                   98.41781 (Kcal/Mol)
 Warning -- explicit consideration of  11 degrees of freedom as
           vibrations may cause significant error
 Vibrational temperatures:     73.68   105.90   202.06   267.21   308.74
          (Kelvin)            359.53   464.72   505.51   598.75   649.22
                              794.91   951.25  1058.29  1117.00  1218.68
                             1319.06  1330.20  1392.52  1422.77  1448.36
                             1459.14  1512.31  1564.52  1586.49  1599.49
                             1632.40  1673.33  1710.81  1734.54  1805.52
                             1866.82  1926.34  1934.84  2035.15  2053.51
                             2092.15  2108.11  2119.64  2158.53  2185.45
                             2637.23  4120.84  4335.45  4344.80  4370.10
                             4413.02  4449.73  4458.57  4473.58  4503.69
                             4596.95

 Zero-point correction=                           0.156839 (Hartree/Particle)
 Thermal correction to Energy=                    0.165951
 Thermal correction to Enthalpy=                  0.166895
 Thermal correction to Gibbs Free Energy=         0.122232
 Sum of electronic and zero-point Energies=           -422.993857
 Sum of electronic and thermal Energies=              -422.984745
 Sum of electronic and thermal Enthalpies=            -422.983800
 Sum of electronic and thermal Free Energies=         -423.028463

                     E (Thermal)             CV                S
                      KCal/Mol        Cal/Mol-Kelvin    Cal/Mol-Kelvin
 Total                  104.136             33.062             94.001
 Electronic               0.000              0.000              0.000
 Translational            0.889              2.981             40.409
 Rotational               0.889              2.981             28.955
 Vibrational            102.358             27.100             24.637
 Vibration     1          0.595              1.977              4.770
 Vibration     2          0.599              1.966              4.055
 Vibration     3          0.615              1.913              2.798
 Vibration     4          0.632              1.859              2.270
 Vibration     5          0.645              1.819              2.004
 Vibration     6          0.663              1.763              1.731
 Vibration     7          0.708              1.629              1.295
 Vibration     8          0.728              1.573              1.160
 Vibration     9          0.779              1.435              0.905
 Vibration    10          0.810              1.358              0.792
 Vibration    11          0.908              1.134              0.539

 Optimization completed.
    -- Stationary point found.
 Normal termination of Gaussian 09 at Mon Jan 27 19:28:59 2020.
