 Gaussian 09, Revision D.01,
 Gaussian 09:  ES64L-G09RevD.01 24-Apr-2013

 -----------------------------
 # b3lyp 6-31G(2df,p) opt Freq
 -----------------------------

 -----
 titel
 -----
 Symbolic Z-matrix:
 Charge =  0 Multiplicity = 1

 SCF Done:  E(RB3LYP) =  -423.166991118     A.U. after   14 cycles
 Optimization completed.
    -- Stationary point found.
 Normal termination of Gaussian 09 at Mon Jan 27 12:15:24 2020.

 ----------------------------------------------------------------------
 #N Geom=AllCheck Guess=TCheck SCRF=Check GenChk RB3LYP/6-31G(2df,p) Fr
 eq
 ----------------------------------------------------------------------

 Structure from the checkpoint file:  "/scratch/puck/g09_97c252ed-ec68-4354-a1bc-a4d789070177/Gau-153283.chk"
 -----
 titel
 -----
 Charge =  0 Multiplicity = 1

                         Standard orientation:
 ---------------------------------------------------------------------
 Center     Atomic      Atomic             Coordinates (Angstroms)
 Number     Number       Type             X           Y           Z
 ---------------------------------------------------------------------
      1          6           0       -1.149390   -0.168069    1.128541
      2          8           0       -2.445529    0.011115    0.523005
      3          6           0       -1.877763    0.011615   -0.803014
      4          6           0       -0.445866    0.035730   -0.242267
      5          6           0        0.322022    1.345711   -0.405971
      6          6           0        1.718942    1.200175    0.137509
      7          6           0        2.259595    0.000253    0.332155
      8          6           0        1.527817   -1.266584   -0.006759
      9          8           0        0.318843   -1.053013   -0.718485
     10          1           0       -0.951302    0.573397    1.910849
     11          1           0       -1.022503   -1.178870    1.538049
     12          1           0       -2.099830   -0.908935   -1.356278
     13          1           0       -2.193456    0.883777   -1.387626
     14          1           0        0.350900    1.618169   -1.470667
     15          1           0       -0.213312    2.156064    0.103129
     16          1           0        2.274043    2.103897    0.372545
     17          1           0        3.256375   -0.113648    0.749595
     18          1           0        2.143789   -1.905256   -0.651303
     19          1           0        1.336646   -1.846391    0.914390
 ---------------------------------------------------------------------

 SCF Done:  E(RB3LYP) =  -423.166991118     A.U. after    1 cycles

 The electronic state is 1-A.
 Alpha  occ. eigenvalues --  -19.14533 -19.13074 -10.24192 -10.23707 -10.22469
 Alpha  occ. eigenvalues --  -10.22437 -10.19129 -10.18998 -10.18806  -1.05177
 Alpha  occ. eigenvalues --   -1.02456  -0.80620  -0.77693  -0.69154  -0.67795
 Alpha  occ. eigenvalues --   -0.65686  -0.57337  -0.51981  -0.50850  -0.50356
 Alpha  occ. eigenvalues --   -0.46938  -0.46111  -0.43399  -0.42206  -0.41360
 Alpha  occ. eigenvalues --   -0.40039  -0.38895  -0.37206  -0.35226  -0.32102
 Alpha  occ. eigenvalues --   -0.29481  -0.25696  -0.25175  -0.24510
 Alpha virt. eigenvalues --    0.01526   0.07459   0.09289   0.10881   0.12048
 Alpha virt. eigenvalues --    0.13552   0.14342   0.15362   0.15719   0.16581
 Alpha virt. eigenvalues --    0.17307   0.17585   0.19726   0.20436   0.22198

 Mulliken charges:
               1
     1  C   -0.119754
     2  O   -0.274935
     3  C   -0.127453
     4  C    0.347599
     5  C   -0.306713
     6  C   -0.072787
     7  C   -0.064122
     8  C   -0.130744
     9  O   -0.298497
    10  H    0.101145
    11  H    0.097924
    12  H    0.107755
    13  H    0.098535
    14  H    0.116438
    15  H    0.114187
    16  H    0.093614
    17  H    0.094474
    18  H    0.121464
    19  H    0.101870
 Sum of Mulliken charges =   0.00000

 Dipole moment (field-independent basis, Debye):
    X=              2.1340    Y=              0.6021    Z=              0.1594  Tot=              2.2230
 Quadrupole moment (field-independent basis, Debye-Ang):
   XX=            -56.6099   YY=            -51.1741   ZZ=            -53.0457
   XY=             -1.1946   XZ=              3.4901   YZ=             -1.5421

  Exact polarizability:  82.818  -5.362  79.623   6.427  -2.675  65.036
 Approx polarizability: 110.143 -12.919 123.887   7.865  -4.059  99.181

                      1                      2                      3
                      A                      A                      A
 Frequencies --     77.4287               114.1163               168.9335
 Red. masses --      3.9731                 3.0763                 2.3881
 Frc consts  --      0.0140                 0.0236                 0.0402
 IR Inten    --      4.1510                 0.2213                 3.1120

                      4                      5                      6
                      A                      A                      A
 Frequencies --    274.3897               356.0813               389.7688
 Red. masses --      2.2429                 2.6502                 2.1539
 Frc consts  --      0.0995                 0.1980                 0.1928
 IR Inten    --      1.4743                 1.1164                 0.4720

                      7                      8                      9
                      A                      A                      A
 Frequencies --    420.0913               466.6110               530.1507
 Red. masses --      3.3624                 3.2071                 5.4068
 Frc consts  --      0.3496                 0.4114                 0.8953
 IR Inten    --      3.3820                 3.6726                 1.1234

                     10                     11                     12
                      A                      A                      A
 Frequencies --    652.4305               682.4476               815.9757
 Red. masses --      1.8698                 1.8911                 2.7093
 Frc consts  --      0.4689                 0.5189                 1.0628
 IR Inten    --     16.2862                 8.4604                15.2860

                     13                     14                     15
                      A                      A                      A
 Frequencies --    849.0253               885.5884               905.7150
 Red. masses --      3.7047                 2.4589                 2.6846
 Frc consts  --      1.5734                 1.1362                 1.2975
 IR Inten    --      2.1486                 5.7390                15.9609

                     16                     17                     18
                      A                      A                      A
 Frequencies --    934.9765               968.0345               984.0720
 Red. masses --      2.3345                 1.5700                 2.0166
 Frc consts  --      1.2024                 0.8668                 1.1506
 IR Inten    --      4.0423                 1.5852                 5.0310

                     19                     20                     21
                      A                      A                      A
 Frequencies --    993.3214              1000.6575              1033.8477
 Red. masses --      1.7207                 1.8352                10.8993
 Frc consts  --      1.0003                 1.0827                 6.8638
 IR Inten    --      1.7326                 2.7307                84.7560

                     22                     23                     24
                      A                      A                      A
 Frequencies --   1036.6060              1098.6258              1116.5893
 Red. masses --      1.8879                 2.2979                 3.1894
 Frc consts  --      1.1952                 1.6341                 2.3428
 IR Inten    --     11.7188                 5.7598                65.4952

                     25                     26                     27
                      A                      A                      A
 Frequencies --   1154.0774              1157.8859              1166.4981
 Red. masses --      1.4112                 1.2740                 1.5380
 Frc consts  --      1.1074                 1.0064                 1.2331
 IR Inten    --      2.9791                 4.2461                 7.7164

                     28                     29                     30
                      A                      A                      A
 Frequencies --   1212.7666              1246.5517              1259.5054
 Red. masses --      1.5816                 1.7624                 1.4376
 Frc consts  --      1.3706                 1.6135                 1.3436
 IR Inten    --     37.7109                 5.8862                28.6959

                     31                     32                     33
                      A                      A                      A
 Frequencies --   1270.6883              1304.9728              1357.3700
 Red. masses --      1.2134                 1.3233                 1.7188
 Frc consts  --      1.1544                 1.3277                 1.8658
 IR Inten    --      7.4233                 2.4464                 5.9200

                     34                     35                     36
                      A                      A                      A
 Frequencies --   1384.4621              1399.9780              1410.4085
 Red. masses --      1.6917                 1.4296                 1.6835
 Frc consts  --      1.9105                 1.6509                 1.9732
 IR Inten    --      2.5409                 4.9285                 7.9055

                     37                     38                     39
                      A                      A                      A
 Frequencies --   1469.2378              1489.4071              1499.7948
 Red. masses --      1.0911                 1.0875                 1.0805
 Frc consts  --      1.3877                 1.4213                 1.4320
 IR Inten    --      2.8173                 2.2624                 0.3005

                     40                     41                     42
                      A                      A                      A
 Frequencies --   1525.3188              1727.2379              2940.6088
 Red. masses --      1.1121                 6.5325                 1.0732
 Frc consts  --      1.5245                11.4825                 5.4679
 IR Inten    --      2.4125                 1.6382                51.0410

                     43                     44                     45
                      A                      A                      A
 Frequencies --   3007.1636              3007.5287              3021.4191
 Red. masses --      1.0543                 1.0658                 1.0578
 Frc consts  --      5.6172                 5.6800                 5.6894
 IR Inten    --     96.9822                14.8226                18.3221

                     46                     47                     48
                      A                      A                      A
 Frequencies --   3047.7980              3053.9721              3065.6683
 Red. masses --      1.0865                 1.0962                 1.1066
 Frc consts  --      5.9464                 6.0240                 6.1274
 IR Inten    --     31.4142                 7.4791                31.7670

                     49                     50                     51
                      A                      A                      A
 Frequencies --   3069.9086              3155.9036              3178.3283
 Red. masses --      1.1116                 1.0837                 1.0983
 Frc consts  --      6.1724                 6.3592                 6.5370
 IR Inten    --     44.4528                 5.9000                27.1906

 - Thermochemistry -
 -------------------
 Temperature   298.150 Kelvin.  Pressure   1.00000 Atm.
 Atom     1 has atomic number  6 and mass  12.00000

 Molecular mass:   126.06808 amu.
 Principal axes and moments of inertia in atomic units:
                           1         2         3
     Eigenvalues --   544.207181325.853221486.81580
           X            0.99980  -0.00487   0.01939
           Y            0.00598   0.99830  -0.05802
           Z           -0.01907   0.05812   0.99813
 This molecule is an asymmetric top.
 Rotational symmetry number  1.
 Warning -- assumption of classical behavior for rotation
           may cause significant error
 Rotational temperatures (Kelvin)      0.15916     0.06533     0.05825
 Rotational constants (GHZ):           3.31628     1.36119     1.21383
 Zero-point vibrational energy     420726.3 (Joules/Mol)
                                  100.55600 (Kcal/Mol)
 Warning -- explicit consideration of   9 degrees of freedom as
           vibrations may cause significant error
 Vibrational temperatures:    111.40   164.19   243.06   394.79   512.32
          (Kelvin)            560.79   604.42   671.35   762.77   938.70
                              981.89  1174.01  1221.56  1274.16  1303.12
                             1345.22  1392.78  1415.86  1429.17  1439.72
                             1487.47  1491.44  1580.68  1606.52  1660.46
                             1665.94  1678.33  1744.90  1793.51  1812.15
                             1828.23  1877.56  1952.95  1991.93  2014.25
                             2029.26  2113.90  2142.92  2157.87  2194.59
                             2485.11  4230.87  4326.63  4327.16  4347.14
                             4385.10  4393.98  4410.81  4416.91  4540.64
                             4572.90

 Zero-point correction=                           0.160246 (Hartree/Particle)
 Thermal correction to Energy=                    0.168044
 Thermal correction to Enthalpy=                  0.168988
 Thermal correction to Gibbs Free Energy=         0.127656
 Sum of electronic and zero-point Energies=           -423.006745
 Sum of electronic and thermal Energies=              -422.998948
 Sum of electronic and thermal Enthalpies=            -422.998003
 Sum of electronic and thermal Free Energies=         -423.039335

                     E (Thermal)             CV                S
                      KCal/Mol        Cal/Mol-Kelvin    Cal/Mol-Kelvin
 Total                  105.449             30.032             86.990
 Electronic               0.000              0.000              0.000
 Translational            0.889              2.981             40.409
 Rotational               0.889              2.981             28.463
 Vibrational            103.671             24.071             18.118
 Vibration     1          0.599              1.964              3.955
 Vibration     2          0.607              1.938              3.198
 Vibration     3          0.625              1.881              2.447
 Vibration     4          0.677              1.721              1.568
 Vibration     5          0.732              1.563              1.139
 Vibration     6          0.758              1.492              1.001
 Vibration     7          0.783              1.427              0.892
 Vibration     8          0.824              1.324              0.747
 Vibration     9          0.885              1.183              0.587

 Optimization completed.
    -- Stationary point found.
 Normal termination of Gaussian 09 at Mon Jan 27 12:59:55 2020.
