 Gaussian 09, Revision D.01,
 Gaussian 09:  ES64L-G09RevD.01 24-Apr-2013

 -----------------------------
 # b3lyp 6-31G(2df,p) opt Freq
 -----------------------------

 -----
 titel
 -----
 Symbolic Z-matrix:
 Charge =  0 Multiplicity = 1

 SCF Done:  E(RB3LYP) =  -423.100067500     A.U. after   14 cycles
 SCF Done:  E(RB3LYP) =  -423.100067820     A.U. after    7 cycles
 Optimization completed.
    -- Stationary point found.
 Normal termination of Gaussian 09 at Mon Jan 27 15:31:59 2020.

 ----------------------------------------------------------------------
 #N Geom=AllCheck Guess=TCheck SCRF=Check GenChk RB3LYP/6-31G(2df,p) Fr
 eq
 ----------------------------------------------------------------------

 Structure from the checkpoint file:  "/scratch/puck/g09_c933cbd9-6619-4953-ad4d-58bf1c20056d/Gau-173917.chk"
 -----
 titel
 -----
 Charge =  0 Multiplicity = 1

                         Standard orientation:
 ---------------------------------------------------------------------
 Center     Atomic      Atomic             Coordinates (Angstroms)
 Number     Number       Type             X           Y           Z
 ---------------------------------------------------------------------
      1          6           0        2.305822    0.426805    0.999843
      2          6           0        1.518524    0.171907   -0.289503
      3          8           0        1.751488   -1.148800   -0.784956
      4          6           0        0.040768    0.298685   -0.081604
      5          6           0       -0.737966    1.581109   -0.199668
      6          6           0       -1.081065    0.427055   -1.105944
      7          6           0       -1.868594   -0.679803   -0.337703
      8          8           0       -2.084786   -0.264383    1.020963
      9          6           0       -0.806982   -0.803414    0.649339
     10          1           0        2.131228    1.442921    1.365863
     11          1           0        2.006602   -0.279677    1.780301
     12          1           0        3.382865    0.312076    0.828847
     13          1           0        1.824627    0.916444   -1.043861
     14          1           0        2.702035   -1.300262   -0.788576
     15          1           0       -1.420757    1.880472    0.585225
     16          1           0       -0.204647    2.391883   -0.687072
     17          1           0       -0.996645    0.468294   -2.183641
     18          1           0       -2.552826   -1.407152   -0.756231
     19          1           0       -0.429142   -1.653599    1.202531
 ---------------------------------------------------------------------

 SCF Done:  E(RB3LYP) =  -423.100067820     A.U. after    1 cycles

 The electronic state is 1-A.
 Alpha  occ. eigenvalues --  -19.14795 -19.13534 -10.23862 -10.23350 -10.23181
 Alpha  occ. eigenvalues --  -10.19479 -10.19070 -10.18681 -10.18059  -1.07286
 Alpha  occ. eigenvalues --   -1.01728  -0.87002  -0.75420  -0.68783  -0.65862
 Alpha  occ. eigenvalues --   -0.62232  -0.56476  -0.53736  -0.50873  -0.50644
 Alpha  occ. eigenvalues --   -0.47202  -0.45272  -0.43638  -0.40548  -0.39037
 Alpha  occ. eigenvalues --   -0.38184  -0.37492  -0.35022  -0.34715  -0.32070
 Alpha  occ. eigenvalues --   -0.29695  -0.27487  -0.25475  -0.22674
 Alpha virt. eigenvalues --    0.06406   0.07124   0.09974   0.11245   0.12469
 Alpha virt. eigenvalues --    0.13112   0.14586   0.15279   0.16118   0.17128
 Alpha virt. eigenvalues --    0.17603   0.18376   0.19954   0.20752   0.21556

 Mulliken charges:
               1
     1  C   -0.410994
     2  C    0.008449
     3  O   -0.442097
     4  C    0.362452
     5  C   -0.353029
     6  C   -0.171295
     7  C    0.027530
     8  O   -0.247391
     9  C   -0.031215
    10  H    0.125998
    11  H    0.126272
    12  H    0.103241
    13  H    0.063312
    14  H    0.280796
    15  H    0.135515
    16  H    0.109323
    17  H    0.097072
    18  H    0.107883
    19  H    0.108179
 Sum of Mulliken charges =   0.00000

 Dipole moment (field-independent basis, Debye):
    X=              2.3107    Y=              0.1932    Z=             -0.8155  Tot=              2.4580
 Quadrupole moment (field-independent basis, Debye-Ang):
   XX=            -50.0284   YY=            -51.9496   ZZ=            -53.9260
   XY=              0.9707   XZ=              3.1142   YZ=             -1.1756

  Exact polarizability:  83.429   1.353  72.100   3.764  -1.495  67.698
 Approx polarizability: 114.756  -0.461 107.173   3.861  -0.907 106.835

                      1                      2                      3
                      A                      A                      A
 Frequencies --     72.0285               132.4338               172.8669
 Red. masses --      3.5061                 3.9263                 3.0874
 Frc consts  --      0.0107                 0.0406                 0.0544
 IR Inten    --      1.3867                 2.4860                 0.4635

                      4                      5                      6
                      A                      A                      A
 Frequencies --    251.6778               291.0895               321.0099
 Red. masses --      1.1047                 1.1326                 3.0216
 Frc consts  --      0.0412                 0.0565                 0.1835
 IR Inten    --      2.1853                86.6099                12.4304

                      7                      8                      9
                      A                      A                      A
 Frequencies --    356.9601               417.9460               481.9187
 Red. masses --      3.4881                 3.5006                 2.7697
 Frc consts  --      0.2619                 0.3603                 0.3790
 IR Inten    --      3.3116                 5.8264                 5.3526

                     10                     11                     12
                      A                      A                      A
 Frequencies --    507.2960               577.2745               648.5351
 Red. masses --      3.2570                 3.6620                 2.8202
 Frc consts  --      0.4938                 0.7190                 0.6989
 IR Inten    --      5.3798                10.7022                 4.8165

                     13                     14                     15
                      A                      A                      A
 Frequencies --    756.9278               803.3790               804.9147
 Red. masses --      2.9928                 2.7858                 4.7417
 Frc consts  --      1.0103                 1.0593                 1.8100
 IR Inten    --      3.6205                10.8541                 7.8692

                     16                     17                     18
                      A                      A                      A
 Frequencies --    834.2333               882.8743               902.9458
 Red. masses --      1.9805                 2.1967                 2.1995
 Frc consts  --      0.8121                 1.0088                 1.0566
 IR Inten    --      5.2709                19.3145                 7.6940

                     19                     20                     21
                      A                      A                      A
 Frequencies --    920.8623               968.8382               984.1348
 Red. masses --      1.5052                 2.6370                 1.9178
 Frc consts  --      0.7520                 1.4584                 1.0944
 IR Inten    --      9.1333                11.1139                38.5861

                     22                     23                     24
                      A                      A                      A
 Frequencies --   1000.2515              1015.8154              1024.1136
 Red. masses --      2.1187                 1.6602                 1.4005
 Frc consts  --      1.2489                 1.0094                 0.8654
 IR Inten    --     14.7193                 3.9882                 0.5613

                     25                     26                     27
                      A                      A                      A
 Frequencies --   1063.0924              1095.7261              1099.6985
 Red. masses --      1.7604                 2.0596                 1.3179
 Frc consts  --      1.1722                 1.4569                 0.9390
 IR Inten    --      1.8768                 1.9023                10.5065

                     28                     29                     30
                      A                      A                      A
 Frequencies --   1125.8267              1176.0126              1205.3573
 Red. masses --      2.3983                 1.6020                 1.4197
 Frc consts  --      1.7910                 1.3054                 1.2153
 IR Inten    --     59.0372                24.3360                 6.1929

                     31                     32                     33
                      A                      A                      A
 Frequencies --   1238.1027              1258.7548              1304.6077
 Red. masses --      1.2918                 1.5541                 1.9463
 Frc consts  --      1.1667                 1.4508                 1.9517
 IR Inten    --     17.1287                 3.9118                32.7538

                     34                     35                     36
                      A                      A                      A
 Frequencies --   1339.7284              1356.9156              1392.9045
 Red. masses --      2.0896                 1.2206                 3.0150
 Frc consts  --      2.2097                 1.3241                 3.4465
 IR Inten    --     10.6055                10.0926                14.5604

                     37                     38                     39
                      A                      A                      A
 Frequencies --   1403.3924              1436.8761              1475.0764
 Red. masses --      1.2564                 1.4139                 1.4997
 Frc consts  --      1.4579                 1.7199                 1.9225
 IR Inten    --      9.1964                17.0883                 9.5303

                     40                     41                     42
                      A                      A                      A
 Frequencies --   1491.4323              1504.4283              2953.7630
 Red. masses --      1.0455                 1.3195                 1.0827
 Frc consts  --      1.3702                 1.7596                 5.5654
 IR Inten    --      3.0284                 7.4548                49.1887

                     43                     44                     45
                      A                      A                      A
 Frequencies --   3027.5321              3095.8000              3117.7634
 Red. masses --      1.0375                 1.0982                 1.1020
 Frc consts  --      5.6027                 6.2014                 6.3111
 IR Inten    --     22.9163                29.6919                19.1428

                     46                     47                     48
                      A                      A                      A
 Frequencies --   3135.4752              3190.3169              3204.2152
 Red. masses --      1.0549                 1.0876                 1.0943
 Frc consts  --      6.1103                 6.5224                 6.6197
 IR Inten    --     15.3624                12.0262                14.3726

                     49                     50                     51
                      A                      A                      A
 Frequencies --   3209.5553              3229.9318              3816.5283
 Red. masses --      1.1013                 1.1137                 1.0660
 Frc consts  --      6.6841                 6.8453                 9.1488
 IR Inten    --     10.4946                 2.6825                12.5267

 - Thermochemistry -
 -------------------
 Temperature   298.150 Kelvin.  Pressure   1.00000 Atm.
 Atom     1 has atomic number  6 and mass  12.00000

 Molecular mass:   126.06808 amu.
 Principal axes and moments of inertia in atomic units:
                           1         2         3
     Eigenvalues --   594.350141418.039811469.20668
           X            0.99939   0.01234   0.03257
           Y           -0.01099   0.99909  -0.04127
           Z           -0.03305   0.04089   0.99862
 This molecule is an asymmetric top.
 Rotational symmetry number  1.
 Warning -- assumption of classical behavior for rotation
           may cause significant error
 Rotational temperatures (Kelvin)      0.14573     0.06108     0.05895
 Rotational constants (GHZ):           3.03649     1.27270     1.22838
 Zero-point vibrational energy     413185.0 (Joules/Mol)
                                   98.75359 (Kcal/Mol)
 Warning -- explicit consideration of  11 degrees of freedom as
           vibrations may cause significant error
 Vibrational temperatures:    103.63   190.54   248.72   362.11   418.81
          (Kelvin)            461.86   513.59   601.33   693.37   729.88
                              830.57   933.10  1089.05  1155.88  1158.09
                             1200.27  1270.26  1299.14  1324.91  1393.94
                             1415.95  1439.14  1461.53  1473.47  1529.55
                             1576.50  1582.22  1619.81  1692.02  1734.24
                             1781.35  1811.07  1877.04  1927.57  1952.30
                             2004.08  2019.17  2067.34  2122.30  2145.84
                             2164.53  4249.80  4355.94  4454.16  4485.76
                             4511.24  4590.15  4610.15  4617.83  4647.15
                             5491.13

 Zero-point correction=                           0.157374 (Hartree/Particle)
 Thermal correction to Energy=                    0.165888
 Thermal correction to Enthalpy=                  0.166832
 Thermal correction to Gibbs Free Energy=         0.124331
 Sum of electronic and zero-point Energies=           -422.942694
 Sum of electronic and thermal Energies=              -422.934180
 Sum of electronic and thermal Enthalpies=            -422.933236
 Sum of electronic and thermal Free Energies=         -422.975737

                     E (Thermal)             CV                S
                      KCal/Mol        Cal/Mol-Kelvin    Cal/Mol-Kelvin
 Total                  104.096             33.180             89.451
 Electronic               0.000              0.000              0.000
 Translational            0.889              2.981             40.409
 Rotational               0.889              2.981             28.606
 Vibrational            102.319             27.219             20.437
 Vibration     1          0.598              1.967              4.097
 Vibration     2          0.613              1.921              2.910
 Vibration     3          0.626              1.876              2.404
 Vibration     4          0.664              1.760              1.719
 Vibration     5          0.687              1.690              1.468
 Vibration     6          0.706              1.633              1.305
 Vibration     7          0.732              1.561              1.135
 Vibration     8          0.781              1.431              0.899
 Vibration     9          0.838              1.290              0.705
 Vibration    10          0.862              1.234              0.640
 Vibration    11          0.934              1.080              0.490

 Normal termination of Gaussian 09 at Mon Jan 27 16:12:42 2020.
