 Gaussian 09, Revision D.01,
 Gaussian 09:  ES64L-G09RevD.01 24-Apr-2013

 -----------------------------
 # b3lyp 6-31G(2df,p) opt Freq
 -----------------------------

 -----
 titel
 -----
 Symbolic Z-matrix:
 Charge =  0 Multiplicity = 1

 SCF Done:  E(RB3LYP) =  -423.153895498     A.U. after   14 cycles
 Optimization completed.
    -- Stationary point found.
 Normal termination of Gaussian 09 at Tue Jan 28 01:52:52 2020.

 ----------------------------------------------------------------------
 #N Geom=AllCheck Guess=TCheck SCRF=Check GenChk RB3LYP/6-31G(2df,p) Fr
 eq
 ----------------------------------------------------------------------

 Structure from the checkpoint file:  "/scratch/puck/g09_574b6d7b-8bb2-4836-b715-93793158d47f/Gau-110114.chk"
 -----
 titel
 -----
 Charge =  0 Multiplicity = 1

                         Standard orientation:
 ---------------------------------------------------------------------
 Center     Atomic      Atomic             Coordinates (Angstroms)
 Number     Number       Type             X           Y           Z
 ---------------------------------------------------------------------
      1          8           0        0.569871    1.914287   -0.622387
      2          6           0        1.046339    0.947277    0.304976
      3          6           0       -0.074900    0.414467    1.213072
      4          6           0       -0.807073   -0.696652    0.376535
      5          6           0        0.083098   -0.895510   -0.895850
      6          6           0        1.442424   -0.281897   -0.532085
      7          8           0        2.290608   -1.162400    0.192751
      8          6           0       -2.188971   -0.368596    0.059164
      9          6           0       -3.329526   -0.092184   -0.203076
     10          1           0        0.122263    2.610636   -0.132312
     11          1           0        1.902733    1.329325    0.876601
     12          1           0        0.352559   -0.017619    2.124231
     13          1           0       -0.758458    1.206010    1.529901
     14          1           0       -0.816381   -1.624222    0.961160
     15          1           0        0.171716   -1.944777   -1.186030
     16          1           0       -0.349293   -0.341239   -1.730305
     17          1           0        2.013107    0.018897   -1.413424
     18          1           0        1.786185   -1.562020    0.908393
     19          1           0       -4.336598    0.148484   -0.437531
 ---------------------------------------------------------------------

 SCF Done:  E(RB3LYP) =  -423.153895498     A.U. after    1 cycles

 The electronic state is 1-A.
 Alpha  occ. eigenvalues --  -19.14019 -19.14005 -10.23104 -10.22941 -10.21736
 Alpha  occ. eigenvalues --  -10.19434 -10.18344 -10.17945 -10.16898  -1.02945
 Alpha  occ. eigenvalues --   -1.01607  -0.83612  -0.75220  -0.71797  -0.70028
 Alpha  occ. eigenvalues --   -0.60553  -0.58591  -0.52788  -0.51720  -0.50353
 Alpha  occ. eigenvalues --   -0.48373  -0.45805  -0.43186  -0.40918  -0.39003
 Alpha  occ. eigenvalues --   -0.37770  -0.36432  -0.35909  -0.33903  -0.32227
 Alpha  occ. eigenvalues --   -0.27967  -0.26961  -0.25841  -0.25700
 Alpha virt. eigenvalues --    0.03862   0.05573   0.07571   0.07864   0.09492
 Alpha virt. eigenvalues --    0.12878   0.13553   0.14705   0.15588   0.16434
 Alpha virt. eigenvalues --    0.17836   0.18452   0.19421   0.20238   0.22236

 Mulliken charges:
               1
     1  O   -0.437126
     2  C    0.105781
     3  C   -0.276462
     4  C   -0.163166
     5  C   -0.250327
     6  C    0.133327
     7  O   -0.448587
     8  C    0.319222
     9  C   -0.468396
    10  H    0.286330
    11  H    0.069225
    12  H    0.101558
    13  H    0.109715
    14  H    0.102261
    15  H    0.106744
    16  H    0.135024
    17  H    0.097860
    18  H    0.283129
    19  H    0.193889
 Sum of Mulliken charges =   0.00000

 Dipole moment (field-independent basis, Debye):
    X=             -1.0497    Y=              0.3918    Z=              1.6994  Tot=              2.0355
 Quadrupole moment (field-independent basis, Debye-Ang):
   XX=            -57.2102   YY=            -49.8973   ZZ=            -52.2199
   XY=             -0.7503   XZ=              2.0186   YZ=              0.9624

  Exact polarizability:  96.903  -4.343  67.508   4.162  -0.229  64.930
 Approx polarizability: 139.591 -12.302  98.333   9.398  -4.460  98.334

                      1                      2                      3
                      A                      A                      A
 Frequencies --     19.7331               135.8822               172.0715
 Red. masses --      3.9734                 3.8522                 2.5597
 Frc consts  --      0.0009                 0.0419                 0.0447
 IR Inten    --      1.8063                 1.7768                 9.8667

                      4                      5                      6
                      A                      A                      A
 Frequencies --    207.7557               222.6336               251.5959
 Red. masses --      1.2345                 3.6996                 1.2311
 Frc consts  --      0.0314                 0.1080                 0.0459
 IR Inten    --     58.0559                 3.8832                97.0350

                      7                      8                      9
                      A                      A                      A
 Frequencies --    266.7927               349.8467               407.5620
 Red. masses --      2.8939                 3.1702                 2.7138
 Frc consts  --      0.1214                 0.2286                 0.2656
 IR Inten    --     35.0217                 3.4817                 8.4968

                     10                     11                     12
                      A                      A                      A
 Frequencies --    474.3027               506.2172               527.3301
 Red. masses --      4.4205                 3.2583                 5.8169
 Frc consts  --      0.5859                 0.4919                 0.9530
 IR Inten    --      3.4146                 4.9001                 2.5657

                     13                     14                     15
                      A                      A                      A
 Frequencies --    614.0830               629.2005               657.5847
 Red. masses --      1.2764                 1.2314                 2.6375
 Frc consts  --      0.2836                 0.2872                 0.6720
 IR Inten    --     42.5815                41.6261                 1.7925

                     16                     17                     18
                      A                      A                      A
 Frequencies --    771.7664               790.9127               840.8174
 Red. masses --      4.7251                 3.5630                 2.2101
 Frc consts  --      1.6582                 1.3132                 0.9206
 IR Inten    --      1.6058                 3.9009                 2.1589

                     19                     20                     21
                      A                      A                      A
 Frequencies --    874.7800               923.6462               980.7126
 Red. masses --      2.7245                 2.1985                 2.4278
 Frc consts  --      1.2284                 1.1051                 1.3758
 IR Inten    --     20.4894                 9.0742                 2.1789

                     22                     23                     24
                      A                      A                      A
 Frequencies --    997.5674              1043.7485              1055.3810
 Red. masses --      2.4269                 3.1534                 1.8146
 Frc consts  --      1.4229                 2.0240                 1.1908
 IR Inten    --     30.2847                 0.9841                 2.5561

                     25                     26                     27
                      A                      A                      A
 Frequencies --   1072.7616              1106.5645              1157.3046
 Red. masses --      2.2279                 3.0622                 1.2956
 Frc consts  --      1.5106                 2.2092                 1.0224
 IR Inten    --     81.3031                65.7303                20.9168

                     28                     29                     30
                      A                      A                      A
 Frequencies --   1188.4800              1198.6977              1255.8948
 Red. masses --      1.1835                 1.3239                 1.2419
 Frc consts  --      0.9849                 1.1208                 1.1541
 IR Inten    --     10.8282                23.6560                 7.3956

                     31                     32                     33
                      A                      A                      A
 Frequencies --   1277.3836              1295.8380              1310.4660
 Red. masses --      1.4547                 1.3056                 1.4427
 Frc consts  --      1.3985                 1.2917                 1.4597
 IR Inten    --     13.1367                 1.3224                 5.3382

                     34                     35                     36
                      A                      A                      A
 Frequencies --   1337.9775              1353.0723              1367.2341
 Red. masses --      1.4093                 1.4212                 1.4072
 Frc consts  --      1.4865                 1.5330                 1.5498
 IR Inten    --      2.8288                14.5463                19.6811

                     37                     38                     39
                      A                      A                      A
 Frequencies --   1397.7768              1429.7830              1472.9942
 Red. masses --      1.3616                 1.3763                 1.0920
 Frc consts  --      1.5674                 1.6577                 1.3960
 IR Inten    --     13.1238                50.5848                 9.3599

                     40                     41                     42
                      A                      A                      A
 Frequencies --   1489.7559              2235.1619              3014.8511
 Red. masses --      1.0936                 5.9604                 1.0838
 Frc consts  --      1.4300                17.5445                 5.8042
 IR Inten    --      3.3164                 6.0179                43.1671

                     43                     44                     45
                      A                      A                      A
 Frequencies --   3022.1252              3053.5919              3078.5338
 Red. masses --      1.0828                 1.0663                 1.0613
 Frc consts  --      5.8266                 5.8581                 5.9262
 IR Inten    --     10.8519                43.3849                11.8935

                     46                     47                     48
                      A                      A                      A
 Frequencies --   3098.4830              3103.3100              3134.1218
 Red. masses --      1.0872                 1.1003                 1.1054
 Frc consts  --      6.1495                 6.2432                 6.3973
 IR Inten    --     26.1617                16.5125                12.6540

                     49                     50                     51
                      A                      A                      A
 Frequencies --   3504.8989              3819.2872              3823.2363
 Red. masses --      1.1613                 1.0659                 1.0664
 Frc consts  --      8.4054                 9.1605                 9.1840
 IR Inten    --     71.0490                 9.3209                19.2273

 - Thermochemistry -
 -------------------
 Temperature   298.150 Kelvin.  Pressure   1.00000 Atm.
 Atom     1 has atomic number  8 and mass  15.99491

 Molecular mass:   126.06808 amu.
 Principal axes and moments of inertia in atomic units:
                           1         2         3
     Eigenvalues --   668.790901478.422501741.33565
           X            0.99999  -0.00182   0.00502
           Y            0.00165   0.99946   0.03292
           Z           -0.00508  -0.03291   0.99945
 This molecule is an asymmetric top.
 Rotational symmetry number  1.
 Warning -- assumption of classical behavior for rotation
           may cause significant error
 Rotational temperatures (Kelvin)      0.12951     0.05859     0.04974
 Rotational constants (GHZ):           2.69851     1.22072     1.03641
 Zero-point vibrational energy     414634.7 (Joules/Mol)
                                   99.10007 (Kcal/Mol)
 Warning -- explicit consideration of  13 degrees of freedom as
           vibrations may cause significant error
 Vibrational temperatures:     28.39   195.50   247.57   298.91   320.32
          (Kelvin)            361.99   383.85   503.35   586.39   682.41
                              728.33   758.71   883.53   905.28   946.12
                             1110.40  1137.95  1209.75  1258.61  1328.92
                             1411.02  1435.28  1501.72  1518.46  1543.46
                             1592.10  1665.10  1709.96  1724.66  1806.95
                             1837.87  1864.42  1885.47  1925.05  1946.77
                             1967.14  2011.09  2057.14  2119.31  2143.42
                             3215.90  4337.69  4348.16  4393.43  4429.32
                             4458.02  4464.97  4509.30  5042.76  5495.10
                             5500.78

 Zero-point correction=                           0.157926 (Hartree/Particle)
 Thermal correction to Energy=                    0.167402
 Thermal correction to Enthalpy=                  0.168347
 Thermal correction to Gibbs Free Energy=         0.122911
 Sum of electronic and zero-point Energies=           -422.995969
 Sum of electronic and thermal Energies=              -422.986493
 Sum of electronic and thermal Enthalpies=            -422.985549
 Sum of electronic and thermal Free Energies=         -423.030984

                     E (Thermal)             CV                S
                      KCal/Mol        Cal/Mol-Kelvin    Cal/Mol-Kelvin
 Total                  105.047             35.499             95.626
 Electronic               0.000              0.000              0.000
 Translational            0.889              2.981             40.409
 Rotational               0.889              2.981             28.933
 Vibrational            103.269             29.538             26.284
 Vibration     1          0.593              1.986              6.661
 Vibration     2          0.614              1.918              2.861
 Vibration     3          0.626              1.877              2.413
 Vibration     4          0.641              1.829              2.063
 Vibration     5          0.648              1.807              1.938
 Vibration     6          0.664              1.760              1.719
 Vibration     7          0.672              1.734              1.617
 Vibration     8          0.727              1.576              1.167
 Vibration     9          0.772              1.454              0.935
 Vibration    10          0.831              1.307              0.726
 Vibration    11          0.861              1.236              0.643
 Vibration    12          0.882              1.190              0.593
 Vibration    13          0.973              1.002              0.426

 Optimization completed.
    -- Stationary point found.
 Normal termination of Gaussian 09 at Tue Jan 28 02:38:51 2020.
