 Gaussian 09, Revision D.01,
 Gaussian 09:  ES64L-G09RevD.01 24-Apr-2013

 -----------------------------
 # b3lyp 6-31G(2df,p) opt Freq
 -----------------------------

 -----
 titel
 -----
 Symbolic Z-matrix:
 Charge =  0 Multiplicity = 1

 SCF Done:  E(RB3LYP) =  -423.185582861     A.U. after   13 cycles
 Optimization completed.
    -- Stationary point found.
 Normal termination of Gaussian 09 at Tue Jan 28 03:56:30 2020.

 ----------------------------------------------------------------------
 #N Geom=AllCheck Guess=TCheck SCRF=Check GenChk RB3LYP/6-31G(2df,p) Fr
 eq
 ----------------------------------------------------------------------

 Structure from the checkpoint file:  "/scratch/puck/g09_6afecf8d-c3e5-4895-8b2d-4f3741e2eadc/Gau-115531.chk"
 -----
 titel
 -----
 Charge =  0 Multiplicity = 1

                         Standard orientation:
 ---------------------------------------------------------------------
 Center     Atomic      Atomic             Coordinates (Angstroms)
 Number     Number       Type             X           Y           Z
 ---------------------------------------------------------------------
      1          8           0       -1.871119   -0.334207   -1.034193
      2          6           0       -1.470268    0.066294    0.264334
      3          6           0       -0.718739    1.427908    0.315760
      4          6           0        0.783916    1.096090    0.439983
      5          6           0        1.400103    0.659307   -0.898138
      6          8           0        0.930669   -0.684766   -1.109263
      7          6           0        0.754776   -1.267860    0.171417
      8          6           0       -0.503950   -0.917675    0.936288
      9          6           0        0.816807   -0.227549    1.241787
     10          1           0       -1.058938   -0.569337   -1.503930
     11          1           0       -2.399047    0.132929    0.838490
     12          1           0       -0.964557    2.041614   -0.555945
     13          1           0       -1.033864    1.976720    1.209794
     14          1           0        1.360491    1.898581    0.904691
     15          1           0        1.082326    1.261147   -1.754103
     16          1           0        2.498259    0.660278   -0.849311
     17          1           0        1.194881   -2.254690    0.263274
     18          1           0       -0.900828   -1.678386    1.599837
     19          1           0        1.369007   -0.336155    2.166268
 ---------------------------------------------------------------------

 SCF Done:  E(RB3LYP) =  -423.185582861     A.U. after    1 cycles

 The electronic state is 1-A.
 Alpha  occ. eigenvalues --  -19.15385 -19.11306 -10.23850 -10.23331 -10.22718
 Alpha  occ. eigenvalues --  -10.19832 -10.19515 -10.18969 -10.17758  -1.05175
 Alpha  occ. eigenvalues --   -0.99786  -0.86907  -0.78315  -0.71736  -0.65978
 Alpha  occ. eigenvalues --   -0.59064  -0.57724  -0.56618  -0.53557  -0.47907
 Alpha  occ. eigenvalues --   -0.46704  -0.44371  -0.44027  -0.42516  -0.40334
 Alpha  occ. eigenvalues --   -0.39193  -0.36355  -0.34975  -0.33699  -0.31934
 Alpha  occ. eigenvalues --   -0.30961  -0.28037  -0.24933  -0.24470
 Alpha virt. eigenvalues --    0.07485   0.10130   0.10521   0.11550   0.12853
 Alpha virt. eigenvalues --    0.13519   0.14678   0.15056   0.16812   0.17570
 Alpha virt. eigenvalues --    0.17848   0.19422   0.19986   0.21082   0.21381

 Mulliken charges:
               1
     1  O   -0.447348
     2  C    0.121398
     3  C   -0.237867
     4  C   -0.068414
     5  C   -0.086316
     6  O   -0.276775
     7  C    0.082715
     8  C   -0.113614
     9  C   -0.117081
    10  H    0.290259
    11  H    0.082020
    12  H    0.103105
    13  H    0.097324
    14  H    0.076219
    15  H    0.113812
    16  H    0.099920
    17  H    0.102090
    18  H    0.087686
    19  H    0.090867
 Sum of Mulliken charges =   0.00000

 Dipole moment (field-independent basis, Debye):
    X=              1.9860    Y=              0.8270    Z=              1.8763  Tot=              2.8546
 Quadrupole moment (field-independent basis, Debye-Ang):
   XX=            -56.3695   YY=            -50.7883   ZZ=            -53.0081
   XY=             -0.0037   XZ=             -2.2103   YZ=             -2.3156

  Exact polarizability:  75.287   0.729  72.473  -1.689  -2.386  68.957
 Approx polarizability: 108.141   2.271 105.456  -1.070   0.369 106.913

                      1                      2                      3
                      A                      A                      A
 Frequencies --    127.7592               230.5459               351.3758
 Red. masses --      3.3534                 6.4069                 2.6372
 Frc consts  --      0.0322                 0.2006                 0.1918
 IR Inten    --      0.9379                 5.1029                 3.6063

                      4                      5                      6
                      A                      A                      A
 Frequencies --    374.7614               415.4465               545.1880
 Red. masses --      3.1674                 2.2755                 3.1064
 Frc consts  --      0.2621                 0.2314                 0.5440
 IR Inten    --      3.1094                 1.0822                 4.0778

                      7                      8                      9
                      A                      A                      A
 Frequencies --    577.5378               588.1396               715.2865
 Red. masses --      1.8341                 1.8381                 5.6470
 Frc consts  --      0.3604                 0.3746                 1.7023
 IR Inten    --     34.6402                25.5783                 2.5467

                     10                     11                     12
                      A                      A                      A
 Frequencies --    756.5694               759.9294               782.1284
 Red. masses --      3.2498                 3.2700                 2.6515
 Frc consts  --      1.0960                 1.1126                 0.9556
 IR Inten    --     14.6390                 4.5951                 1.7609

                     13                     14                     15
                      A                      A                      A
 Frequencies --    796.7537               836.4325               876.5182
 Red. masses --      1.8076                 3.9867                 2.1083
 Frc consts  --      0.6761                 1.6433                 0.9543
 IR Inten    --      6.0069                 6.0566                 6.0402

                     16                     17                     18
                      A                      A                      A
 Frequencies --    922.9650               939.9672               950.2763
 Red. masses --      3.1802                 1.9009                 2.4341
 Frc consts  --      1.5962                 0.9895                 1.2950
 IR Inten    --     10.3082                 1.0057                 9.7978

                     19                     20                     21
                      A                      A                      A
 Frequencies --    988.9802              1022.2940              1030.3067
 Red. masses --      1.6686                 1.7937                 3.0837
 Frc consts  --      0.9616                 1.1044                 1.9286
 IR Inten    --     15.1429                 6.9662                20.1265

                     22                     23                     24
                      A                      A                      A
 Frequencies --   1035.6563              1072.2295              1083.0988
 Red. masses --      2.6666                 1.8515                 1.8928
 Frc consts  --      1.6851                 1.2541                 1.3083
 IR Inten    --     36.2221                24.0270                17.9577

                     25                     26                     27
                      A                      A                      A
 Frequencies --   1100.2876              1116.4169              1152.5321
 Red. masses --      1.3914                 2.0016                 1.7134
 Frc consts  --      0.9925                 1.4698                 1.3409
 IR Inten    --      3.8921                55.2836                31.6558

                     28                     29                     30
                      A                      A                      A
 Frequencies --   1187.0352              1216.3683              1257.7224
 Red. masses --      1.3627                 1.2653                 1.5855
 Frc consts  --      1.1313                 1.1030                 1.4777
 IR Inten    --     30.2433                14.1594                 1.2526

                     31                     32                     33
                      A                      A                      A
 Frequencies --   1264.6246              1277.3759              1307.6277
 Red. masses --      1.6915                 1.3670                 1.3297
 Frc consts  --      1.5938                 1.3142                 1.3396
 IR Inten    --     16.0666                 0.1703                 2.1288

                     34                     35                     36
                      A                      A                      A
 Frequencies --   1319.9121              1331.6183              1352.1002
 Red. masses --      1.5090                 1.4478                 1.4396
 Frc consts  --      1.5489                 1.5126                 1.5507
 IR Inten    --      0.9935                 9.0488                 0.6154

                     37                     38                     39
                      A                      A                      A
 Frequencies --   1378.6432              1406.5620              1465.8873
 Red. masses --      1.5242                 1.9132                 1.1938
 Frc consts  --      1.7068                 2.2301                 1.5114
 IR Inten    --      0.8954                 7.0901                72.8343

                     40                     41                     42
                      A                      A                      A
 Frequencies --   1480.3186              1513.1675              3004.8692
 Red. masses --      1.1056                 1.1009                 1.0678
 Frc consts  --      1.4274                 1.4851                 5.6805
 IR Inten    --     12.9145                 0.9263                67.4257

                     43                     44                     45
                      A                      A                      A
 Frequencies --   3040.9694              3065.5924              3090.6646
 Red. masses --      1.0645                 1.0842                 1.0925
 Frc consts  --      5.8000                 6.0035                 6.1486
 IR Inten    --     14.5261                47.9401                18.6984

                     46                     47                     48
                      A                      A                      A
 Frequencies --   3092.5882              3098.4627              3164.7222
 Red. masses --      1.0940                 1.1009                 1.0892
 Frc consts  --      6.1645                 6.2271                 6.4271
 IR Inten    --     21.4715                39.7949                 8.8872

                     49                     50                     51
                      A                      A                      A
 Frequencies --   3172.6339              3194.4294              3735.8443
 Red. masses --      1.0909                 1.0953                 1.0654
 Frc consts  --      6.4695                 6.5852                 8.7610
 IR Inten    --     24.1491                17.0250                67.7671

 - Thermochemistry -
 -------------------
 Temperature   298.150 Kelvin.  Pressure   1.00000 Atm.
 Atom     1 has atomic number  8 and mass  15.99491

 Molecular mass:   126.06808 amu.
 Principal axes and moments of inertia in atomic units:
                           1         2         3
     Eigenvalues --   723.23685 961.91656 998.71281
           X            0.99964  -0.00490  -0.02635
           Y           -0.00264   0.96032  -0.27890
           Z            0.02667   0.27887   0.95996
 This molecule is an asymmetric top.
 Rotational symmetry number  1.
 Warning -- assumption of classical behavior for rotation
           may cause significant error
 Rotational temperatures (Kelvin)      0.11976     0.09004     0.08673
 Rotational constants (GHZ):           2.49537     1.87619     1.80707
 Zero-point vibrational energy     428078.4 (Joules/Mol)
                                  102.31320 (Kcal/Mol)
 Warning -- explicit consideration of   8 degrees of freedom as
           vibrations may cause significant error
 Vibrational temperatures:    183.82   331.70   505.55   539.20   597.73
          (Kelvin)            784.40   830.95   846.20  1029.14  1088.53
                             1093.37  1125.31  1146.35  1203.44  1261.11
                             1327.94  1352.40  1367.23  1422.92  1470.85
                             1482.38  1490.08  1542.70  1558.34  1583.07
                             1606.27  1658.23  1707.88  1750.08  1809.58
                             1819.51  1837.86  1881.38  1899.06  1915.90
                             1945.37  1983.56  2023.73  2109.08  2129.85
                             2177.11  4323.33  4375.27  4410.70  4446.77
                             4449.54  4457.99  4553.32  4564.71  4596.07
                             5375.04

 Zero-point correction=                           0.163046 (Hartree/Particle)
 Thermal correction to Energy=                    0.169721
 Thermal correction to Enthalpy=                  0.170665
 Thermal correction to Gibbs Free Energy=         0.132254
 Sum of electronic and zero-point Energies=           -423.022536
 Sum of electronic and thermal Energies=              -423.015862
 Sum of electronic and thermal Enthalpies=            -423.014918
 Sum of electronic and thermal Free Energies=         -423.053329

                     E (Thermal)             CV                S
                      KCal/Mol        Cal/Mol-Kelvin    Cal/Mol-Kelvin
 Total                  106.501             28.270             80.843
 Electronic               0.000              0.000              0.000
 Translational            0.889              2.981             40.409
 Rotational               0.889              2.981             28.032
 Vibrational            104.724             22.309             12.403
 Vibration     1          0.611              1.925              2.980
 Vibration     2          0.652              1.794              1.875
 Vibration     3          0.728              1.572              1.160
 Vibration     4          0.746              1.524              1.060
 Vibration     5          0.779              1.437              0.908
 Vibration     6          0.900              1.150              0.554
 Vibration     7          0.934              1.080              0.490
 Vibration     8          0.945              1.057              0.471

 Optimization completed.
    -- Stationary point found.
 Normal termination of Gaussian 09 at Tue Jan 28 04:48:39 2020.
