 Gaussian 09, Revision D.01,
 Gaussian 09:  ES64L-G09RevD.01 24-Apr-2013

 -----------------------------
 # b3lyp 6-31G(2df,p) opt Freq
 -----------------------------

 -----
 titel
 -----
 Symbolic Z-matrix:
 Charge =  0 Multiplicity = 1

 SCF Done:  E(RB3LYP) =  -423.200297313     A.U. after   14 cycles
 Optimization completed.
    -- Stationary point found.
 Normal termination of Gaussian 09 at Mon Jan 27 22:52:02 2020.

 ----------------------------------------------------------------------
 #N Geom=AllCheck Guess=TCheck SCRF=Check GenChk RB3LYP/6-31G(2df,p) Fr
 eq
 ----------------------------------------------------------------------

 Structure from the checkpoint file:  "/scratch/puck/g09_bfe7da5d-06a1-4351-846d-30411d1d8003/Gau-101120.chk"
 -----
 titel
 -----
 Charge =  0 Multiplicity = 1

                         Standard orientation:
 ---------------------------------------------------------------------
 Center     Atomic      Atomic             Coordinates (Angstroms)
 Number     Number       Type             X           Y           Z
 ---------------------------------------------------------------------
      1          6           0        3.120868    0.064421    0.198837
      2          6           0        1.634779   -0.086969    0.430291
      3          6           0        0.791533   -0.850235   -0.530014
      4          8           0       -0.395988   -1.431083   -0.049955
      5          6           0       -1.267798   -0.418809    0.457705
      6          6           0       -2.689247   -0.634649   -0.038946
      7          6           0       -0.680746    0.932631   -0.003644
      8          8           0       -1.274802    1.982054    0.019664
      9          6           0        0.682681    0.659443   -0.529584
     10          1           0        3.360291    0.039955   -0.869329
     11          1           0        3.492149    1.012698    0.600848
     12          1           0        3.671915   -0.748209    0.683814
     13          1           0        1.330068   -0.125523    1.472903
     14          1           0        1.233508   -1.412596   -1.345156
     15          1           0       -1.255546   -0.437656    1.559107
     16          1           0       -3.087545   -1.581854    0.332938
     17          1           0       -3.320619    0.185595    0.312585
     18          1           0       -2.712722   -0.650784   -1.132138
     19          1           0        1.102408    1.315607   -1.281101
 ---------------------------------------------------------------------

 SCF Done:  E(RB3LYP) =  -423.200297313     A.U. after    1 cycles

 The electronic state is 1-A.
 Alpha  occ. eigenvalues --  -19.15272 -19.13079 -10.26936 -10.25045 -10.24139
 Alpha  occ. eigenvalues --  -10.21267 -10.20221 -10.19439 -10.18044  -1.05981
 Alpha  occ. eigenvalues --   -1.03644  -0.87078  -0.77122  -0.73394  -0.67374
 Alpha  occ. eigenvalues --   -0.61345  -0.59064  -0.55846  -0.50289  -0.48497
 Alpha  occ. eigenvalues --   -0.45894  -0.45073  -0.42380  -0.41347  -0.39954
 Alpha  occ. eigenvalues --   -0.39301  -0.38771  -0.38733  -0.37109  -0.36198
 Alpha  occ. eigenvalues --   -0.33610  -0.29020  -0.25993  -0.23290
 Alpha virt. eigenvalues --   -0.01911   0.08689   0.09790   0.11061   0.11563
 Alpha virt. eigenvalues --    0.13525   0.14046   0.15422   0.15631   0.16646
 Alpha virt. eigenvalues --    0.16996   0.18313   0.19332   0.19543   0.22967

 Mulliken charges:
               1
     1  C   -0.420096
     2  C   -0.061364
     3  C    0.095881
     4  O   -0.275468
     5  C    0.007595
     6  C   -0.394159
     7  C    0.388047
     8  O   -0.333869
     9  C   -0.210956
    10  H    0.121368
    11  H    0.131117
    12  H    0.129563
    13  H    0.103973
    14  H    0.110770
    15  H    0.104849
    16  H    0.125411
    17  H    0.139306
    18  H    0.125905
    19  H    0.112126
 Sum of Mulliken charges =   0.00000

 Dipole moment (field-independent basis, Debye):
    X=              1.9797    Y=             -1.2718    Z=             -0.0145  Tot=              2.3531
 Quadrupole moment (field-independent basis, Debye-Ang):
   XX=            -49.5970   YY=            -61.6430   ZZ=            -50.3177
   XY=              3.4009   XZ=             -1.2038   YZ=             -0.1370

  Exact polarizability:  97.091  -2.201  71.527  -1.501  -0.645  62.244
 Approx polarizability: 121.061 -10.253 117.399  -1.855  -1.061  96.741

                      1                      2                      3
                      A                      A                      A
 Frequencies --     71.2390               148.2372               202.8661
 Red. masses --      3.6062                 3.2690                 1.1069
 Frc consts  --      0.0108                 0.0423                 0.0268
 IR Inten    --      3.3663                 1.2472                 0.6440

                      4                      5                      6
                      A                      A                      A
 Frequencies --    209.1586               219.1453               256.7478
 Red. masses --      1.1766                 2.2987                 3.2099
 Frc consts  --      0.0303                 0.0650                 0.1247
 IR Inten    --      1.0320                 1.7645                 2.8107

                      7                      8                      9
                      A                      A                      A
 Frequencies --    281.6034               365.9728               451.3256
 Red. masses --      2.5362                 3.3789                 4.0022
 Frc consts  --      0.1185                 0.2666                 0.4803
 IR Inten    --      0.9284                 3.3884                 7.2387

                     10                     11                     12
                      A                      A                      A
 Frequencies --    474.4044               603.0008               673.2525
 Red. masses --      4.1258                 7.4419                 6.1723
 Frc consts  --      0.5471                 1.5943                 1.6484
 IR Inten    --      9.0522                 1.1994                 5.3637

                     13                     14                     15
                      A                      A                      A
 Frequencies --    729.5104               781.8878               805.3562
 Red. masses --      4.1797                 3.2353                 2.0263
 Frc consts  --      1.3106                 1.1653                 0.7743
 IR Inten    --      1.3174                 8.5744                 4.2391

                     16                     17                     18
                      A                      A                      A
 Frequencies --    850.1773               893.8579               907.3324
 Red. masses --      2.2965                 2.3351                 1.6372
 Frc consts  --      0.9780                 1.0992                 0.7941
 IR Inten    --     17.6824                10.9808                 1.2605

                     19                     20                     21
                      A                      A                      A
 Frequencies --   1003.4328              1025.3085              1028.1583
 Red. masses --      1.5524                 1.7375                 1.9725
 Frc consts  --      0.9210                 1.0762                 1.2285
 IR Inten    --     30.5429                13.6788                22.6687

                     22                     23                     24
                      A                      A                      A
 Frequencies --   1062.8149              1080.3743              1112.8136
 Red. masses --      1.2718                 2.1860                 2.1972
 Frc consts  --      0.8464                 1.5033                 1.6031
 IR Inten    --      4.7349                30.9942                23.7507

                     25                     26                     27
                      A                      A                      A
 Frequencies --   1114.5740              1130.2348              1166.3359
 Red. masses --      1.7264                 2.4983                 2.2480
 Frc consts  --      1.2636                 1.8804                 1.8018
 IR Inten    --      4.1277                21.9052                48.4688

                     28                     29                     30
                      A                      A                      A
 Frequencies --   1190.4279              1223.3845              1278.9373
 Red. masses --      1.7414                 2.4896                 1.7196
 Frc consts  --      1.4540                 2.1954                 1.6572
 IR Inten    --     25.1347                89.1599                 9.5304

                     31                     32                     33
                      A                      A                      A
 Frequencies --   1297.3723              1328.0937              1358.7134
 Red. masses --      1.4416                 1.4338                 1.3766
 Frc consts  --      1.4297                 1.4900                 1.4974
 IR Inten    --     19.8875                 9.7345                 3.6196

                     34                     35                     36
                      A                      A                      A
 Frequencies --   1398.3267              1416.8521              1430.9390
 Red. masses --      1.2445                 1.2444                 2.2808
 Frc consts  --      1.4337                 1.4718                 2.7515
 IR Inten    --      7.6113                 1.6423                13.3153

                     37                     38                     39
                      A                      A                      A
 Frequencies --   1482.6588              1491.7693              1496.1848
 Red. masses --      1.0500                 1.0536                 1.0514
 Frc consts  --      1.3600                 1.3814                 1.3868
 IR Inten    --      6.0352                 4.1678                 1.8112

                     40                     41                     42
                      A                      A                      A
 Frequencies --   1500.6726              1834.4116              2979.0259
 Red. masses --      1.0648                12.4537                 1.0811
 Frc consts  --      1.4128                24.6911                 5.6529
 IR Inten    --      6.2463               240.8926                24.4829

                     43                     44                     45
                      A                      A                      A
 Frequencies --   3031.9628              3048.7616              3099.7386
 Red. masses --      1.0348                 1.0337                 1.1018
 Frc consts  --      5.6048                 5.6612                 6.2372
 IR Inten    --     30.1897                15.6182                18.2723

                     46                     47                     48
                      A                      A                      A
 Frequencies --   3100.1794              3126.4188              3133.7778
 Red. masses --      1.1003                 1.1029                 1.1024
 Frc consts  --      6.2307                 6.3513                 6.3786
 IR Inten    --     15.0242                17.7993                 9.2592

                     49                     50                     51
                      A                      A                      A
 Frequencies --   3144.5815              3175.6495              3201.8537
 Red. masses --      1.0892                 1.0911                 1.0924
 Frc consts  --      6.3456                 6.4829                 6.5986
 IR Inten    --     11.5641                15.7749                 2.6237

 - Thermochemistry -
 -------------------
 Temperature   298.150 Kelvin.  Pressure   1.00000 Atm.
 Atom     1 has atomic number  6 and mass  12.00000

 Molecular mass:   126.06808 amu.
 Principal axes and moments of inertia in atomic units:
                           1         2         3
     Eigenvalues --   566.113451417.815021818.07749
           X            0.99958   0.02898  -0.00110
           Y           -0.02899   0.99958  -0.00297
           Z            0.00101   0.00300   0.99999
 This molecule is an asymmetric top.
 Rotational symmetry number  1.
 Warning -- assumption of classical behavior for rotation
           may cause significant error
 Rotational temperatures (Kelvin)      0.15300     0.06109     0.04764
 Rotational constants (GHZ):           3.18795     1.27290     0.99266
 Zero-point vibrational energy     415222.7 (Joules/Mol)
                                   99.24061 (Kcal/Mol)
 Warning -- explicit consideration of  11 degrees of freedom as
           vibrations may cause significant error
 Vibrational temperatures:    102.50   213.28   291.88   300.93   315.30
          (Kelvin)            369.40   405.16   526.55   649.36   682.56
                              867.58   968.66  1049.60  1124.96  1158.73
                             1223.21  1286.06  1305.45  1443.71  1475.19
                             1479.29  1529.15  1554.42  1601.09  1603.62
                             1626.15  1678.10  1712.76  1760.18  1840.10
                             1866.63  1910.83  1954.88  2011.88  2038.53
                             2058.80  2133.21  2146.32  2152.67  2159.13
                             2639.31  4286.15  4362.31  4386.48  4459.83
                             4460.46  4498.21  4508.80  4524.35  4569.05
                             4606.75

 Zero-point correction=                           0.158150 (Hartree/Particle)
 Thermal correction to Energy=                    0.166907
 Thermal correction to Enthalpy=                  0.167851
 Thermal correction to Gibbs Free Energy=         0.124721
 Sum of electronic and zero-point Energies=           -423.042147
 Sum of electronic and thermal Energies=              -423.033390
 Sum of electronic and thermal Enthalpies=            -423.032446
 Sum of electronic and thermal Free Energies=         -423.075576

                     E (Thermal)             CV                S
                      KCal/Mol        Cal/Mol-Kelvin    Cal/Mol-Kelvin
 Total                  104.736             32.848             90.775
 Electronic               0.000              0.000              0.000
 Translational            0.889              2.981             40.409
 Rotational               0.889              2.981             28.769
 Vibrational            102.958             26.887             21.597
 Vibration     1          0.598              1.968              4.119
 Vibration     2          0.618              1.905              2.695
 Vibration     3          0.639              1.836              2.107
 Vibration     4          0.642              1.827              2.051
 Vibration     5          0.647              1.812              1.966
 Vibration     6          0.666              1.751              1.684
 Vibration     7          0.681              1.708              1.524
 Vibration     8          0.739              1.542              1.097
 Vibration     9          0.810              1.358              0.792
 Vibration    10          0.831              1.307              0.725
 Vibration    11          0.961              1.025              0.445

 Normal termination of Gaussian 09 at Mon Jan 27 23:32:51 2020.
