 Gaussian 09, Revision D.01,
 Gaussian 09:  ES64L-G09RevD.01 24-Apr-2013

 -----------------------------
 # b3lyp 6-31G(2df,p) opt Freq
 -----------------------------

 -----
 titel
 -----
 Symbolic Z-matrix:
 Charge =  0 Multiplicity = 1

 SCF Done:  E(RB3LYP) =  -423.192750096     A.U. after   14 cycles
 Optimization completed.
    -- Stationary point found.
 Normal termination of Gaussian 09 at Tue Jan 28 09:55:37 2020.

 ----------------------------------------------------------------------
 #N Geom=AllCheck Guess=TCheck SCRF=Check GenChk RB3LYP/6-31G(2df,p) Fr
 eq
 ----------------------------------------------------------------------

 Structure from the checkpoint file:  "/scratch/puck/g09_51c486d1-fe87-472c-b849-575e2928311b/Gau-64512.chk"
 -----
 titel
 -----
 Charge =  0 Multiplicity = 1

                         Standard orientation:
 ---------------------------------------------------------------------
 Center     Atomic      Atomic             Coordinates (Angstroms)
 Number     Number       Type             X           Y           Z
 ---------------------------------------------------------------------
      1          6           0       -2.474727   -0.921756    0.651782
      2          8           0       -2.014589   -0.129773   -0.426892
      3          6           0       -0.655003    0.160226   -0.404298
      4          6           0       -0.276247    1.524587   -0.888556
      5          6           0       -0.065138    1.172597    0.573499
      6          6           0        1.322849    0.721857    0.976361
      7          6           0        1.651696   -0.455860    0.041543
      8          8           0        2.748014   -0.915030   -0.139253
      9          6           0        0.358390   -0.950245   -0.624400
     10          1           0       -2.228703   -0.467220    1.621693
     11          1           0       -3.560430   -0.987361    0.552878
     12          1           0       -2.062059   -1.940413    0.629147
     13          1           0        0.586455    1.640932   -1.539441
     14          1           0       -1.104929    2.186992   -1.109510
     15          1           0       -0.704570    1.657909    1.301273
     16          1           0        2.102070    1.486784    0.897558
     17          1           0        1.342844    0.349691    2.009183
     18          1           0        0.539071   -1.203544   -1.672776
     19          1           0        0.051924   -1.873788   -0.116422
 ---------------------------------------------------------------------

 SCF Done:  E(RB3LYP) =  -423.192750096     A.U. after    1 cycles

 The electronic state is 1-A.
 Alpha  occ. eigenvalues --  -19.15314 -19.13243 -10.27273 -10.24676 -10.23182
 Alpha  occ. eigenvalues --  -10.19901 -10.19590 -10.19390 -10.19103  -1.04864
 Alpha  occ. eigenvalues --   -1.04339  -0.88295  -0.75530  -0.73408  -0.69208
 Alpha  occ. eigenvalues --   -0.60031  -0.56124  -0.54590  -0.51527  -0.47506
 Alpha  occ. eigenvalues --   -0.46389  -0.45128  -0.44868  -0.42850  -0.42373
 Alpha  occ. eigenvalues --   -0.41250  -0.39543  -0.37040  -0.35595  -0.34556
 Alpha  occ. eigenvalues --   -0.31241  -0.28217  -0.25680  -0.23974
 Alpha virt. eigenvalues --   -0.02001   0.08355   0.09975   0.11032   0.11658
 Alpha virt. eigenvalues --    0.12521   0.13942   0.14741   0.15873   0.16352
 Alpha virt. eigenvalues --    0.18078   0.19377   0.19536   0.20780   0.21526

 Mulliken charges:
               1
     1  C   -0.258721
     2  O   -0.288142
     3  C    0.448588
     4  C   -0.341104
     5  C   -0.121296
     6  C   -0.328838
     7  C    0.381964
     8  O   -0.302650
     9  C   -0.406266
    10  H    0.108230
    11  H    0.132337
    12  H    0.111217
    13  H    0.115848
    14  H    0.127568
    15  H    0.095932
    16  H    0.131299
    17  H    0.129449
    18  H    0.134676
    19  H    0.129911
 Sum of Mulliken charges =   0.00000

 Dipole moment (field-independent basis, Debye):
    X=             -2.0455    Y=              0.5865    Z=              1.3626  Tot=              2.5268
 Quadrupole moment (field-independent basis, Debye-Ang):
   XX=            -62.2677   YY=            -51.9394   ZZ=            -51.2919
   XY=              4.9992   XZ=             -1.8646   YZ=             -0.8262

  Exact polarizability:  85.250   1.176  72.826  -0.932   0.759  67.349
 Approx polarizability: 118.834  -1.282 105.408  -1.106   1.762 103.506

                      1                      2                      3
                      A                      A                      A
 Frequencies --     76.2293               101.0365               169.8862
 Red. masses --      4.1302                 2.0483                 1.8063
 Frc consts  --      0.0141                 0.0123                 0.0307
 IR Inten    --      4.8356                 1.3483                 0.3939

                      4                      5                      6
                      A                      A                      A
 Frequencies --    201.8637               284.3811               353.1643
 Red. masses --      1.5272                 2.7024                 3.7447
 Frc consts  --      0.0367                 0.1288                 0.2752
 IR Inten    --      0.6301                 2.8101                 9.1470

                      7                      8                      9
                      A                      A                      A
 Frequencies --    382.0986               467.1889               483.7184
 Red. masses --      2.1215                 2.4422                 3.6148
 Frc consts  --      0.1825                 0.3141                 0.4983
 IR Inten    --      2.5427                 1.3950                 1.4740

                     10                     11                     12
                      A                      A                      A
 Frequencies --    517.7945               533.3198               617.8680
 Red. masses --      3.5471                 3.4869                 4.2079
 Frc consts  --      0.5603                 0.5843                 0.9465
 IR Inten    --      4.2067                 6.8800                 1.3744

                     13                     14                     15
                      A                      A                      A
 Frequencies --    701.2418               782.2844               816.2609
 Red. masses --      2.7112                 3.6933                 1.8892
 Frc consts  --      0.7855                 1.3317                 0.7416
 IR Inten    --      6.3011                 6.7919                 2.8801

                     16                     17                     18
                      A                      A                      A
 Frequencies --    841.2098               905.0965               929.8114
 Red. masses --      1.4929                 1.9043                 2.2924
 Frc consts  --      0.6224                 0.9191                 1.1677
 IR Inten    --      4.5945                 9.7500                 1.1209

                     19                     20                     21
                      A                      A                      A
 Frequencies --    953.3767              1021.2627              1041.2482
 Red. masses --      1.8840                 2.4142                 1.4093
 Frc consts  --      1.0089                 1.4836                 0.9003
 IR Inten    --      7.7413                 9.8867                14.4611

                     22                     23                     24
                      A                      A                      A
 Frequencies --   1064.3251              1088.9095              1109.8279
 Red. masses --      1.4346                 2.0385                 3.0697
 Frc consts  --      0.9575                 1.4241                 2.2277
 IR Inten    --      1.4145                 9.9476                47.6772

                     25                     26                     27
                      A                      A                      A
 Frequencies --   1142.0515              1156.5187              1179.9364
 Red. masses --      2.5454                 1.7079                 1.2827
 Frc consts  --      1.9560                 1.3459                 1.0522
 IR Inten    --     55.7936                 8.2802                 2.7368

                     28                     29                     30
                      A                      A                      A
 Frequencies --   1200.3559              1217.7888              1234.1211
 Red. masses --      1.4315                 1.4180                 1.6335
 Frc consts  --      1.2153                 1.2390                 1.4658
 IR Inten    --     11.7118                 6.1245                20.8212

                     31                     32                     33
                      A                      A                      A
 Frequencies --   1281.8433              1289.1133              1317.8670
 Red. masses --      1.8596                 1.9603                 3.0475
 Frc consts  --      1.8003                 1.9194                 3.1184
 IR Inten    --      9.0937                50.2140                60.7687

                     34                     35                     36
                      A                      A                      A
 Frequencies --   1384.3137              1450.6629              1455.9088
 Red. masses --      2.0477                 1.1058                 1.1017
 Frc consts  --      2.3120                 1.3710                 1.3759
 IR Inten    --     37.4132                 5.7148                 2.9241

                     37                     38                     39
                      A                      A                      A
 Frequencies --   1473.3201              1491.7539              1492.9650
 Red. masses --      1.1344                 1.3304                 1.0840
 Frc consts  --      1.4508                 1.7443                 1.4235
 IR Inten    --      3.4590                18.9543                 3.9917

                     40                     41                     42
                      A                      A                      A
 Frequencies --   1507.7994              1849.4918              2990.3194
 Red. masses --      1.0594                12.7043                 1.0359
 Frc consts  --      1.4191                25.6040                 5.4576
 IR Inten    --      5.7808               212.4312                42.6913

                     43                     44                     45
                      A                      A                      A
 Frequencies --   3030.9603              3036.9878              3043.0643
 Red. masses --      1.0637                 1.0705                 1.0968
 Frc consts  --      5.7577                 5.8175                 5.9843
 IR Inten    --     12.6035                 9.3393                53.3114

                     46                     47                     48
                      A                      A                      A
 Frequencies --   3081.5009              3095.1829              3121.0744
 Red. masses --      1.0977                 1.0964                 1.0583
 Frc consts  --      6.1416                 6.1887                 6.0739
 IR Inten    --     12.3747                 8.1439                10.9846

                     49                     50                     51
                      A                      A                      A
 Frequencies --   3121.8852              3182.4735              3220.9253
 Red. masses --      1.0967                 1.0911                 1.1132
 Frc consts  --      6.2976                 6.5112                 6.8043
 IR Inten    --     25.5156                 7.2390                 5.1786

 - Thermochemistry -
 -------------------
 Temperature   298.150 Kelvin.  Pressure   1.00000 Atm.
 Atom     1 has atomic number  6 and mass  12.00000

 Molecular mass:   126.06808 amu.
 Principal axes and moments of inertia in atomic units:
                           1         2         3
     Eigenvalues --   595.020371455.520741649.68775
           X            0.99927   0.03566  -0.01372
           Y           -0.03595   0.99913  -0.02092
           Z            0.01296   0.02140   0.99969
 This molecule is an asymmetric top.
 Rotational symmetry number  1.
 Warning -- assumption of classical behavior for rotation
           may cause significant error
 Rotational temperatures (Kelvin)      0.14556     0.05951     0.05250
 Rotational constants (GHZ):           3.03307     1.23993     1.09399
 Zero-point vibrational energy     415664.0 (Joules/Mol)
                                   99.34607 (Kcal/Mol)
 Warning -- explicit consideration of  12 degrees of freedom as
           vibrations may cause significant error
 Vibrational temperatures:    109.68   145.37   244.43   290.44   409.16
          (Kelvin)            508.12   549.75   672.18   695.96   744.99
                              767.33   888.97  1008.93  1125.53  1174.42
                             1210.31  1302.23  1337.79  1371.69  1469.37
                             1498.12  1531.32  1566.70  1596.79  1643.16
                             1663.97  1697.66  1727.04  1752.12  1775.62
                             1844.28  1854.74  1896.11  1991.72  2087.18
                             2094.73  2119.78  2146.30  2148.04  2169.38
                             2661.00  4302.40  4360.87  4369.54  4378.29
                             4433.59  4453.27  4490.52  4491.69  4578.86
                             4634.19

 Zero-point correction=                           0.158318 (Hartree/Particle)
 Thermal correction to Energy=                    0.166813
 Thermal correction to Enthalpy=                  0.167757
 Thermal correction to Gibbs Free Energy=         0.125015
 Sum of electronic and zero-point Energies=           -423.034432
 Sum of electronic and thermal Energies=              -423.025937
 Sum of electronic and thermal Enthalpies=            -423.024993
 Sum of electronic and thermal Free Energies=         -423.067735

                     E (Thermal)             CV                S
                      KCal/Mol        Cal/Mol-Kelvin    Cal/Mol-Kelvin
 Total                  104.677             32.376             89.959
 Electronic               0.000              0.000              0.000
 Translational            0.889              2.981             40.409
 Rotational               0.889              2.981             28.748
 Vibrational            102.899             26.414             20.802
 Vibration     1          0.599              1.965              3.986
 Vibration     2          0.604              1.948              3.434
 Vibration     3          0.625              1.880              2.437
 Vibration     4          0.639              1.837              2.116
 Vibration     5          0.683              1.703              1.507
 Vibration     6          0.729              1.569              1.152
 Vibration     7          0.752              1.508              1.031
 Vibration     8          0.824              1.323              0.745
 Vibration     9          0.840              1.286              0.700
 Vibration    10          0.873              1.211              0.615
 Vibration    11          0.888              1.176              0.580
 Vibration    12          0.978              0.994              0.420

 Optimization completed.
    -- Stationary point found.
 Normal termination of Gaussian 09 at Tue Jan 28 11:43:55 2020.
