 Gaussian 09, Revision D.01,
 Gaussian 09:  ES64L-G09RevD.01 24-Apr-2013

 -----------------------------
 # b3lyp 6-31G(2df,p) opt Freq
 -----------------------------

 -----
 titel
 -----
 Symbolic Z-matrix:
 Charge =  0 Multiplicity = 1

 SCF Done:  E(RB3LYP) =  -423.124271477     A.U. after   14 cycles
 SCF Done:  E(RB3LYP) =  -423.124271440     A.U. after    7 cycles
 SCF Done:  E(RB3LYP) =  -423.124271549     A.U. after    7 cycles
 SCF Done:  E(RB3LYP) =  -423.124271344     A.U. after    7 cycles
 SCF Done:  E(RB3LYP) =  -423.124271601     A.U. after    7 cycles
 Optimization completed.
    -- Stationary point found.
 Normal termination of Gaussian 09 at Tue Jan 28 09:01:19 2020.

 ----------------------------------------------------------------------
 #N Geom=AllCheck Guess=TCheck SCRF=Check GenChk RB3LYP/6-31G(2df,p) Fr
 eq
 ----------------------------------------------------------------------

 Structure from the checkpoint file:  "/scratch/puck/g09_1c332f49-647e-4452-83d4-3d838537e85a/Gau-59933.chk"
 -----
 titel
 -----
 Charge =  0 Multiplicity = 1

                         Standard orientation:
 ---------------------------------------------------------------------
 Center     Atomic      Atomic             Coordinates (Angstroms)
 Number     Number       Type             X           Y           Z
 ---------------------------------------------------------------------
      1          6           0        3.254278   -0.467446    0.401140
      2          6           0        1.988739   -0.191897   -0.367690
      3          8           0        1.589507    1.180253   -0.487658
      4          6           0        0.761466    0.302434    0.272282
      5          6           0       -0.617967   -0.004381   -0.291443
      6          6           0       -1.157092   -1.344893    0.270566
      7          8           0       -2.434931   -1.663840   -0.227759
      8          6           0       -1.569678    1.066184    0.002957
      9          6           0       -2.387796    1.901468    0.286204
     10          1           0        3.322448   -1.528979    0.662296
     11          1           0        4.132723   -0.211660   -0.200151
     12          1           0        3.285392    0.123132    1.320527
     13          1           0        1.870544   -0.758408   -1.293929
     14          1           0        0.782681    0.488703    1.347364
     15          1           0       -0.525462   -0.106106   -1.379546
     16          1           0       -0.489565   -2.154568   -0.039381
     17          1           0       -1.146118   -1.301105    1.371351
     18          1           0       -3.013067   -0.918286   -0.023454
     19          1           0       -3.087885    2.667166    0.514157
 ---------------------------------------------------------------------

 SCF Done:  E(RB3LYP) =  -423.124271601     A.U. after    1 cycles

 The electronic state is 1-A.
 Alpha  occ. eigenvalues --  -19.15281 -19.13771 -10.24536 -10.24434 -10.23919
 Alpha  occ. eigenvalues --  -10.21990 -10.19128 -10.18906 -10.18321  -1.07537
 Alpha  occ. eigenvalues --   -1.02262  -0.81353  -0.75122  -0.73451  -0.66217
 Alpha  occ. eigenvalues --   -0.63111  -0.59935  -0.53902  -0.51671  -0.49916
 Alpha  occ. eigenvalues --   -0.48571  -0.46280  -0.43406  -0.42407  -0.40680
 Alpha  occ. eigenvalues --   -0.40309  -0.37807  -0.37190  -0.33554  -0.30586
 Alpha  occ. eigenvalues --   -0.28801  -0.28320  -0.26960  -0.25907
 Alpha virt. eigenvalues --    0.04070   0.04123   0.08950   0.10205   0.10594
 Alpha virt. eigenvalues --    0.10984   0.11547   0.12278   0.14100   0.14898
 Alpha virt. eigenvalues --    0.15884   0.16657   0.17887   0.18834   0.22115

 Mulliken charges:
               1
     1  C   -0.422454
     2  C    0.079038
     3  O   -0.257404
     4  C    0.052649
     5  C   -0.220676
     6  C   -0.060396
     7  O   -0.417470
     8  C    0.300412
     9  C   -0.451696
    10  H    0.124459
    11  H    0.133382
    12  H    0.130014
    13  H    0.091974
    14  H    0.099110
    15  H    0.121033
    16  H    0.113551
    17  H    0.093893
    18  H    0.287165
    19  H    0.203416
 Sum of Mulliken charges =   0.00000

 Dipole moment (field-independent basis, Debye):
    X=              0.5816    Y=             -0.5138    Z=              1.1677  Tot=              1.4020
 Quadrupole moment (field-independent basis, Debye-Ang):
   XX=            -49.4443   YY=            -57.0734   ZZ=            -52.8485
   XY=             -9.6740   XZ=             -1.4445   YZ=              1.3903

  Exact polarizability:  97.362 -14.970  77.571  -3.651   4.104  60.113
 Approx polarizability: 125.657 -24.028 119.996  -9.825   8.601  93.260

                      1                      2                      3
                      A                      A                      A
 Frequencies --     62.7320               101.8711               106.0642
 Red. masses --      3.8099                 3.7533                 3.5289
 Frc consts  --      0.0088                 0.0229                 0.0234
 IR Inten    --      2.1665                 1.8132                 1.9849

                      4                      5                      6
                      A                      A                      A
 Frequencies --    139.5917               191.4849               204.2811
 Red. masses --      3.7829                 1.4092                 1.6486
 Frc consts  --      0.0434                 0.0304                 0.0405
 IR Inten    --      0.7355                 0.8578                 0.5135

                      7                      8                      9
                      A                      A                      A
 Frequencies --    285.1625               298.1636               358.2217
 Red. masses --      3.3814                 3.5071                 3.6983
 Frc consts  --      0.1620                 0.1837                 0.2796
 IR Inten    --      0.5492                 3.9080                 5.9888

                     10                     11                     12
                      A                      A                      A
 Frequencies --    408.7498               429.6468               484.2149
 Red. masses --      1.2977                 3.8258                 4.1982
 Frc consts  --      0.1277                 0.4161                 0.5799
 IR Inten    --    106.1674                13.1708                 4.6354

                     13                     14                     15
                      A                      A                      A
 Frequencies --    529.1021               604.4780               637.6884
 Red. masses --      3.9260                 3.5338                 1.2181
 Frc consts  --      0.6476                 0.7608                 0.2918
 IR Inten    --      3.8327                13.6803                47.4982

                     16                     17                     18
                      A                      A                      A
 Frequencies --    657.7453               796.4041               839.7514
 Red. masses --      1.2221                 4.0261                 2.3263
 Frc consts  --      0.3115                 1.5045                 0.9665
 IR Inten    --     43.3335                11.0568                 9.0680

                     19                     20                     21
                      A                      A                      A
 Frequencies --    887.1415               972.9054              1003.9972
 Red. masses --      2.3632                 2.5602                 1.9733
 Frc consts  --      1.0958                 1.4278                 1.1719
 IR Inten    --     17.9848                27.2807                 6.8585

                     22                     23                     24
                      A                      A                      A
 Frequencies --   1047.5666              1056.8726              1089.4455
 Red. masses --      1.8007                 2.2177                 4.4730
 Frc consts  --      1.1643                 1.4594                 3.1280
 IR Inten    --      9.5632                 5.9723               104.6132

                     25                     26                     27
                      A                      A                      A
 Frequencies --   1100.5486              1122.6290              1168.6103
 Red. masses --      1.9892                 3.0601                 1.5509
 Frc consts  --      1.4195                 2.2723                 1.2479
 IR Inten    --      1.4625                18.0136                 3.8099

                     28                     29                     30
                      A                      A                      A
 Frequencies --   1178.9331              1208.2513              1252.0778
 Red. masses --      1.7663                 1.2256                 1.2156
 Frc consts  --      1.4464                 1.0541                 1.1228
 IR Inten    --      1.0294                 7.4071                 3.6249

                     31                     32                     33
                      A                      A                      A
 Frequencies --   1286.5600              1324.1547              1381.6406
 Red. masses --      1.3968                 1.2817                 1.2782
 Frc consts  --      1.3622                 1.3241                 1.4376
 IR Inten    --      4.0778                24.3359                 3.0426

                     34                     35                     36
                      A                      A                      A
 Frequencies --   1389.1569              1414.5044              1429.7034
 Red. masses --      1.2013                 1.2746                 1.2244
 Frc consts  --      1.3658                 1.5026                 1.4746
 IR Inten    --      1.3764                 4.0148                70.9715

                     37                     38                     39
                      A                      A                      A
 Frequencies --   1473.9122              1490.5265              1506.4704
 Red. masses --      1.2706                 1.1285                 1.0899
 Frc consts  --      1.6263                 1.4771                 1.4573
 IR Inten    --      4.3026                 8.9382                 0.3043

                     40                     41                     42
                      A                      A                      A
 Frequencies --   1510.5489              2228.2964              2977.9801
 Red. masses --      1.7662                 5.9312                 1.0696
 Frc consts  --      2.3744                17.3517                 5.5889
 IR Inten    --      7.9103                 1.5465                48.9593

                     43                     44                     45
                      A                      A                      A
 Frequencies --   3037.7518              3042.4317              3083.9093
 Red. masses --      1.0357                 1.0817                 1.0915
 Frc consts  --      5.6313                 5.8995                 6.1163
 IR Inten    --     19.1512                 4.6056                13.6390

                     46                     47                     48
                      A                      A                      A
 Frequencies --   3085.8804              3099.8234              3103.0585
 Red. masses --      1.0896                 1.0869                 1.1008
 Frc consts  --      6.1132                 6.1535                 6.2450
 IR Inten    --     24.5173                28.1567                17.1133

                     49                     50                     51
                      A                      A                      A
 Frequencies --   3125.5354              3501.4370              3776.2540
 Red. masses --      1.1011                 1.1616                 1.0655
 Frc consts  --      6.3378                 8.3905                 8.9519
 IR Inten    --     27.3539                73.0810                28.9058

 - Thermochemistry -
 -------------------
 Temperature   298.150 Kelvin.  Pressure   1.00000 Atm.
 Atom     1 has atomic number  6 and mass  12.00000

 Molecular mass:   126.06808 amu.
 Principal axes and moments of inertia in atomic units:
                           1         2         3
     Eigenvalues --   673.057431861.109272378.86571
           X            0.99958  -0.02858   0.00427
           Y            0.02857   0.99958   0.00385
           Z           -0.00438  -0.00373   0.99998
 This molecule is an asymmetric top.
 Rotational symmetry number  1.
 Warning -- assumption of classical behavior for rotation
           may cause significant error
 Rotational temperatures (Kelvin)      0.12869     0.04654     0.03641
 Rotational constants (GHZ):           2.68141     0.96971     0.75866
 Zero-point vibrational energy     409684.3 (Joules/Mol)
                                   97.91690 (Kcal/Mol)
 Warning -- explicit consideration of  14 degrees of freedom as
           vibrations may cause significant error
 Vibrational temperatures:     90.26   146.57   152.60   200.84   275.50
          (Kelvin)            293.91   410.28   428.99   515.40   588.10
                              618.17   696.68   761.26   869.71   917.49
                              946.35  1145.85  1208.21  1276.40  1399.79
                             1444.53  1507.21  1520.60  1567.47  1583.44
                             1615.21  1681.37  1696.22  1738.40  1801.46
                             1851.07  1905.16  1987.87  1998.68  2035.15
                             2057.02  2120.63  2144.53  2167.47  2173.34
                             3206.02  4284.64  4370.64  4377.38  4437.05
                             4439.89  4459.95  4464.60  4496.94  5037.78
                             5433.18

 Zero-point correction=                           0.156041 (Hartree/Particle)
 Thermal correction to Energy=                    0.166144
 Thermal correction to Enthalpy=                  0.167088
 Thermal correction to Gibbs Free Energy=         0.120588
 Sum of electronic and zero-point Energies=           -422.968231
 Sum of electronic and thermal Energies=              -422.958128
 Sum of electronic and thermal Enthalpies=            -422.957184
 Sum of electronic and thermal Free Energies=         -423.003683

                     E (Thermal)             CV                S
                      KCal/Mol        Cal/Mol-Kelvin    Cal/Mol-Kelvin
 Total                  104.257             36.436             97.866
 Electronic               0.000              0.000              0.000
 Translational            0.889              2.981             40.409
 Rotational               0.889              2.981             29.479
 Vibrational            102.479             30.474             27.979
 Vibration     1          0.597              1.972              4.369
 Vibration     2          0.604              1.948              3.418
 Vibration     3          0.605              1.944              3.340
 Vibration     4          0.615              1.914              2.809
 Vibration     5          0.634              1.852              2.213
 Vibration     6          0.640              1.834              2.094
 Vibration     7          0.683              1.701              1.503
 Vibration     8          0.691              1.677              1.427
 Vibration     9          0.733              1.558              1.130
 Vibration    10          0.773              1.451              0.931
 Vibration    11          0.791              1.406              0.860
 Vibration    12          0.840              1.285              0.699
 Vibration    13          0.884              1.186              0.589
 Vibration    14          0.963              1.022              0.442

 Optimization completed.
    -- Stationary point found.
 Normal termination of Gaussian 09 at Tue Jan 28 10:37:29 2020.
