 Gaussian 09, Revision D.01,
 Gaussian 09:  ES64L-G09RevD.01 24-Apr-2013

 -----------------------------
 # b3lyp 6-31G(2df,p) opt Freq
 -----------------------------

 -----
 titel
 -----
 Symbolic Z-matrix:
 Charge =  0 Multiplicity = 1

 SCF Done:  E(RB3LYP) =  -423.155297811     A.U. after   15 cycles
 Optimization completed.
    -- Stationary point found.
 Normal termination of Gaussian 09 at Mon Jan 27 15:26:21 2020.

 ----------------------------------------------------------------------
 #N Geom=AllCheck Guess=TCheck SCRF=Check GenChk RB3LYP/6-31G(2df,p) Fr
 eq
 ----------------------------------------------------------------------

 Structure from the checkpoint file:  "/scratch/puck/g09_6415d86b-4e4e-40cd-baa1-a2d298c5d8ec/Gau-106985.chk"
 -----
 titel
 -----
 Charge =  0 Multiplicity = 1

                         Standard orientation:
 ---------------------------------------------------------------------
 Center     Atomic      Atomic             Coordinates (Angstroms)
 Number     Number       Type             X           Y           Z
 ---------------------------------------------------------------------
      1          6           0       -2.715699    0.426670    0.248666
      2          6           0       -1.545183   -0.367811   -0.325561
      3          8           0       -1.660129   -1.752829   -0.013908
      4          6           0       -0.180596    0.070367    0.256380
      5          6           0        0.973475   -0.790039   -0.310408
      6          6           0        2.282269   -0.555810    0.408929
      7          8           0        3.355573   -0.464749   -0.126613
      8          6           0        0.073173    1.490887    0.028438
      9          6           0        0.312756    2.650089   -0.181255
     10          1           0       -3.660484    0.078380   -0.183718
     11          1           0       -2.768295    0.295821    1.334342
     12          1           0       -2.615262    1.491569    0.025965
     13          1           0       -1.507268   -0.224397   -1.417360
     14          1           0       -2.509232   -2.064337   -0.341448
     15          1           0       -0.236389   -0.109362    1.340220
     16          1           0        0.698771   -1.842691   -0.170021
     17          1           0        1.118487   -0.610972   -1.379092
     18          1           0        2.189503   -0.495434    1.519803
     19          1           0        0.525453    3.675942   -0.355667
 ---------------------------------------------------------------------

 SCF Done:  E(RB3LYP) =  -423.155297811     A.U. after    1 cycles

 The electronic state is 1-A.
 Alpha  occ. eigenvalues --  -19.14971 -19.13464 -10.26813 -10.24997 -10.22513
 Alpha  occ. eigenvalues --  -10.19473 -10.18865 -10.18509 -10.18076  -1.04194
 Alpha  occ. eigenvalues --   -1.03313  -0.83259  -0.75311  -0.74065  -0.67786
 Alpha  occ. eigenvalues --   -0.61344  -0.57471  -0.54537  -0.51788  -0.47691
 Alpha  occ. eigenvalues --   -0.46652  -0.46037  -0.43119  -0.42513  -0.41633
 Alpha  occ. eigenvalues --   -0.39067  -0.37999  -0.36860  -0.36024  -0.34136
 Alpha  occ. eigenvalues --   -0.28296  -0.27422  -0.27310  -0.24665
 Alpha virt. eigenvalues --   -0.01766   0.04483   0.04704   0.06416   0.10777
 Alpha virt. eigenvalues --    0.12269   0.12505   0.13692   0.14637   0.15509
 Alpha virt. eigenvalues --    0.15853   0.16999   0.17554   0.20756   0.21575

 Mulliken charges:
               1
     1  C   -0.416619
     2  C    0.123083
     3  O   -0.436555
     4  C   -0.177902
     5  C   -0.286488
     6  C    0.164964
     7  O   -0.241448
     8  C    0.326802
     9  C   -0.457136
    10  H    0.107393
    11  H    0.125454
    12  H    0.139624
    13  H    0.080383
    14  H    0.287844
    15  H    0.114283
    16  H    0.149755
    17  H    0.124365
    18  H    0.070255
    19  H    0.201941
 Sum of Mulliken charges =   0.00000

 Dipole moment (field-independent basis, Debye):
    X=             -3.9522    Y=              0.0471    Z=              0.0287  Tot=              3.9525
 Quadrupole moment (field-independent basis, Debye-Ang):
   XX=            -60.2869   YY=            -49.2349   ZZ=            -52.5743
   XY=              3.3823   XZ=              3.6308   YZ=              0.0147

  Exact polarizability:  86.846   4.786  86.588  -1.179  -2.285  61.660
 Approx polarizability: 113.705  11.332 134.120  -5.825  -8.124  96.453

                      1                      2                      3
                      A                      A                      A
 Frequencies --     57.6075                68.2286                78.3788
 Red. masses --      5.3187                 4.1967                 2.6686
 Frc consts  --      0.0104                 0.0115                 0.0097
 IR Inten    --      1.7829                 1.2242                 5.8538

                      4                      5                      6
                      A                      A                      A
 Frequencies --    142.7212               170.0134               214.1598
 Red. masses --      3.5893                 3.0846                 2.3886
 Frc consts  --      0.0431                 0.0525                 0.0645
 IR Inten    --      0.6305                 2.1478                26.7153

                      7                      8                      9
                      A                      A                      A
 Frequencies --    236.4440               250.6273               308.1670
 Red. masses --      1.0455                 1.2553                 4.5550
 Frc consts  --      0.0344                 0.0465                 0.2549
 IR Inten    --     44.9131                31.0563                 3.2737

                     10                     11                     12
                      A                      A                      A
 Frequencies --    344.6137               438.5133               455.0135
 Red. masses --      3.1510                 4.2238                 3.1250
 Frc consts  --      0.2205                 0.4785                 0.3812
 IR Inten    --      3.5733                11.9299                 4.6670

                     13                     14                     15
                      A                      A                      A
 Frequencies --    482.0257               524.0098               601.1987
 Red. masses --      3.0813                 4.4447                 3.5438
 Frc consts  --      0.4218                 0.7191                 0.7547
 IR Inten    --      7.8700                 2.6413                12.5955

                     16                     17                     18
                      A                      A                      A
 Frequencies --    638.2632               656.5735               747.4267
 Red. masses --      1.2184                 1.2422                 1.6186
 Frc consts  --      0.2924                 0.3155                 0.5328
 IR Inten    --     40.4562                40.0348                 0.4094

                     19                     20                     21
                      A                      A                      A
 Frequencies --    868.9825               913.6240               951.7701
 Red. masses --      2.1588                 2.4160                 1.7826
 Frc consts  --      0.9605                 1.1882                 0.9514
 IR Inten    --      0.0519                18.3191                 9.6471

                     22                     23                     24
                      A                      A                      A
 Frequencies --   1032.1366              1045.5733              1067.2536
 Red. masses --      2.2770                 3.6528                 1.7449
 Frc consts  --      1.4292                 2.3528                 1.1710
 IR Inten    --     36.5441                15.4518                22.1980

                     25                     26                     27
                      A                      A                      A
 Frequencies --   1090.6908              1121.3424              1148.7715
 Red. masses --      2.1809                 2.3809                 2.7691
 Frc consts  --      1.5286                 1.7639                 2.1530
 IR Inten    --      0.7015                42.2277                35.2309

                     28                     29                     30
                      A                      A                      A
 Frequencies --   1202.1010              1233.1167              1280.9386
 Red. masses --      1.2829                 1.2324                 1.3056
 Frc consts  --      1.0923                 1.1041                 1.2622
 IR Inten    --     19.1213                16.4748                24.6776

                     31                     32                     33
                      A                      A                      A
 Frequencies --   1326.8692              1348.9110              1373.3155
 Red. masses --      1.4334                 1.3540                 1.2674
 Frc consts  --      1.4869                 1.4516                 1.4084
 IR Inten    --      6.4719                 1.3192                 6.7706

                     34                     35                     36
                      A                      A                      A
 Frequencies --   1406.7601              1413.2165              1433.2170
 Red. masses --      1.2743                 1.4460                 1.2017
 Frc consts  --      1.4858                 1.7015                 1.4544
 IR Inten    --     11.7999                12.3101                 6.7077

                     37                     38                     39
                      A                      A                      A
 Frequencies --   1457.8905              1492.1201              1496.9230
 Red. masses --      1.0869                 1.0452                 1.0817
 Frc consts  --      1.3611                 1.3710                 1.4280
 IR Inten    --      5.9106                 5.5466                 2.7778

                     40                     41                     42
                      A                      A                      A
 Frequencies --   1838.9696              2235.5738              2846.8517
 Red. masses --     10.3306                 5.9248                 1.0815
 Frc consts  --     20.5837                17.4464                 5.1643
 IR Inten    --    182.4441                 0.2373               106.2306

                     43                     44                     45
                      A                      A                      A
 Frequencies --   2973.7783              3005.5080              3033.7838
 Red. masses --      1.0819                 1.0820                 1.0373
 Frc consts  --      5.6369                 5.7588                 5.6248
 IR Inten    --     26.8062                23.9875                21.1362

                     46                     47                     48
                      A                      A                      A
 Frequencies --   3045.0713              3100.5671              3111.6392
 Red. masses --      1.0599                 1.1005                 1.1010
 Frc consts  --      5.7903                 6.2332                 6.2811
 IR Inten    --      7.9521                26.6133                 9.2877

                     49                     50                     51
                      A                      A                      A
 Frequencies --   3130.1220              3502.8048              3828.5764
 Red. masses --      1.1004                 1.1623                 1.0663
 Frc consts  --      6.3523                 8.4025                 9.2091
 IR Inten    --     14.7280                67.2260                26.2531

 - Thermochemistry -
 -------------------
 Temperature   298.150 Kelvin.  Pressure   1.00000 Atm.
 Atom     1 has atomic number  6 and mass  12.00000

 Molecular mass:   126.06808 amu.
 Principal axes and moments of inertia in atomic units:
                           1         2         3
     Eigenvalues --   784.832901702.426522367.21812
           X            0.99999  -0.00230   0.00232
           Y            0.00229   1.00000   0.00208
           Z           -0.00233  -0.00208   1.00000
 This molecule is an asymmetric top.
 Rotational symmetry number  1.
 Warning -- assumption of classical behavior for rotation
           may cause significant error
 Rotational temperatures (Kelvin)      0.11036     0.05088     0.03659
 Rotational constants (GHZ):           2.29952     1.06010     0.76239
 Zero-point vibrational energy     405371.1 (Joules/Mol)
                                   96.88602 (Kcal/Mol)
 Warning -- explicit consideration of  15 degrees of freedom as
           vibrations may cause significant error
 Vibrational temperatures:     82.88    98.17   112.77   205.34   244.61
          (Kelvin)            308.13   340.19   360.60   443.38   495.82
                              630.92   654.66   693.53   753.93   864.99
                              918.32   944.66  1075.38  1250.27  1314.50
                             1369.38  1485.01  1504.34  1535.54  1569.26
                             1613.36  1652.82  1729.55  1774.18  1842.98
                             1909.07  1940.78  1975.89  2024.01  2033.30
                             2062.08  2097.58  2146.83  2153.74  2645.86
                             3216.49  4095.98  4278.60  4324.25  4364.93
                             4381.17  4461.02  4476.95  4503.54  5039.75
                             5508.46

 Zero-point correction=                           0.154398 (Hartree/Particle)
 Thermal correction to Energy=                    0.165126
 Thermal correction to Enthalpy=                  0.166071
 Thermal correction to Gibbs Free Energy=         0.117897
 Sum of electronic and zero-point Energies=           -423.000900
 Sum of electronic and thermal Energies=              -422.990171
 Sum of electronic and thermal Enthalpies=            -422.989227
 Sum of electronic and thermal Free Energies=         -423.037401

                     E (Thermal)             CV                S
                      KCal/Mol        Cal/Mol-Kelvin    Cal/Mol-Kelvin
 Total                  103.618             37.850            101.390
 Electronic               0.000              0.000              0.000
 Translational            0.889              2.981             40.409
 Rotational               0.889              2.981             29.538
 Vibrational            101.841             31.889             31.444
 Vibration     1          0.596              1.974              4.538
 Vibration     2          0.598              1.969              4.204
 Vibration     3          0.600              1.964              3.931
 Vibration     4          0.616              1.910              2.767
 Vibration     5          0.625              1.879              2.435
 Vibration     6          0.644              1.819              2.008
 Vibration     7          0.655              1.785              1.829
 Vibration     8          0.663              1.762              1.726
 Vibration     9          0.698              1.658              1.372
 Vibration    10          0.723              1.586              1.191
 Vibration    11          0.799              1.386              0.831
 Vibration    12          0.813              1.350              0.781
 Vibration    13          0.838              1.290              0.705
 Vibration    14          0.879              1.197              0.601
 Vibration    15          0.959              1.029              0.448

 Normal termination of Gaussian 09 at Mon Jan 27 16:01:23 2020.
