 Gaussian 09, Revision D.01,
 Gaussian 09:  ES64L-G09RevD.01 24-Apr-2013

 -----------------------------
 # b3lyp 6-31G(2df,p) opt Freq
 -----------------------------

 -----
 titel
 -----
 Symbolic Z-matrix:
 Charge =  0 Multiplicity = 1

 SCF Done:  E(RB3LYP) =  -423.119070745     A.U. after   14 cycles
 SCF Done:  E(RB3LYP) =  -423.119070762     A.U. after    6 cycles
 SCF Done:  E(RB3LYP) =  -423.119070768     A.U. after    7 cycles
 Optimization completed.
    -- Stationary point found.
 Normal termination of Gaussian 09 at Tue Jan 28 12:46:40 2020.

 ----------------------------------------------------------------------
 #N Geom=AllCheck Guess=TCheck SCRF=Check GenChk RB3LYP/6-31G(2df,p) Fr
 eq
 ----------------------------------------------------------------------

 Structure from the checkpoint file:  "/scratch/puck/g09_6bd61867-1fa0-441d-89e1-85cd610985d3/Gau-1425.chk"
 -----
 titel
 -----
 Charge =  0 Multiplicity = 1

                         Standard orientation:
 ---------------------------------------------------------------------
 Center     Atomic      Atomic             Coordinates (Angstroms)
 Number     Number       Type             X           Y           Z
 ---------------------------------------------------------------------
      1          6           0       -0.224621    2.726673    0.202897
      2          8           0        0.696108    1.743518   -0.229974
      3          6           0        0.372976    0.456811    0.191395
      4          6           0        1.362186   -0.625745   -0.269364
      5          6           0        2.187052   -1.367821    0.758554
      6          8           0        0.276718   -1.429352   -0.804961
      7          6           0       -0.676976   -0.350842   -0.640859
      8          6           0       -1.915692   -0.752482   -0.004388
      9          6           0       -2.941375   -1.059031    0.543142
     10          1           0       -0.291197    2.758751    1.300692
     11          1           0        0.137978    3.689915   -0.161964
     12          1           0       -1.232124    2.548568   -0.199327
     13          1           0        0.155091    0.424207    1.268284
     14          1           0        1.993792   -0.239846   -1.081511
     15          1           0        2.957585   -0.708505    1.172451
     16          1           0        1.555863   -1.731962    1.574486
     17          1           0        2.684374   -2.227818    0.299682
     18          1           0       -0.876639    0.146669   -1.600789
     19          1           0       -3.848639   -1.338689    1.019216
 ---------------------------------------------------------------------

 SCF Done:  E(RB3LYP) =  -423.119070768     A.U. after    1 cycles

 The electronic state is 1-A.
 Alpha  occ. eigenvalues --  -19.15515 -19.13709 -10.25305 -10.24312 -10.23521
 Alpha  occ. eigenvalues --  -10.23330 -10.18502 -10.18105 -10.17943  -1.05844
 Alpha  occ. eigenvalues --   -1.03215  -0.77539  -0.76510  -0.72804  -0.68422
 Alpha  occ. eigenvalues --   -0.64586  -0.57093  -0.53997  -0.51630  -0.49760
 Alpha  occ. eigenvalues --   -0.48613  -0.45603  -0.44109  -0.42832  -0.42032
 Alpha  occ. eigenvalues --   -0.39055  -0.37775  -0.35552  -0.33524  -0.31411
 Alpha  occ. eigenvalues --   -0.28737  -0.27438  -0.26270  -0.24643
 Alpha virt. eigenvalues --    0.02015   0.04693   0.09202   0.10937   0.11354
 Alpha virt. eigenvalues --    0.12319   0.13324   0.13948   0.14788   0.15208
 Alpha virt. eigenvalues --    0.15849   0.17102   0.18512   0.18840   0.20566

 Mulliken charges:
               1
     1  C   -0.245271
     2  O   -0.235654
     3  C    0.041992
     4  C    0.135677
     5  C   -0.411985
     6  O   -0.309313
     7  C   -0.067274
     8  C    0.312134
     9  C   -0.439355
    10  H    0.113138
    11  H    0.132991
    12  H    0.119411
    13  H    0.083007
    14  H    0.085305
    15  H    0.123562
    16  H    0.124814
    17  H    0.131662
    18  H    0.103904
    19  H    0.201253
 Sum of Mulliken charges =   0.00000

 Dipole moment (field-independent basis, Debye):
    X=             -0.3087    Y=              1.5883    Z=              1.3131  Tot=              2.0838
 Quadrupole moment (field-independent basis, Debye-Ang):
   XX=            -48.4639   YY=            -53.7353   ZZ=            -52.9468
   XY=             -1.6797   XZ=             -1.1235   YZ=             -1.4683

  Exact polarizability:  96.891   3.513  76.111  -6.517  -3.431  63.742
 Approx polarizability: 137.463  10.536 101.171 -18.048  -5.473  98.898

                      1                      2                      3
                      A                      A                      A
 Frequencies --     50.6326                84.3543               125.6622
 Red. masses --      3.8395                 2.7888                 3.6396
 Frc consts  --      0.0058                 0.0117                 0.0339
 IR Inten    --      0.7492                 1.9936                 0.8729

                      4                      5                      6
                      A                      A                      A
 Frequencies --    162.6115               200.4854               223.2845
 Red. masses --      1.3449                 1.2591                 2.4871
 Frc consts  --      0.0210                 0.0298                 0.0731
 IR Inten    --      0.6014                 1.0641                 1.5332

                      7                      8                      9
                      A                      A                      A
 Frequencies --    239.5324               274.2089               368.7556
 Red. masses --      2.3159                 2.7606                 3.8595
 Frc consts  --      0.0783                 0.1223                 0.3092
 IR Inten    --      1.3907                 0.5826                 9.6864

                     10                     11                     12
                      A                      A                      A
 Frequencies --    431.9808               479.5246               503.7881
 Red. masses --      3.7244                 3.4484                 4.4446
 Frc consts  --      0.4095                 0.4672                 0.6646
 IR Inten    --      2.6562                 2.4553                 4.2256

                     13                     14                     15
                      A                      A                      A
 Frequencies --    530.8365               617.6102               669.6590
 Red. masses --      5.9657                 1.2255                 1.3565
 Frc consts  --      0.9905                 0.2754                 0.3584
 IR Inten    --      2.6038                43.3314                31.6477

                     16                     17                     18
                      A                      A                      A
 Frequencies --    684.8777               873.2815               914.8291
 Red. masses --      3.6434                 2.3601                 1.6938
 Frc consts  --      1.0069                 1.0604                 0.8352
 IR Inten    --     11.2974                 8.7626                 9.2880

                     19                     20                     21
                      A                      A                      A
 Frequencies --    961.1945               993.1497              1029.9516
 Red. masses --      4.9622                 5.6569                 4.9135
 Frc consts  --      2.7011                 3.2875                 3.0710
 IR Inten    --     19.5628                62.5987                27.6615

                     22                     23                     24
                      A                      A                      A
 Frequencies --   1039.7656              1101.8575              1125.1439
 Red. masses --      3.4898                 2.1004                 1.9747
 Frc consts  --      2.2229                 1.5025                 1.4729
 IR Inten    --     73.6775                13.5328                10.1248

                     25                     26                     27
                      A                      A                      A
 Frequencies --   1135.9517              1173.4258              1183.0274
 Red. masses --      1.9619                 3.0202                 1.3320
 Frc consts  --      1.4916                 2.4502                 1.0983
 IR Inten    --      8.4932               128.2576                12.1707

                     28                     29                     30
                      A                      A                      A
 Frequencies --   1213.5046              1235.1772              1262.8936
 Red. masses --      1.3486                 1.8226                 1.4557
 Frc consts  --      1.1701                 1.6383                 1.3679
 IR Inten    --      0.6187                59.0305                23.0387

                     31                     32                     33
                      A                      A                      A
 Frequencies --   1296.4382              1345.8903              1369.0670
 Red. masses --      1.3724                 1.3330                 1.2696
 Frc consts  --      1.3591                 1.4226                 1.4021
 IR Inten    --      3.6603                26.0445                15.8060

                     34                     35                     36
                      A                      A                      A
 Frequencies --   1405.4372              1426.2391              1481.5897
 Red. masses --      1.2584                 1.6037                 1.0698
 Frc consts  --      1.4646                 1.9220                 1.3836
 IR Inten    --      9.1740                21.4601                 1.8988

                     37                     38                     39
                      A                      A                      A
 Frequencies --   1485.9570              1489.4257              1496.0069
 Red. masses --      1.1051                 1.1086                 1.0508
 Frc consts  --      1.4377                 1.4489                 1.3855
 IR Inten    --     10.1546                 1.6476                 4.9324

                     40                     41                     42
                      A                      A                      A
 Frequencies --   1507.6971              2233.3103              2986.0555
 Red. masses --      1.0777                 5.9440                 1.0376
 Frc consts  --      1.4433                17.4673                 5.4508
 IR Inten    --      5.8425                 1.0943                38.9714

                     43                     44                     45
                      A                      A                      A
 Frequencies --   2999.6987              3006.1503              3016.7957
 Red. masses --      1.0815                 1.0833                 1.0850
 Frc consts  --      5.7337                 5.7677                 5.8181
 IR Inten    --     13.2048                16.5730                69.5495

                     46                     47                     48
                      A                      A                      A
 Frequencies --   3037.1046              3038.7663              3109.9907
 Red. masses --      1.0352                 1.1032                 1.1007
 Frc consts  --      5.6257                 6.0019                 6.2727
 IR Inten    --     15.7289                42.9360                16.4600

                     49                     50                     51
                      A                      A                      A
 Frequencies --   3117.5108              3124.4048              3502.9868
 Red. masses --      1.1025                 1.0978                 1.1618
 Frc consts  --      6.3133                 6.3139                 8.3998
 IR Inten    --     23.1189                27.7139                66.8773

 - Thermochemistry -
 -------------------
 Temperature   298.150 Kelvin.  Pressure   1.00000 Atm.
 Atom     1 has atomic number  6 and mass  12.00000

 Molecular mass:   126.06808 amu.
 Principal axes and moments of inertia in atomic units:
                           1         2         3
     Eigenvalues --  1062.452251170.557911944.36211
           X            0.94429  -0.32899   0.00931
           Y            0.32909   0.94423  -0.01144
           Z           -0.00502   0.01386   0.99989
 This molecule is an asymmetric top.
 Rotational symmetry number  1.
 Warning -- assumption of classical behavior for rotation
           may cause significant error
 Rotational temperatures (Kelvin)      0.08152     0.07399     0.04455
 Rotational constants (GHZ):           1.69866     1.54178     0.92819
 Zero-point vibrational energy     408928.3 (Joules/Mol)
                                   97.73622 (Kcal/Mol)
 Warning -- explicit consideration of  14 degrees of freedom as
           vibrations may cause significant error
 Vibrational temperatures:     72.85   121.37   180.80   233.96   288.45
          (Kelvin)            321.26   344.63   394.53   530.56   621.52
                              689.93   724.84   763.75   888.60   963.49
                              985.38  1256.46  1316.23  1382.94  1428.92
                             1481.87  1495.99  1585.33  1618.83  1634.38
                             1688.30  1702.11  1745.96  1777.14  1817.02
                             1865.28  1936.43  1969.78  2022.11  2052.04
                             2131.67  2137.96  2142.95  2152.42  2169.24
                             3213.23  4296.26  4315.89  4325.17  4340.49
                             4369.71  4372.10  4474.58  4485.40  4495.32
                             5040.01

 Zero-point correction=                           0.155753 (Hartree/Particle)
 Thermal correction to Energy=                    0.165684
 Thermal correction to Enthalpy=                  0.166628
 Thermal correction to Gibbs Free Energy=         0.120356
 Sum of electronic and zero-point Energies=           -422.963318
 Sum of electronic and thermal Energies=              -422.953387
 Sum of electronic and thermal Enthalpies=            -422.952443
 Sum of electronic and thermal Free Energies=         -422.998715

                     E (Thermal)             CV                S
                      KCal/Mol        Cal/Mol-Kelvin    Cal/Mol-Kelvin
 Total                  103.968             35.523             97.388
 Electronic               0.000              0.000              0.000
 Translational            0.889              2.981             40.409
 Rotational               0.889              2.981             29.271
 Vibrational            102.191             29.562             27.708
 Vibration     1          0.595              1.977              4.793
 Vibration     2          0.601              1.960              3.787
 Vibration     3          0.611              1.927              3.011
 Vibration     4          0.623              1.888              2.519
 Vibration     5          0.638              1.839              2.129
 Vibration     6          0.649              1.806              1.932
 Vibration     7          0.657              1.780              1.806
 Vibration     8          0.677              1.721              1.570
 Vibration     9          0.741              1.536              1.085
 Vibration    10          0.793              1.401              0.852
 Vibration    11          0.836              1.295              0.711
 Vibration    12          0.859              1.242              0.649
 Vibration    13          0.886              1.182              0.585
 Vibration    14          0.977              0.995              0.420

 Optimization completed.
    -- Stationary point found.
 Normal termination of Gaussian 09 at Tue Jan 28 13:31:42 2020.
