 Gaussian 09, Revision D.01,
 Gaussian 09:  ES64L-G09RevD.01 24-Apr-2013

 -----------------------------
 # b3lyp 6-31G(2df,p) opt Freq
 -----------------------------

 -----
 titel
 -----
 Symbolic Z-matrix:
 Charge =  0 Multiplicity = 1

 SCF Done:  E(RB3LYP) =  -423.114199048     A.U. after   13 cycles
 Optimization completed.
    -- Stationary point found.
 Normal termination of Gaussian 09 at Tue Jan 28 12:09:42 2020.

 ----------------------------------------------------------------------
 #N Geom=AllCheck Guess=TCheck SCRF=Check GenChk RB3LYP/6-31G(2df,p) Fr
 eq
 ----------------------------------------------------------------------

 Structure from the checkpoint file:  "/scratch/puck/g09_d765ce7e-fea9-4d1f-b94b-f13dc5acf2e1/Gau-129346.chk"
 -----
 titel
 -----
 Charge =  0 Multiplicity = 1

                         Standard orientation:
 ---------------------------------------------------------------------
 Center     Atomic      Atomic             Coordinates (Angstroms)
 Number     Number       Type             X           Y           Z
 ---------------------------------------------------------------------
      1          6           0        2.607759    0.273358    0.356939
      2          8           0        1.631913   -0.150727   -0.575083
      3          6           0        0.326850    0.124748   -0.221039
      4          6           0       -0.160435    1.577128   -0.186405
      5          6           0       -1.664826    1.353393    0.141447
      6          6           0       -1.704617   -0.169985    0.222032
      7          6           0       -0.766034   -0.785389   -0.853811
      8          8           0       -0.418772   -1.897830    0.039483
      9          6           0       -0.413166   -0.707554    0.897612
     10          1           0        2.437360   -0.167478    1.349163
     11          1           0        3.573644   -0.069793   -0.019461
     12          1           0        2.637617    1.367278    0.458907
     13          1           0        0.350936    2.170210    0.577231
     14          1           0        0.001348    2.070228   -1.149611
     15          1           0       -1.964240    1.822191    1.083556
     16          1           0       -2.325171    1.740484   -0.640132
     17          1           0       -2.635650   -0.692002    0.433975
     18          1           0       -0.949329   -1.007854   -1.905604
     19          1           0       -0.184836   -0.838998    1.956133
 ---------------------------------------------------------------------

 SCF Done:  E(RB3LYP) =  -423.114199048     A.U. after    1 cycles

 The electronic state is 1-A.
 Alpha  occ. eigenvalues --  -19.14647 -19.12464 -10.24147 -10.23872 -10.23861
 Alpha  occ. eigenvalues --  -10.22764 -10.19577 -10.18960 -10.18641  -1.06508
 Alpha  occ. eigenvalues --   -1.02914  -0.84616  -0.72118  -0.71066  -0.66614
 Alpha  occ. eigenvalues --   -0.64928  -0.57806  -0.52919  -0.52001  -0.47896
 Alpha  occ. eigenvalues --   -0.47354  -0.45032  -0.44607  -0.41300  -0.39115
 Alpha  occ. eigenvalues --   -0.38762  -0.37789  -0.34894  -0.33899  -0.32876
 Alpha  occ. eigenvalues --   -0.30829  -0.28606  -0.26301  -0.22305
 Alpha virt. eigenvalues --    0.07546   0.09114   0.11196   0.11736   0.12778
 Alpha virt. eigenvalues --    0.13312   0.14609   0.14872   0.15970   0.16530
 Alpha virt. eigenvalues --    0.17162   0.17370   0.19081   0.19237   0.20062

 Mulliken charges:
               1
     1  C   -0.259863
     2  O   -0.296211
     3  C    0.468762
     4  C   -0.311049
     5  C   -0.253851
     6  C   -0.037836
     7  C   -0.007013
     8  O   -0.319716
     9  C   -0.024171
    10  H    0.111744
    11  H    0.132893
    12  H    0.109954
    13  H    0.103327
    14  H    0.109800
    15  H    0.105346
    16  H    0.107872
    17  H    0.083553
    18  H    0.090088
    19  H    0.086367
 Sum of Mulliken charges =   0.00000

 Dipole moment (field-independent basis, Debye):
    X=             -0.2997    Y=              2.5603    Z=              0.9105  Tot=              2.7338
 Quadrupole moment (field-independent basis, Debye-Ang):
   XX=            -49.6127   YY=            -58.3254   ZZ=            -50.5996
   XY=              0.4117   XZ=              2.7188   YZ=             -0.0040

  Exact polarizability:  82.865   0.128  72.407   1.717  -0.178  67.839
 Approx polarizability: 109.139  -0.300 107.665   1.696   0.552 109.256

                      1                      2                      3
                      A                      A                      A
 Frequencies --     63.8024               164.2916               184.2919
 Red. masses --      2.2269                 1.4103                 1.6641
 Frc consts  --      0.0053                 0.0224                 0.0333
 IR Inten    --      2.6314                 0.8625                 0.5828

                      4                      5                      6
                      A                      A                      A
 Frequencies --    250.3257               335.1708               338.9623
 Red. masses --      2.2261                 6.7589                 2.6895
 Frc consts  --      0.0822                 0.4474                 0.1821
 IR Inten    --      0.7778                 4.3267                 0.2594

                      7                      8                      9
                      A                      A                      A
 Frequencies --    443.5492               521.0641               655.7856
 Red. masses --      3.4356                 3.9489                 5.4981
 Frc consts  --      0.3982                 0.6317                 1.3931
 IR Inten    --      0.6473                 0.7186                 9.0899

                     10                     11                     12
                      A                      A                      A
 Frequencies --    677.3423               696.8064               744.6332
 Red. masses --      4.2983                 4.3381                 3.1803
 Frc consts  --      1.1619                 1.2410                 1.0390
 IR Inten    --      3.2850                 0.2075                 3.0891

                     13                     14                     15
                      A                      A                      A
 Frequencies --    821.9359               826.1521               902.3291
 Red. masses --      1.5277                 3.3568                 2.3395
 Frc consts  --      0.6081                 1.3499                 1.1223
 IR Inten    --      1.0182                17.5450                11.7762

                     16                     17                     18
                      A                      A                      A
 Frequencies --    903.4661               912.8553               944.9445
 Red. masses --      2.3397                 2.3312                 2.1500
 Frc consts  --      1.1252                 1.1445                 1.1311
 IR Inten    --      9.6648                 7.5437                 7.7763

                     19                     20                     21
                      A                      A                      A
 Frequencies --   1012.3107              1030.5347              1041.3568
 Red. masses --      1.7389                 1.2974                 4.3701
 Frc consts  --      1.0499                 0.8118                 2.7922
 IR Inten    --      1.7701                 8.2052                 7.5878

                     22                     23                     24
                      A                      A                      A
 Frequencies --   1080.9321              1090.8051              1137.7311
 Red. masses --      1.9270                 4.9950                 1.4157
 Frc consts  --      1.3266                 3.5017                 1.0797
 IR Inten    --      1.4182                48.6565                 1.1462

                     25                     26                     27
                      A                      A                      A
 Frequencies --   1167.2344              1173.3096              1179.7872
 Red. masses --      1.4361                 2.2564                 1.3072
 Frc consts  --      1.1528                 1.8301                 1.0720
 IR Inten    --      6.8216                12.4360                 4.5838

                     28                     29                     30
                      A                      A                      A
 Frequencies --   1189.3595              1219.8786              1232.4085
 Red. masses --      1.9780                 1.6540                 1.8375
 Frc consts  --      1.6486                 1.4502                 1.6443
 IR Inten    --     44.1366                10.2398                14.5678

                     31                     32                     33
                      A                      A                      A
 Frequencies --   1249.1731              1251.1226              1276.6330
 Red. masses --      1.9525                 1.1758                 1.5069
 Frc consts  --      1.7951                 1.0844                 1.4470
 IR Inten    --      6.8098                 0.8468                 2.6717

                     34                     35                     36
                      A                      A                      A
 Frequencies --   1288.8327              1338.3260              1367.9873
 Red. masses --      2.6701                 1.8206                 2.1078
 Frc consts  --      2.6132                 1.9212                 2.3240
 IR Inten    --     81.1917                55.6835                51.6384

                     37                     38                     39
                      A                      A                      A
 Frequencies --   1483.7571              1487.8967              1491.7250
 Red. masses --      1.1451                 1.0852                 1.0754
 Frc consts  --      1.4854                 1.4155                 1.4099
 IR Inten    --      2.2558                 1.5938                 3.3358

                     40                     41                     42
                      A                      A                      A
 Frequencies --   1505.2061              1511.6339              2992.8020
 Red. masses --      1.0549                 1.1135                 1.0355
 Frc consts  --      1.4082                 1.4991                 5.4645
 IR Inten    --     10.5135                 2.7098                44.7488

                     43                     44                     45
                      A                      A                      A
 Frequencies --   3043.7674              3049.9769              3059.2333
 Red. masses --      1.0962                 1.0641                 1.0612
 Frc consts  --      5.9837                 5.8320                 5.8518
 IR Inten    --     29.7837                39.7597                49.5152

                     46                     47                     48
                      A                      A                      A
 Frequencies --   3083.7207              3103.3153              3107.5816
 Red. masses --      1.1063                 1.1054                 1.0897
 Frc consts  --      6.1982                 6.2724                 6.2003
 IR Inten    --      0.6404                29.3216                72.1382

                     49                     50                     51
                      A                      A                      A
 Frequencies --   3115.1447              3123.5116              3147.0557
 Red. masses --      1.0924                 1.0976                 1.0917
 Frc consts  --      6.2456                 6.3096                 6.3706
 IR Inten    --     17.4946                26.5561                25.2205

 - Thermochemistry -
 -------------------
 Temperature   298.150 Kelvin.  Pressure   1.00000 Atm.
 Atom     1 has atomic number  6 and mass  12.00000

 Molecular mass:   126.06808 amu.
 Principal axes and moments of inertia in atomic units:
                           1         2         3
     Eigenvalues --   656.726401032.635811403.75862
           X            0.99975  -0.00882   0.02042
           Y            0.00878   0.99996   0.00194
           Z           -0.02043  -0.00176   0.99979
 This molecule is an asymmetric top.
 Rotational symmetry number  1.
 Warning -- assumption of classical behavior for rotation
           may cause significant error
 Rotational temperatures (Kelvin)      0.13189     0.08388     0.06170
 Rotational constants (GHZ):           2.74809     1.74770     1.28565
 Zero-point vibrational energy     418823.1 (Joules/Mol)
                                  100.10113 (Kcal/Mol)
 Warning -- explicit consideration of   8 degrees of freedom as
           vibrations may cause significant error
 Vibrational temperatures:     91.80   236.38   265.15   360.16   482.24
          (Kelvin)            487.69   638.17   749.69   943.53   974.54
                             1002.55  1071.36  1182.58  1188.65  1298.25
                             1299.88  1313.39  1359.56  1456.49  1482.71
                             1498.28  1555.22  1569.42  1636.94  1679.39
                             1688.13  1697.45  1711.22  1755.13  1773.16
                             1797.28  1800.08  1836.79  1854.34  1925.55
                             1968.23  2134.79  2140.75  2146.26  2165.65
                             2174.90  4305.97  4379.30  4388.23  4401.55
                             4436.78  4464.97  4471.11  4481.99  4494.03
                             4527.91

 Zero-point correction=                           0.159521 (Hartree/Particle)
 Thermal correction to Energy=                    0.167263
 Thermal correction to Enthalpy=                  0.168208
 Thermal correction to Gibbs Free Energy=         0.127077
 Sum of electronic and zero-point Energies=           -422.954678
 Sum of electronic and thermal Energies=              -422.946936
 Sum of electronic and thermal Enthalpies=            -422.945992
 Sum of electronic and thermal Free Energies=         -422.987122

                     E (Thermal)             CV                S
                      KCal/Mol        Cal/Mol-Kelvin    Cal/Mol-Kelvin
 Total                  104.959             30.162             86.566
 Electronic               0.000              0.000              0.000
 Translational            0.889              2.981             40.409
 Rotational               0.889              2.981             28.345
 Vibrational            103.182             24.200             17.813
 Vibration     1          0.597              1.972              4.336
 Vibration     2          0.623              1.886              2.500
 Vibration     3          0.631              1.861              2.284
 Vibration     4          0.663              1.762              1.728
 Vibration     5          0.716              1.605              1.235
 Vibration     6          0.719              1.598              1.217
 Vibration     7          0.803              1.375              0.816
 Vibration     8          0.876              1.203              0.608

 Optimization completed.
    -- Stationary point found.
 Normal termination of Gaussian 09 at Tue Jan 28 13:01:08 2020.
