 Gaussian 09, Revision D.01,
 Gaussian 09:  ES64L-G09RevD.01 24-Apr-2013

 -----------------------------
 # b3lyp 6-31G(2df,p) opt Freq
 -----------------------------

 -----
 titel
 -----
 Symbolic Z-matrix:
 Charge =  0 Multiplicity = 1

 SCF Done:  E(RB3LYP) =  -423.127342632     A.U. after   13 cycles
 Optimization completed.
    -- Stationary point found.
 Normal termination of Gaussian 09 at Mon Jan 27 18:44:03 2020.

 ----------------------------------------------------------------------
 #N Geom=AllCheck Guess=TCheck SCRF=Check GenChk RB3LYP/6-31G(2df,p) Fr
 eq
 ----------------------------------------------------------------------

 Structure from the checkpoint file:  "/scratch/puck/g09_a45a0cd2-7588-4eef-bc71-df6471e0d55f/Gau-54527.chk"
 -----
 titel
 -----
 Charge =  0 Multiplicity = 1

                         Standard orientation:
 ---------------------------------------------------------------------
 Center     Atomic      Atomic             Coordinates (Angstroms)
 Number     Number       Type             X           Y           Z
 ---------------------------------------------------------------------
      1          6           0       -0.786406    1.977581   -0.503269
      2          6           0       -0.617768    0.585488    0.060914
      3          6           0       -1.879581   -0.122683    0.604764
      4          8           0       -1.615541   -1.323924   -0.153122
      5          6           0       -0.440579   -0.750561   -0.750992
      6          6           0        0.813473   -1.086698    0.066403
      7          8           0        2.006130   -0.560472   -0.545569
      8          6           0        1.984341    0.609091    0.305210
      9          6           0        0.629458    0.216882    0.914146
     10          1           0        0.098901    2.310762   -1.052658
     11          1           0       -1.636965    2.018620   -1.191783
     12          1           0       -0.972555    2.703438    0.298115
     13          1           0       -1.912772   -0.308839    1.686088
     14          1           0       -2.824164    0.343636    0.294430
     15          1           0       -0.399836   -0.854048   -1.838510
     16          1           0        0.924188   -2.103460    0.451455
     17          1           0        2.811748    0.587928    1.026589
     18          1           0        2.040384    1.542729   -0.266397
     19          1           0        0.528732    0.259808    1.999146
 ---------------------------------------------------------------------

 SCF Done:  E(RB3LYP) =  -423.127342632     A.U. after    1 cycles

 The electronic state is 1-A.
 Alpha  occ. eigenvalues --  -19.13679 -19.13662 -10.23479 -10.23263 -10.23252
 Alpha  occ. eigenvalues --  -10.23022 -10.20465 -10.19697 -10.18607  -1.05230
 Alpha  occ. eigenvalues --   -1.03433  -0.82072  -0.74044  -0.71460  -0.68271
 Alpha  occ. eigenvalues --   -0.62758  -0.57543  -0.51776  -0.51545  -0.49766
 Alpha  occ. eigenvalues --   -0.47930  -0.44920  -0.42826  -0.42544  -0.41252
 Alpha  occ. eigenvalues --   -0.40559  -0.39510  -0.35638  -0.33833  -0.31231
 Alpha  occ. eigenvalues --   -0.29313  -0.27709  -0.27192  -0.23305
 Alpha virt. eigenvalues --    0.06264   0.07152   0.09926   0.10735   0.11817
 Alpha virt. eigenvalues --    0.12616   0.13814   0.14641   0.16004   0.16782
 Alpha virt. eigenvalues --    0.17236   0.18501   0.18729   0.20551   0.20948

 Mulliken charges:
               1
     1  C   -0.508294
     2  C    0.290985
     3  C   -0.119481
     4  O   -0.291061
     5  C    0.039584
     6  C    0.098928
     7  O   -0.292121
     8  C   -0.095683
     9  C   -0.146947
    10  H    0.127987
    11  H    0.125181
    12  H    0.120557
    13  H    0.099058
    14  H    0.099561
    15  H    0.082927
    16  H    0.085359
    17  H    0.103407
    18  H    0.103078
    19  H    0.076975
 Sum of Mulliken charges =   0.00000

 Dipole moment (field-independent basis, Debye):
    X=             -0.3089    Y=              2.1828    Z=              1.2765  Tot=              2.5475
 Quadrupole moment (field-independent basis, Debye-Ang):
   XX=            -56.6034   YY=            -54.3275   ZZ=            -51.7995
   XY=             -1.3243   XZ=              1.8185   YZ=             -0.6694

  Exact polarizability:  81.383  -0.115  73.581   0.457   0.116  66.832
 Approx polarizability: 110.755   1.416 107.474  -2.196   3.648 103.087

                      1                      2                      3
                      A                      A                      A
 Frequencies --    107.2288               191.3063               199.8367
 Red. masses --      3.4738                 1.0950                 2.9795
 Frc consts  --      0.0235                 0.0236                 0.0701
 IR Inten    --      0.6563                 0.2867                 6.2551

                      4                      5                      6
                      A                      A                      A
 Frequencies --    250.7867               311.2212               342.8598
 Red. masses --      3.2208                 2.3446                 2.2217
 Frc consts  --      0.1194                 0.1338                 0.1539
 IR Inten    --      3.0321                 2.6509                 0.1163

                      7                      8                      9
                      A                      A                      A
 Frequencies --    389.2719               445.3222               616.2079
 Red. masses --      3.3298                 4.5698                 3.5505
 Frc consts  --      0.2973                 0.5339                 0.7943
 IR Inten    --      0.2085                 0.2659                 2.0527

                     10                     11                     12
                      A                      A                      A
 Frequencies --    663.2345               787.6351               819.3008
 Red. masses --      3.6770                 2.3046                 1.8035
 Frc consts  --      0.9530                 0.8423                 0.7133
 IR Inten    --      3.7776                 0.2522                 2.0748

                     13                     14                     15
                      A                      A                      A
 Frequencies --    859.5073               899.6382               929.5627
 Red. masses --      2.8564                 2.6699                 2.3840
 Frc consts  --      1.2433                 1.2731                 1.2137
 IR Inten    --     16.7425                 4.9544                12.1228

                     16                     17                     18
                      A                      A                      A
 Frequencies --    969.9116               982.5916              1003.5883
 Red. masses --      1.7150                 1.6771                 2.6764
 Frc consts  --      0.9505                 0.9540                 1.5883
 IR Inten    --      9.6609                 4.4807                 7.9835

                     19                     20                     21
                      A                      A                      A
 Frequencies --   1014.9520              1017.5347              1024.6076
 Red. masses --      2.2289                 3.7887                 3.5932
 Frc consts  --      1.3528                 2.3112                 2.2225
 IR Inten    --     14.8130                48.1989                62.8600

                     22                     23                     24
                      A                      A                      A
 Frequencies --   1042.9298              1073.6029              1137.0960
 Red. masses --      4.0721                 2.8575                 1.8945
 Frc consts  --      2.6097                 1.9405                 1.4433
 IR Inten    --     41.8830                17.5691                 1.1301

                     25                     26                     27
                      A                      A                      A
 Frequencies --   1157.0665              1173.5489              1179.6660
 Red. masses --      1.2517                 1.6368                 1.6286
 Frc consts  --      0.9873                 1.3281                 1.3353
 IR Inten    --      1.6263                 1.0406                 9.8221

                     28                     29                     30
                      A                      A                      A
 Frequencies --   1193.0009              1205.9672              1237.0879
 Red. masses --      1.8454                 1.7743                 1.3668
 Frc consts  --      1.5474                 1.5204                 1.2324
 IR Inten    --      0.5897                 3.2859                 2.8105

                     31                     32                     33
                      A                      A                      A
 Frequencies --   1257.7564              1281.5643              1304.5421
 Red. masses --      1.5621                 1.9972                 1.6227
 Frc consts  --      1.4560                 1.9327                 1.6271
 IR Inten    --      5.5588                 6.1399                 1.0207

                     34                     35                     36
                      A                      A                      A
 Frequencies --   1313.8293              1355.5227              1378.0571
 Red. masses --      1.9305                 1.4756                 1.7096
 Frc consts  --      1.9634                 1.5974                 1.9128
 IR Inten    --      0.7884                 2.4164                 0.8905

                     37                     38                     39
                      A                      A                      A
 Frequencies --   1414.1885              1488.6596              1494.3887
 Red. masses --      1.2677                 1.0532                 1.0513
 Frc consts  --      1.4937                 1.3751                 1.3832
 IR Inten    --      2.9193                 3.0352                 5.0346

                     40                     41                     42
                      A                      A                      A
 Frequencies --   1522.7827              1528.2614              3000.9114
 Red. masses --      1.0967                 1.0941                 1.0548
 Frc consts  --      1.4983                 1.5056                 5.5969
 IR Inten    --      0.2026                 2.6681                76.4793

                     43                     44                     45
                      A                      A                      A
 Frequencies --   3010.8907              3025.5251              3045.6822
 Red. masses --      1.0588                 1.0389                 1.1105
 Frc consts  --      5.6555                 5.6031                 6.0695
 IR Inten    --     71.2719                27.4932                36.6163

                     46                     47                     48
                      A                      A                      A
 Frequencies --   3058.3402              3079.4133              3084.1750
 Red. masses --      1.1054                 1.0863                 1.0908
 Frc consts  --      6.0916                 6.0695                 6.1133
 IR Inten    --     43.7035                36.5339                41.2002

                     49                     50                     51
                      A                      A                      A
 Frequencies --   3088.2122              3104.2190              3106.3509
 Red. masses --      1.0979                 1.0917                 1.0992
 Frc consts  --      6.1693                 6.1981                 6.2495
 IR Inten    --     26.9776                30.2704                25.7857

 - Thermochemistry -
 -------------------
 Temperature   298.150 Kelvin.  Pressure   1.00000 Atm.
 Atom     1 has atomic number  6 and mass  12.00000

 Molecular mass:   126.06808 amu.
 Principal axes and moments of inertia in atomic units:
                           1         2         3
     Eigenvalues --   642.146671058.884961381.05832
           X            0.99968  -0.02332   0.01020
           Y            0.02365   0.99915  -0.03380
           Z           -0.00941   0.03403   0.99938
 This molecule is an asymmetric top.
 Rotational symmetry number  1.
 Warning -- assumption of classical behavior for rotation
           may cause significant error
 Rotational temperatures (Kelvin)      0.13488     0.08180     0.06272
 Rotational constants (GHZ):           2.81048     1.70438     1.30678
 Zero-point vibrational energy     419705.9 (Joules/Mol)
                                  100.31211 (Kcal/Mol)
 Warning -- explicit consideration of   9 degrees of freedom as
           vibrations may cause significant error
 Vibrational temperatures:    154.28   275.25   287.52   360.83   447.78
          (Kelvin)            493.30   560.07   640.72   886.58   954.25
                             1133.23  1178.79  1236.64  1294.38  1337.43
                             1395.48  1413.73  1443.94  1460.29  1464.00
                             1474.18  1500.54  1544.67  1636.03  1664.76
                             1688.47  1697.27  1716.46  1735.12  1779.89
                             1809.63  1843.88  1876.94  1890.30  1950.29
                             1982.71  2034.70  2141.85  2150.09  2190.94
                             2198.82  4317.64  4331.99  4353.05  4382.05
                             4400.26  4430.58  4437.43  4443.24  4466.27
                             4469.34

 Zero-point correction=                           0.159858 (Hartree/Particle)
 Thermal correction to Energy=                    0.167490
 Thermal correction to Enthalpy=                  0.168434
 Thermal correction to Gibbs Free Energy=         0.127881
 Sum of electronic and zero-point Energies=           -422.967485
 Sum of electronic and thermal Energies=              -422.959853
 Sum of electronic and thermal Enthalpies=            -422.958908
 Sum of electronic and thermal Free Energies=         -422.999461

                     E (Thermal)             CV                S
                      KCal/Mol        Cal/Mol-Kelvin    Cal/Mol-Kelvin
 Total                  105.102             29.825             85.351
 Electronic               0.000              0.000              0.000
 Translational            0.889              2.981             40.409
 Rotational               0.889              2.981             28.331
 Vibrational            103.324             23.863             16.611
 Vibration     1          0.606              1.943              3.318
 Vibration     2          0.634              1.852              2.215
 Vibration     3          0.638              1.840              2.135
 Vibration     4          0.663              1.761              1.725
 Vibration     5          0.700              1.652              1.356
 Vibration     6          0.722              1.590              1.199
 Vibration     7          0.757              1.493              1.003
 Vibration     8          0.805              1.371              0.810
 Vibration     9          0.976              0.998              0.423

 Optimization completed.
    -- Stationary point found.
 Normal termination of Gaussian 09 at Mon Jan 27 19:29:16 2020.
