 Gaussian 09, Revision D.01,
 Gaussian 09:  ES64L-G09RevD.01 24-Apr-2013

 -----------------------------
 # b3lyp 6-31G(2df,p) opt Freq
 -----------------------------

 -----
 titel
 -----
 Symbolic Z-matrix:
 Charge =  0 Multiplicity = 1

 SCF Done:  E(RB3LYP) =  -423.123178205     A.U. after   12 cycles
 Optimization completed.
    -- Stationary point found.
 Normal termination of Gaussian 09 at Mon Jan 27 23:46:10 2020.

 ----------------------------------------------------------------------
 #N Geom=AllCheck Guess=TCheck SCRF=Check GenChk RB3LYP/6-31G(2df,p) Fr
 eq
 ----------------------------------------------------------------------

 Structure from the checkpoint file:  "/scratch/puck/g09_cc3ec0a4-8df5-4ba5-a85a-0d5e90d03675/Gau-68052.chk"
 -----
 titel
 -----
 Charge =  0 Multiplicity = 1

                         Standard orientation:
 ---------------------------------------------------------------------
 Center     Atomic      Atomic             Coordinates (Angstroms)
 Number     Number       Type             X           Y           Z
 ---------------------------------------------------------------------
      1          6           0        2.229766   -0.526221    0.641319
      2          6           0        1.034736   -0.746588   -0.276866
      3          6           0       -0.258525   -1.239519    0.448322
      4          6           0       -1.300707   -1.414978   -0.691331
      5          6           0       -1.234045    0.101600   -0.842901
      6          6           0        0.245104    0.528570   -0.568534
      7          8           0        0.739903    1.750205   -0.976492
      8          6           0       -0.716670    0.291846    0.561498
      9          8           0       -1.224896    1.068339    1.565897
     10          1           0        3.009437    0.056884    0.141007
     11          1           0        1.937512    0.024034    1.543760
     12          1           0        2.667179   -1.479218    0.957001
     13          1           0        1.325237   -1.352477   -1.146311
     14          1           0       -0.179861   -1.952528    1.267110
     15          1           0       -1.005234   -2.045141   -1.538250
     16          1           0       -2.275244   -1.739468   -0.315756
     17          1           0       -1.881224    0.776661   -1.389671
     18          1           0        0.776180    1.763628   -1.939369
     19          1           0       -0.491985    1.431009    2.076200
 ---------------------------------------------------------------------

 SCF Done:  E(RB3LYP) =  -423.123178205     A.U. after    1 cycles

 The electronic state is 1-A.
 Alpha  occ. eigenvalues --  -19.15414 -19.15135 -10.23182 -10.23105 -10.18778
 Alpha  occ. eigenvalues --  -10.18493 -10.18272 -10.18066 -10.17388  -1.04445
 Alpha  occ. eigenvalues --   -1.02996  -0.91302  -0.75694  -0.70545  -0.65418
 Alpha  occ. eigenvalues --   -0.61250  -0.56608  -0.55283  -0.52052  -0.46321
 Alpha  occ. eigenvalues --   -0.46167  -0.44591  -0.42677  -0.40924  -0.40015
 Alpha  occ. eigenvalues --   -0.37232  -0.36237  -0.35278  -0.34131  -0.32406
 Alpha  occ. eigenvalues --   -0.30551  -0.27823  -0.23154  -0.23104
 Alpha virt. eigenvalues --    0.05860   0.08445   0.11034   0.11530   0.12746
 Alpha virt. eigenvalues --    0.14018   0.14433   0.16263   0.16427   0.17390
 Alpha virt. eigenvalues --    0.18134   0.18428   0.20882   0.22188   0.23467

 Mulliken charges:
               1
     1  C   -0.406018
     2  C   -0.045731
     3  C   -0.137154
     4  C   -0.243891
     5  C   -0.197593
     6  C    0.311214
     7  O   -0.472829
     8  C    0.331494
     9  O   -0.455646
    10  H    0.120393
    11  H    0.102142
    12  H    0.111332
    13  H    0.054973
    14  H    0.070551
    15  H    0.085407
    16  H    0.103305
    17  H    0.087594
    18  H    0.286753
    19  H    0.293702
 Sum of Mulliken charges =   0.00000

 Dipole moment (field-independent basis, Debye):
    X=              1.0705    Y=             -0.5449    Z=             -0.8197  Tot=              1.4543
 Quadrupole moment (field-independent basis, Debye-Ang):
   XX=            -55.6843   YY=            -54.1388   ZZ=            -47.3504
   XY=              0.7842   XZ=              1.6809   YZ=             -1.1000

  Exact polarizability:  78.826   1.513  74.063   2.683   0.237  72.131
 Approx polarizability: 109.593   2.008 109.059  -0.144   1.383 111.883

                      1                      2                      3
                      A                      A                      A
 Frequencies --    151.9163               177.2784               210.3797
 Red. masses --      3.2953                 3.0960                 2.1463
 Frc consts  --      0.0448                 0.0573                 0.0560
 IR Inten    --      5.5051                14.8373                 0.3751

                      4                      5                      6
                      A                      A                      A
 Frequencies --    228.4917               286.5756               300.2731
 Red. masses --      1.1936                 1.5398                 1.3633
 Frc consts  --      0.0367                 0.0745                 0.0724
 IR Inten    --      0.1054                62.3123                56.7279

                      7                      8                      9
                      A                      A                      A
 Frequencies --    322.6474               367.8602               397.5146
 Red. masses --      1.8258                 2.5695                 2.8863
 Frc consts  --      0.1120                 0.2049                 0.2687
 IR Inten    --     54.4415                 0.8996                 8.8387

                     10                     11                     12
                      A                      A                      A
 Frequencies --    494.0950               545.2290               620.7843
 Red. masses --      3.4495                 2.8549                 5.4862
 Frc consts  --      0.4962                 0.5000                 1.2457
 IR Inten    --      1.6918                 6.3956                 8.2935

                     13                     14                     15
                      A                      A                      A
 Frequencies --    681.1732               717.4892               768.4628
 Red. masses --      4.5475                 2.8677                 3.4142
 Frc consts  --      1.2432                 0.8698                 1.1879
 IR Inten    --      7.4948                 2.4725                 2.2960

                     16                     17                     18
                      A                      A                      A
 Frequencies --    822.1013               900.2173               908.7862
 Red. masses --      2.5619                 1.7695                 2.4190
 Frc consts  --      1.0202                 0.8449                 1.1771
 IR Inten    --     16.6444                 2.3785                12.8329

                     19                     20                     21
                      A                      A                      A
 Frequencies --    943.0948               982.5780               993.9611
 Red. masses --      1.9985                 1.6766                 1.9407
 Frc consts  --      1.0473                 0.9537                 1.1296
 IR Inten    --      5.8776                 4.8313                 2.8209

                     22                     23                     24
                      A                      A                      A
 Frequencies --   1017.8547              1028.1743              1063.0585
 Red. masses --      1.7350                 2.0277                 1.4907
 Frc consts  --      1.0591                 1.2630                 0.9926
 IR Inten    --      1.5989                14.8737                11.8168

                     25                     26                     27
                      A                      A                      A
 Frequencies --   1096.2241              1124.2255              1156.5744
 Red. masses --      1.6457                 1.7933                 2.2774
 Frc consts  --      1.1652                 1.3354                 1.7949
 IR Inten    --      0.9988                 0.2902                 6.4696

                     28                     29                     30
                      A                      A                      A
 Frequencies --   1157.9578              1203.4061              1238.0626
 Red. masses --      1.9940                 1.7365                 1.8215
 Frc consts  --      1.5753                 1.4816                 1.6450
 IR Inten    --      5.5628                12.2876                24.9036

                     31                     32                     33
                      A                      A                      A
 Frequencies --   1244.8509              1274.2770              1287.6699
 Red. masses --      1.9317                 1.5480                 1.4677
 Frc consts  --      1.7637                 1.4810                 1.4339
 IR Inten    --     45.8329                20.5116                89.6159

                     34                     35                     36
                      A                      A                      A
 Frequencies --   1292.8706              1353.7905              1405.1960
 Red. masses --      1.6350                 1.6926                 2.2187
 Frc consts  --      1.6102                 1.8277                 2.5812
 IR Inten    --    133.2133                 9.3484                 9.2600

                     37                     38                     39
                      A                      A                      A
 Frequencies --   1409.6254              1490.2106              1493.4612
 Red. masses --      1.2891                 1.0857                 1.1888
 Frc consts  --      1.5092                 1.4206                 1.5622
 IR Inten    --      7.2702                 3.9590                 2.3736

                     40                     41                     42
                      A                      A                      A
 Frequencies --   1496.9106              1520.5894              3005.7569
 Red. masses --      1.0924                 3.2743                 1.0827
 Frc consts  --      1.4422                 4.4605                 5.7633
 IR Inten    --      4.6071                51.3842                30.6638

                     43                     44                     45
                      A                      A                      A
 Frequencies --   3025.3502              3032.1989              3089.5978
 Red. masses --      1.0359                 1.0602                 1.0995
 Frc consts  --      5.5863                 5.7434                 6.1834
 IR Inten    --     27.6568                72.1936                35.9528

                     46                     47                     48
                      A                      A                      A
 Frequencies --   3092.8177              3101.4228              3131.2549
 Red. masses --      1.1044                 1.1015                 1.0913
 Frc consts  --      6.2243                 6.2425                 6.3041
 IR Inten    --     36.8245                20.0294                28.7010

                     49                     50                     51
                      A                      A                      A
 Frequencies --   3193.4197              3788.7622              3789.2916
 Red. masses --      1.0928                 1.0663                 1.0661
 Frc consts  --      6.5658                 9.0183                 9.0195
 IR Inten    --     12.5491                31.4656                14.2923

 - Thermochemistry -
 -------------------
 Temperature   298.150 Kelvin.  Pressure   1.00000 Atm.
 Atom     1 has atomic number  6 and mass  12.00000

 Molecular mass:   126.06808 amu.
 Principal axes and moments of inertia in atomic units:
                           1         2         3
     Eigenvalues --   885.716371026.545101176.67077
           X            0.99679  -0.00176   0.08001
           Y            0.00200   0.99999  -0.00289
           Z           -0.08001   0.00304   0.99679
 This molecule is an asymmetric top.
 Rotational symmetry number  1.
 Warning -- assumption of classical behavior for rotation
           may cause significant error
 Rotational temperatures (Kelvin)      0.09779     0.08437     0.07361
 Rotational constants (GHZ):           2.03761     1.75807     1.53377
 Zero-point vibrational energy     415258.3 (Joules/Mol)
                                   99.24912 (Kcal/Mol)
 Warning -- explicit consideration of  12 degrees of freedom as
           vibrations may cause significant error
 Vibrational temperatures:    218.57   255.06   302.69   328.75   412.32
          (Kelvin)            432.03   464.22   529.27   571.93   710.89
                              784.46   893.17   980.06  1032.31  1105.65
                             1182.82  1295.21  1307.54  1356.90  1413.71
                             1430.09  1464.46  1479.31  1529.50  1577.22
                             1617.51  1664.05  1666.04  1731.43  1781.29
                             1791.06  1833.40  1852.67  1860.15  1947.80
                             2021.76  2028.13  2144.08  2148.75  2153.72
                             2187.79  4324.61  4352.80  4362.65  4445.24
                             4449.87  4462.25  4505.17  4594.61  5451.18
                             5451.94

 Zero-point correction=                           0.158164 (Hartree/Particle)
 Thermal correction to Energy=                    0.166692
 Thermal correction to Enthalpy=                  0.167636
 Thermal correction to Gibbs Free Energy=         0.125775
 Sum of electronic and zero-point Energies=           -422.965015
 Sum of electronic and thermal Energies=              -422.956486
 Sum of electronic and thermal Enthalpies=            -422.955542
 Sum of electronic and thermal Free Energies=         -422.997403

                     E (Thermal)             CV                S
                      KCal/Mol        Cal/Mol-Kelvin    Cal/Mol-Kelvin
 Total                  104.601             33.655             88.105
 Electronic               0.000              0.000              0.000
 Translational            0.889              2.981             40.409
 Rotational               0.889              2.981             28.461
 Vibrational            102.824             27.693             19.236
 Vibration     1          0.619              1.901              2.648
 Vibration     2          0.628              1.870              2.357
 Vibration     3          0.643              1.825              2.040
 Vibration     4          0.651              1.798              1.891
 Vibration     5          0.684              1.699              1.494
 Vibration     6          0.693              1.673              1.415
 Vibration     7          0.708              1.630              1.297
 Vibration     8          0.740              1.538              1.089
 Vibration     9          0.764              1.475              0.972
 Vibration    10          0.850              1.263              0.673
 Vibration    11          0.900              1.150              0.554
 Vibration    12          0.981              0.988              0.415

 Optimization completed.
    -- Stationary point found.
 Normal termination of Gaussian 09 at Tue Jan 28 00:31:08 2020.
