 Gaussian 09, Revision D.01,
 Gaussian 09:  ES64L-G09RevD.01 24-Apr-2013

 -----------------------------
 # b3lyp 6-31G(2df,p) opt Freq
 -----------------------------

 -----
 titel
 -----
 Symbolic Z-matrix:
 Charge =  0 Multiplicity = 1

 SCF Done:  E(RB3LYP) =  -423.207914173     A.U. after   14 cycles
 Optimization completed.
    -- Stationary point found.
 Normal termination of Gaussian 09 at Mon Jan 27 13:16:21 2020.

 ----------------------------------------------------------------------
 #N Geom=AllCheck Guess=TCheck SCRF=Check GenChk RB3LYP/6-31G(2df,p) Fr
 eq
 ----------------------------------------------------------------------

 Structure from the checkpoint file:  "/scratch/puck/g09_c2f7ec1b-ef58-44f6-ab5c-8fd1f495bf58/Gau-28213.chk"
 -----
 titel
 -----
 Charge =  0 Multiplicity = 1

                         Standard orientation:
 ---------------------------------------------------------------------
 Center     Atomic      Atomic             Coordinates (Angstroms)
 Number     Number       Type             X           Y           Z
 ---------------------------------------------------------------------
      1          8           0        0.232467   -1.862857    0.910053
      2          6           0        0.133617   -1.197624   -0.082453
      3          8           0       -1.065932   -1.008925   -0.734997
      4          6           0       -1.953101   -0.141050   -0.002352
      5          6           0       -1.464274    1.312492    0.014806
      6          6           0       -0.055168    1.513390    0.622146
      7          6           0        1.072270    1.098289   -0.316810
      8          6           0        2.248221    0.266855    0.149896
      9          6           0        1.198397   -0.361911   -0.715418
     10          1           0       -2.917634   -0.217955   -0.509085
     11          1           0       -2.065578   -0.526920    1.018782
     12          1           0       -1.484639    1.712172   -1.006301
     13          1           0       -2.195755    1.888859    0.595044
     14          1           0        0.076421    2.567869    0.888653
     15          1           0        0.016147    0.953266    1.562355
     16          1           0        1.271202    1.809745   -1.113677
     17          1           0        3.222470    0.460892   -0.284701
     18          1           0        2.270502   -0.040987    1.189955
     19          1           0        1.394809   -0.575337   -1.760349
 ---------------------------------------------------------------------

 SCF Done:  E(RB3LYP) =  -423.207914173     A.U. after    1 cycles

 The electronic state is 1-A.
 Alpha  occ. eigenvalues --  -19.15379 -19.13280 -10.30520 -10.24060 -10.20540
 Alpha  occ. eigenvalues --  -10.20168 -10.19519 -10.19405 -10.19263  -1.08653
 Alpha  occ. eigenvalues --   -1.01086  -0.87584  -0.79111  -0.70892  -0.66886
 Alpha  occ. eigenvalues --   -0.60731  -0.57778  -0.53887  -0.51864  -0.50031
 Alpha  occ. eigenvalues --   -0.47616  -0.45989  -0.42828  -0.42074  -0.40807
 Alpha  occ. eigenvalues --   -0.39279  -0.37986  -0.35921  -0.34652  -0.33738
 Alpha  occ. eigenvalues --   -0.31321  -0.28906  -0.27267  -0.26213
 Alpha virt. eigenvalues --   -0.00841   0.08293   0.10028   0.11293   0.11608
 Alpha virt. eigenvalues --    0.14043   0.14591   0.15192   0.15893   0.16571
 Alpha virt. eigenvalues --    0.17207   0.18227   0.18966   0.20441   0.23573

 Mulliken charges:
               1
     1  O   -0.316081
     2  C    0.394111
     3  O   -0.253696
     4  C   -0.088660
     5  C   -0.193770
     6  C   -0.238818
     7  C    0.004917
     8  C   -0.316368
     9  C   -0.113971
    10  H    0.116609
    11  H    0.120181
    12  H    0.106563
    13  H    0.101817
    14  H    0.101136
    15  H    0.118743
    16  H    0.092227
    17  H    0.116527
    18  H    0.134397
    19  H    0.114136
 Sum of Mulliken charges =   0.00000

 Dipole moment (field-independent basis, Debye):
    X=             -0.0800    Y=              2.9165    Z=             -0.8673  Tot=              3.0438
 Quadrupole moment (field-independent basis, Debye-Ang):
   XX=            -49.0810   YY=            -57.3630   ZZ=            -53.4652
   XY=             -0.8161   XZ=             -2.5476   YZ=              2.1283

  Exact polarizability:  84.242  -1.513  73.364  -0.090  -2.251  65.398
 Approx polarizability: 110.213  -2.576 109.685   3.007  -6.932 108.794

                      1                      2                      3
                      A                      A                      A
 Frequencies --     92.8112               170.3527               211.5213
 Red. masses --      6.3439                 3.1795                 2.6368
 Frc consts  --      0.0322                 0.0544                 0.0695
 IR Inten    --      2.3859                 2.3801                 0.7603

                      4                      5                      6
                      A                      A                      A
 Frequencies --    292.7859               312.6064               360.0145
 Red. masses --      4.0607                 2.0350                 2.8249
 Frc consts  --      0.2051                 0.1172                 0.2157
 IR Inten    --      3.1550                 1.8208                 1.3837

                      7                      8                      9
                      A                      A                      A
 Frequencies --    409.2620               517.3735               519.5718
 Red. masses --      3.9450                 1.7572                 3.7394
 Frc consts  --      0.3893                 0.2771                 0.5948
 IR Inten    --      0.4162                 1.1722                 6.1645

                     10                     11                     12
                      A                      A                      A
 Frequencies --    616.5185               738.3414               755.3097
 Red. masses --      3.9755                 2.9836                 3.1828
 Frc consts  --      0.8903                 0.9583                 1.0698
 IR Inten    --      9.3385                 4.2959                 5.2015

                     13                     14                     15
                      A                      A                      A
 Frequencies --    824.6370               834.1782               855.7320
 Red. masses --      2.4278                 1.4679                 1.6076
 Frc consts  --      0.9727                 0.6018                 0.6936
 IR Inten    --      4.8729                 6.6537                 2.5223

                     16                     17                     18
                      A                      A                      A
 Frequencies --    887.5099               896.0271               960.8241
 Red. masses --      3.4860                 1.8759                 3.5416
 Frc consts  --      1.6178                 0.8874                 1.9264
 IR Inten    --      1.8205                 3.8950                30.4993

                     19                     20                     21
                      A                      A                      A
 Frequencies --    978.4714              1012.0649              1055.5040
 Red. masses --      2.5175                 1.4571                 2.5752
 Frc consts  --      1.4201                 0.8793                 1.6903
 IR Inten    --      6.4520                 2.7193               128.4088

                     22                     23                     24
                      A                      A                      A
 Frequencies --   1062.5214              1082.3484              1095.1404
 Red. masses --      2.3171                 1.4437                 1.9158
 Frc consts  --      1.5412                 0.9964                 1.3538
 IR Inten    --     10.1838                21.1286                14.0447

                     25                     26                     27
                      A                      A                      A
 Frequencies --   1126.3977              1139.4215              1173.6482
 Red. masses --      1.3941                 2.4772                 1.9164
 Frc consts  --      1.0421                 1.8949                 1.5553
 IR Inten    --     18.7028               180.4452                 0.4727

                     28                     29                     30
                      A                      A                      A
 Frequencies --   1209.9312              1242.3265              1248.2084
 Red. masses --      1.5707                 1.3060                 1.3017
 Frc consts  --      1.3548                 1.1876                 1.1949
 IR Inten    --      0.3308                 3.0128                 5.5393

                     31                     32                     33
                      A                      A                      A
 Frequencies --   1300.3070              1352.1614              1374.6093
 Red. masses --      1.1498                 1.3071                 1.5559
 Frc consts  --      1.1455                 1.4081                 1.7321
 IR Inten    --      6.1457                13.3611                 9.1058

                     34                     35                     36
                      A                      A                      A
 Frequencies --   1380.8037              1405.7033              1415.1190
 Red. masses --      1.4433                 1.4119                 1.6926
 Frc consts  --      1.6213                 1.6438                 1.9971
 IR Inten    --     11.4691                 9.5586                14.0674

                     37                     38                     39
                      A                      A                      A
 Frequencies --   1472.6742              1485.9797              1491.0145
 Red. masses --      1.0904                 1.2144                 1.1751
 Frc consts  --      1.3933                 1.5800                 1.5392
 IR Inten    --      2.5515                 2.3112                 6.9561

                     40                     41                     42
                      A                      A                      A
 Frequencies --   1500.1911              1837.4258              3026.5129
 Red. masses --      1.0959                12.2016                 1.0602
 Frc consts  --      1.4532                24.2710                 5.7217
 IR Inten    --      9.9795               224.4029                18.7946

                     43                     44                     45
                      A                      A                      A
 Frequencies --   3030.9114              3033.5520              3068.5049
 Red. masses --      1.0671                 1.0609                 1.0999
 Frc consts  --      5.7755                 5.7521                 6.1020
 IR Inten    --     24.9197                16.8884                31.9055

                     46                     47                     48
                      A                      A                      A
 Frequencies --   3074.0402              3109.6415              3136.2735
 Red. masses --      1.1013                 1.1009                 1.0547
 Frc consts  --      6.1314                 6.2724                 6.1126
 IR Inten    --     31.3110                27.5841                12.1351

                     49                     50                     51
                      A                      A                      A
 Frequencies --   3143.5136              3172.9774              3223.9458
 Red. masses --      1.0882                 1.0895                 1.1163
 Frc consts  --      6.3354                 6.4625                 6.8362
 IR Inten    --     18.1867                 2.9553                 5.9539

 - Thermochemistry -
 -------------------
 Temperature   298.150 Kelvin.  Pressure   1.00000 Atm.
 Atom     1 has atomic number  8 and mass  15.99491

 Molecular mass:   126.06808 amu.
 Principal axes and moments of inertia in atomic units:
                           1         2         3
     Eigenvalues --   778.61182 956.309261406.38967
           X            0.99922  -0.03702  -0.01381
           Y            0.03719   0.99923   0.01276
           Z            0.01333  -0.01326   0.99982
 This molecule is an asymmetric top.
 Rotational symmetry number  1.
 Warning -- assumption of classical behavior for rotation
           may cause significant error
 Rotational temperatures (Kelvin)      0.11124     0.09057     0.06159
 Rotational constants (GHZ):           2.31790     1.88719     1.28324
 Zero-point vibrational energy     422982.9 (Joules/Mol)
                                  101.09535 (Kcal/Mol)
 Warning -- explicit consideration of  10 degrees of freedom as
           vibrations may cause significant error
 Vibrational temperatures:    133.53   245.10   304.33   421.25   449.77
          (Kelvin)            517.98   588.84   744.38   747.55   887.03
                             1062.31  1086.72  1186.47  1200.19  1231.21
                             1276.93  1289.18  1382.41  1407.80  1456.13
                             1518.63  1528.73  1557.26  1575.66  1620.63
                             1639.37  1688.62  1740.82  1787.43  1795.89
                             1870.85  1945.46  1977.75  1986.67  2022.49
                             2036.04  2118.85  2137.99  2145.23  2158.44
                             2643.64  4354.47  4360.80  4364.60  4414.89
                             4422.85  4474.07  4512.39  4522.81  4565.20
                             4638.53

 Zero-point correction=                           0.161106 (Hartree/Particle)
 Thermal correction to Energy=                    0.168810
 Thermal correction to Enthalpy=                  0.169754
 Thermal correction to Gibbs Free Energy=         0.129002
 Sum of electronic and zero-point Energies=           -423.046808
 Sum of electronic and thermal Energies=              -423.039104
 Sum of electronic and thermal Enthalpies=            -423.038160
 Sum of electronic and thermal Free Energies=         -423.078912

                     E (Thermal)             CV                S
                      KCal/Mol        Cal/Mol-Kelvin    Cal/Mol-Kelvin
 Total                  105.930             30.377             85.769
 Electronic               0.000              0.000              0.000
 Translational            0.889              2.981             40.409
 Rotational               0.889              2.981             28.439
 Vibrational            104.152             24.416             16.921
 Vibration     1          0.602              1.954              3.600
 Vibration     2          0.625              1.879              2.432
 Vibration     3          0.643              1.823              2.031
 Vibration     4          0.688              1.687              1.458
 Vibration     5          0.701              1.650              1.349
 Vibration     6          0.735              1.555              1.122
 Vibration     7          0.774              1.450              0.929
 Vibration     8          0.872              1.212              0.616
 Vibration     9          0.875              1.207              0.611
 Vibration    10          0.976              0.997              0.422

 Optimization completed.
    -- Stationary point found.
 Normal termination of Gaussian 09 at Mon Jan 27 14:38:24 2020.
