 Gaussian 09, Revision D.01,
 Gaussian 09:  ES64L-G09RevD.01 24-Apr-2013

 -----------------------------
 # b3lyp 6-31G(2df,p) opt Freq
 -----------------------------

 -----
 titel
 -----
 Symbolic Z-matrix:
 Charge =  0 Multiplicity = 1

 SCF Done:  E(RB3LYP) =  -423.166309431     A.U. after   14 cycles
 Optimization completed.
    -- Stationary point found.
 Normal termination of Gaussian 09 at Tue Jan 28 13:30:46 2020.

 ----------------------------------------------------------------------
 #N Geom=AllCheck Guess=TCheck SCRF=Check GenChk RB3LYP/6-31G(2df,p) Fr
 eq
 ----------------------------------------------------------------------

 Structure from the checkpoint file:  "/scratch/puck/g09_dccb40b2-24f3-4d37-8875-e744409a1d08/Gau-32018.chk"
 -----
 titel
 -----
 Charge =  0 Multiplicity = 1

                         Standard orientation:
 ---------------------------------------------------------------------
 Center     Atomic      Atomic             Coordinates (Angstroms)
 Number     Number       Type             X           Y           Z
 ---------------------------------------------------------------------
      1          6           0        2.170582   -1.030004    0.707974
      2          8           0        2.202565   -0.230408   -0.463317
      3          6           0        1.039776    0.505783   -0.729985
      4          8           0       -0.099247   -0.339543   -0.899959
      5          6           0       -1.122505    0.037011   -0.002205
      6          6           0       -1.997674   -1.047542    0.572040
      7          6           0       -2.546979   -0.100047   -0.474490
      8          6           0       -0.608770    1.189549    0.763965
      9          6           0        0.621308    1.478966    0.350575
     10          1           0        1.363449   -1.770102    0.664368
     11          1           0        3.130906   -1.548047    0.750592
     12          1           0        2.048286   -0.427037    1.617392
     13          1           0        1.265341    0.992126   -1.687841
     14          1           0       -1.768980   -2.058975    0.255313
     15          1           0       -2.338822   -0.954200    1.597591
     16          1           0       -2.678390   -0.487590   -1.478301
     17          1           0       -3.268702    0.652247   -0.174580
     18          1           0       -1.186144    1.691955    1.529610
     19          1           0        1.272090    2.266937    0.704823
 ---------------------------------------------------------------------

 SCF Done:  E(RB3LYP) =  -423.166309431     A.U. after    1 cycles

 The electronic state is 1-A.
 Alpha  occ. eigenvalues --  -19.14307 -19.13725 -10.27586 -10.24641 -10.21512
 Alpha  occ. eigenvalues --  -10.19623 -10.18910 -10.18882 -10.18529  -1.06570
 Alpha  occ. eigenvalues --   -1.00853  -0.85359  -0.79075  -0.71608  -0.64401
 Alpha  occ. eigenvalues --   -0.60852  -0.58123  -0.55987  -0.51785  -0.49228
 Alpha  occ. eigenvalues --   -0.48529  -0.46394  -0.43943  -0.42082  -0.39864
 Alpha  occ. eigenvalues --   -0.38702  -0.37333  -0.36407  -0.34159  -0.31797
 Alpha  occ. eigenvalues --   -0.29964  -0.28016  -0.25990  -0.22796
 Alpha virt. eigenvalues --    0.00408   0.09118   0.10642   0.11816   0.13173
 Alpha virt. eigenvalues --    0.14380   0.15142   0.15388   0.16284   0.16957
 Alpha virt. eigenvalues --    0.17954   0.18357   0.19719   0.21130   0.22634

 Mulliken charges:
               1
     1  C   -0.246541
     2  O   -0.236789
     3  C    0.170131
     4  O   -0.313319
     5  C    0.427940
     6  C   -0.327124
     7  C   -0.323559
     8  C   -0.149053
     9  C   -0.168088
    10  H    0.123023
    11  H    0.125015
    12  H    0.106371
    13  H    0.092464
    14  H    0.129844
    15  H    0.115507
    16  H    0.130920
    17  H    0.115720
    18  H    0.115248
    19  H    0.112291
 Sum of Mulliken charges =   0.00000

 Dipole moment (field-independent basis, Debye):
    X=             -1.2133    Y=              0.7855    Z=              1.7277  Tot=              2.2526
 Quadrupole moment (field-independent basis, Debye-Ang):
   XX=            -53.1899   YY=            -50.7477   ZZ=            -52.6110
   XY=             -0.2451   XZ=              1.1415   YZ=             -0.4042

  Exact polarizability:  97.925   4.894  71.524  -2.183  -0.170  66.097
 Approx polarizability: 138.893  11.012 103.758  -8.769  -0.420 100.522

                      1                      2                      3
                      A                      A                      A
 Frequencies --     62.2850               107.7720               163.3464
 Red. masses --      3.7965                 1.8106                 1.5008
 Frc consts  --      0.0087                 0.0124                 0.0236
 IR Inten    --      0.4250                 1.8810                 0.3006

                      4                      5                      6
                      A                      A                      A
 Frequencies --    201.8580               268.3874               282.4264
 Red. masses --      2.6713                 2.8946                 2.4998
 Frc consts  --      0.0641                 0.1228                 0.1175
 IR Inten    --      4.9187                 1.6763                 0.4919

                      7                      8                      9
                      A                      A                      A
 Frequencies --    361.3922               422.4474               503.0655
 Red. masses --      2.9719                 3.3792                 4.2113
 Frc consts  --      0.2287                 0.3553                 0.6279
 IR Inten    --      2.7541                 1.8736                 5.1912

                     10                     11                     12
                      A                      A                      A
 Frequencies --    554.7786               632.0739               745.6474
 Red. masses --      3.7742                 4.4660                 1.5436
 Frc consts  --      0.6844                 1.0513                 0.5057
 IR Inten    --      1.2031                 6.6810                10.1438

                     13                     14                     15
                      A                      A                      A
 Frequencies --    765.4671               816.7158               858.8948
 Red. masses --      1.0626                 5.1791                 4.1734
 Frc consts  --      0.3668                 2.0354                 1.8139
 IR Inten    --      2.1940                 8.8370                20.8132

                     16                     17                     18
                      A                      A                      A
 Frequencies --    889.5316               894.1073               925.2325
 Red. masses --      1.9278                 1.5364                 3.3373
 Frc consts  --      0.8987                 0.7237                 1.6833
 IR Inten    --      2.4915                12.6615                20.3932

                     19                     20                     21
                      A                      A                      A
 Frequencies --    938.0916               951.3701               976.2475
 Red. masses --      3.9280                 1.3047                 2.5863
 Frc consts  --      2.0366                 0.6957                 1.4522
 IR Inten    --      9.5388                 0.8213                41.4820

                     22                     23                     24
                      A                      A                      A
 Frequencies --   1000.5472              1025.2541              1062.3816
 Red. masses --      2.3428                 2.2668                 1.8368
 Frc consts  --      1.3819                 1.4038                 1.2214
 IR Inten    --     55.7993                89.7446                38.5483

                     25                     26                     27
                      A                      A                      A
 Frequencies --   1067.1062              1107.5165              1138.0372
 Red. masses --      1.4165                 1.3360                 5.8498
 Frc consts  --      0.9503                 0.9655                 4.4638
 IR Inten    --      1.1839                61.3019               172.9510

                     28                     29                     30
                      A                      A                      A
 Frequencies --   1177.2119              1192.6189              1217.6043
 Red. masses --      1.3045                 1.2743                 1.4945
 Frc consts  --      1.0652                 1.0678                 1.3055
 IR Inten    --      5.2189                 0.2492                20.2967

                     31                     32                     33
                      A                      A                      A
 Frequencies --   1246.3581              1304.8785              1348.0045
 Red. masses --      1.7076                 2.2451                 1.7072
 Frc consts  --      1.5628                 2.2523                 1.8278
 IR Inten    --     12.7483                13.3275                35.9670

                     34                     35                     36
                      A                      A                      A
 Frequencies --   1400.4093              1409.1050              1449.3811
 Red. masses --      2.0211                 1.3005                 1.0894
 Frc consts  --      2.3354                 1.5214                 1.3483
 IR Inten    --      1.3959                23.5854                 1.4520

                     37                     38                     39
                      A                      A                      A
 Frequencies --   1471.0574              1485.1925              1489.2903
 Red. masses --      1.1578                 1.0527                 1.5024
 Frc consts  --      1.4762                 1.3680                 1.9634
 IR Inten    --      2.9855                 4.6155                 3.6096

                     40                     41                     42
                      A                      A                      A
 Frequencies --   1512.9291              1675.1686              3010.9081
 Red. masses --      1.0489                 6.7841                 1.0361
 Frc consts  --      1.4146                11.2166                 5.5343
 IR Inten    --      9.6101                11.1295                45.6200

                     43                     44                     45
                      A                      A                      A
 Frequencies --   3024.6858              3073.8031              3125.5300
 Red. masses --      1.0845                 1.1003                 1.1007
 Frc consts  --      5.8457                 6.1251                 6.3354
 IR Inten    --     50.2702                33.0613                29.2940

                     46                     47                     48
                      A                      A                      A
 Frequencies --   3131.6475              3134.4225              3210.5674
 Red. masses --      1.0507                 1.0576                 1.0870
 Frc consts  --      6.0714                 6.1217                 6.6015
 IR Inten    --     13.1852                 7.4818                 1.9550

                     49                     50                     51
                      A                      A                      A
 Frequencies --   3217.8079              3232.5749              3236.8939
 Red. masses --      1.1185                 1.1156                 1.1064
 Frc consts  --      6.8237                 6.8685                 6.8299
 IR Inten    --      0.3843                 7.4670                 6.0595

 - Thermochemistry -
 -------------------
 Temperature   298.150 Kelvin.  Pressure   1.00000 Atm.
 Atom     1 has atomic number  6 and mass  12.00000

 Molecular mass:   126.06808 amu.
 Principal axes and moments of inertia in atomic units:
                           1         2         3
     Eigenvalues --   548.759621437.032611572.34960
           X            0.99991  -0.00290   0.01327
           Y            0.00360   0.99859  -0.05295
           Z           -0.01310   0.05299   0.99851
 This molecule is an asymmetric top.
 Rotational symmetry number  1.
 Warning -- assumption of classical behavior for rotation
           may cause significant error
 Rotational temperatures (Kelvin)      0.15784     0.06027     0.05509
 Rotational constants (GHZ):           3.28876     1.25588     1.14780
 Zero-point vibrational energy     415702.5 (Joules/Mol)
                                   99.35528 (Kcal/Mol)
 Warning -- explicit consideration of  10 degrees of freedom as
           vibrations may cause significant error
 Vibrational temperatures:     89.61   155.06   235.02   290.43   386.15
          (Kelvin)            406.35   519.96   607.81   723.80   798.20
                              909.41  1072.82  1101.34  1175.07  1235.76
                             1279.84  1286.42  1331.20  1349.70  1368.81
                             1404.60  1439.56  1475.11  1528.53  1535.33
                             1593.47  1637.38  1693.74  1715.91  1751.86
                             1793.23  1877.43  1939.48  2014.87  2027.39
                             2085.33  2116.52  2136.86  2142.75  2176.76
                             2410.19  4332.02  4351.84  4422.51  4496.93
                             4505.74  4509.73  4619.28  4629.70  4650.95
                             4657.16

 Zero-point correction=                           0.158333 (Hartree/Particle)
 Thermal correction to Energy=                    0.166881
 Thermal correction to Enthalpy=                  0.167825
 Thermal correction to Gibbs Free Energy=         0.124875
 Sum of electronic and zero-point Energies=           -423.007977
 Sum of electronic and thermal Energies=              -422.999429
 Sum of electronic and thermal Enthalpies=            -422.998485
 Sum of electronic and thermal Free Energies=         -423.041435

                     E (Thermal)             CV                S
                      KCal/Mol        Cal/Mol-Kelvin    Cal/Mol-Kelvin
 Total                  104.719             32.357             90.396
 Electronic               0.000              0.000              0.000
 Translational            0.889              2.981             40.409
 Rotational               0.889              2.981             28.607
 Vibrational            102.942             26.395             21.380
 Vibration     1          0.597              1.972              4.383
 Vibration     2          0.606              1.943              3.309
 Vibration     3          0.623              1.887              2.511
 Vibration     4          0.639              1.837              2.116
 Vibration     5          0.673              1.731              1.607
 Vibration     6          0.681              1.706              1.519
 Vibration     7          0.736              1.552              1.116
 Vibration     8          0.785              1.421              0.884
 Vibration     9          0.858              1.243              0.651
 Vibration    10          0.910              1.129              0.534

 Optimization completed.
    -- Stationary point found.
 Normal termination of Gaussian 09 at Tue Jan 28 14:12:58 2020.
