 Gaussian 09, Revision D.01,
 Gaussian 09:  ES64L-G09RevD.01 24-Apr-2013

 -----------------------------
 # b3lyp 6-31G(2df,p) opt Freq
 -----------------------------

 -----
 titel
 -----
 Symbolic Z-matrix:
 Charge =  0 Multiplicity = 1

 SCF Done:  E(RB3LYP) =  -423.110988824     A.U. after   14 cycles
 Optimization completed.
    -- Stationary point found.
 Normal termination of Gaussian 09 at Tue Jan 28 14:12:53 2020.

 ----------------------------------------------------------------------
 #N Geom=AllCheck Guess=TCheck SCRF=Check GenChk RB3LYP/6-31G(2df,p) Fr
 eq
 ----------------------------------------------------------------------

 Structure from the checkpoint file:  "/scratch/puck/g09_9aab2547-4ef5-40c4-9e57-bdb2f44f3723/Gau-44170.chk"
 -----
 titel
 -----
 Charge =  0 Multiplicity = 1

                         Standard orientation:
 ---------------------------------------------------------------------
 Center     Atomic      Atomic             Coordinates (Angstroms)
 Number     Number       Type             X           Y           Z
 ---------------------------------------------------------------------
      1          8           0        3.479852    0.031177    0.044749
      2          6           0        2.142997    0.127948   -0.420565
      3          6           0        1.119043   -0.086363    0.702024
      4          6           0       -0.296484    0.024183    0.220237
      5          6           0       -0.935517    1.319627   -0.365565
      6          6           0       -2.271486    0.646375   -0.063605
      7          6           0       -2.003249   -0.850414   -0.298240
      8          8           0       -0.667827   -0.990566   -0.774263
      9          6           0       -1.642715   -0.240537    1.008987
     10          1           0        3.632452   -0.881485    0.309546
     11          1           0        2.044750    1.139118   -0.828928
     12          1           0        1.945089   -0.576252   -1.240560
     13          1           0        1.264129   -1.081849    1.141905
     14          1           0        1.293560    0.649276    1.495497
     15          1           0       -0.765190    2.180695    0.286202
     16          1           0       -0.682727    1.563086   -1.402469
     17          1           0       -3.266630    1.071617   -0.078159
     18          1           0       -2.747545   -1.580612   -0.586239
     19          1           0       -1.889612   -0.453395    2.039685
 ---------------------------------------------------------------------

 SCF Done:  E(RB3LYP) =  -423.110988824     A.U. after    1 cycles

 The electronic state is 1-A.
 Alpha  occ. eigenvalues --  -19.13340 -19.13244 -10.24832 -10.23857 -10.22527
 Alpha  occ. eigenvalues --  -10.19638 -10.19258 -10.18675 -10.18564  -1.05894
 Alpha  occ. eigenvalues --   -1.01323  -0.85565  -0.78052  -0.70866  -0.65596
 Alpha  occ. eigenvalues --   -0.60892  -0.56363  -0.53926  -0.51183  -0.49847
 Alpha  occ. eigenvalues --   -0.46457  -0.45776  -0.43354  -0.42176  -0.40681
 Alpha  occ. eigenvalues --   -0.38741  -0.36786  -0.35063  -0.33047  -0.32303
 Alpha  occ. eigenvalues --   -0.29644  -0.26527  -0.25977  -0.23138
 Alpha virt. eigenvalues --    0.07357   0.07878   0.10233   0.11443   0.12971
 Alpha virt. eigenvalues --    0.13259   0.13816   0.14832   0.15769   0.16837
 Alpha virt. eigenvalues --    0.17202   0.17956   0.19334   0.20126   0.21516

 Mulliken charges:
               1
     1  O   -0.417807
     2  C   -0.064999
     3  C   -0.352371
     4  C    0.441884
     5  C   -0.265361
     6  C   -0.123491
     7  C    0.104622
     8  O   -0.335007
     9  C   -0.213304
    10  H    0.281826
    11  H    0.116135
    12  H    0.114623
    13  H    0.099816
    14  H    0.111762
    15  H    0.104096
    16  H    0.100246
    17  H    0.092079
    18  H    0.107413
    19  H    0.097836
 Sum of Mulliken charges =   0.00000

 Dipole moment (field-independent basis, Debye):
    X=             -1.5224    Y=             -0.3294    Z=              1.2652  Tot=              2.0067
 Quadrupole moment (field-independent basis, Debye-Ang):
   XX=            -54.1331   YY=            -51.7718   ZZ=            -53.3758
   XY=             -4.0929   XZ=              0.1473   YZ=             -1.6769

  Exact polarizability:  87.413  -0.008  70.132   1.152  -1.851  65.434
 Approx polarizability: 112.230  -0.529 108.966   2.383   0.157 103.359

                      1                      2                      3
                      A                      A                      A
 Frequencies --     78.6654                99.5262               126.6774
 Red. masses --      4.1427                 1.9025                 4.3186
 Frc consts  --      0.0151                 0.0111                 0.0408
 IR Inten    --      1.9541                 4.9679                 0.1729

                      4                      5                      6
                      A                      A                      A
 Frequencies --    296.9770               315.4573               326.7480
 Red. masses --      1.2921                 2.2280                 3.0185
 Frc consts  --      0.0671                 0.1306                 0.1899
 IR Inten    --     74.2031                15.8078                 3.0030

                      7                      8                      9
                      A                      A                      A
 Frequencies --    357.0812               458.9341               551.9285
 Red. masses --      4.3778                 1.9806                 4.7073
 Frc consts  --      0.3289                 0.2458                 0.8449
 IR Inten    --     26.7766                 5.4306                 4.4102

                     10                     11                     12
                      A                      A                      A
 Frequencies --    707.2352               754.4671               765.5248
 Red. masses --      3.6639                 2.4785                 1.3963
 Frc consts  --      1.0798                 0.8312                 0.4821
 IR Inten    --      2.8493                 2.5614                 2.5172

                     13                     14                     15
                      A                      A                      A
 Frequencies --    783.3416               793.9957               816.4961
 Red. masses --      2.1370                 2.1904                 1.9775
 Frc consts  --      0.7726                 0.8136                 0.7767
 IR Inten    --     11.1118                10.7124                 7.0297

                     16                     17                     18
                      A                      A                      A
 Frequencies --    865.8392               917.0040               934.2616
 Red. masses --      3.0935                 2.2291                 1.5598
 Frc consts  --      1.3664                 1.1044                 0.8022
 IR Inten    --     24.2304                18.7328                16.4647

                     19                     20                     21
                      A                      A                      A
 Frequencies --    963.2857              1000.4233              1013.3484
 Red. masses --      1.7844                 1.6456                 2.4242
 Frc consts  --      0.9756                 0.9704                 1.4667
 IR Inten    --      4.8823                 7.6235                11.1677

                     22                     23                     24
                      A                      A                      A
 Frequencies --   1029.8761              1039.6874              1058.3863
 Red. masses --      1.8309                 2.6295                 2.2340
 Frc consts  --      1.1442                 1.6747                 1.4744
 IR Inten    --      7.3077                13.3803                16.6110

                     25                     26                     27
                      A                      A                      A
 Frequencies --   1069.2501              1074.4204              1109.1117
 Red. masses --      2.4992                 2.7951                 2.1518
 Frc consts  --      1.6835                 1.9010                 1.5595
 IR Inten    --    101.6191                51.4774                 3.6297

                     28                     29                     30
                      A                      A                      A
 Frequencies --   1141.2458              1176.1849              1198.3369
 Red. masses --      1.3799                 1.7504                 1.3440
 Frc consts  --      1.0589                 1.4267                 1.1371
 IR Inten    --      3.0197                 3.4570                 8.7592

                     31                     32                     33
                      A                      A                      A
 Frequencies --   1232.6907              1276.7965              1284.1147
 Red. masses --      1.6996                 1.4217                 1.7961
 Frc consts  --      1.5216                 1.3656                 1.7450
 IR Inten    --      1.9835                 3.7084                 1.8846

                     34                     35                     36
                      A                      A                      A
 Frequencies --   1327.9412              1354.4175              1371.6720
 Red. masses --      1.2420                 2.8349                 2.1740
 Frc consts  --      1.2904                 3.0641                 2.4100
 IR Inten    --     13.9165                15.2650                14.1459

                     37                     38                     39
                      A                      A                      A
 Frequencies --   1407.1456              1423.6834              1475.0989
 Red. masses --      1.4338                 1.3728                 1.1012
 Frc consts  --      1.6727                 1.6394                 1.4118
 IR Inten    --      6.5847                45.0594                 3.4965

                     40                     41                     42
                      A                      A                      A
 Frequencies --   1487.2320              1513.9275              3012.3724
 Red. masses --      1.1381                 1.0900                 1.0646
 Frc consts  --      1.4831                 1.4720                 5.6918
 IR Inten    --      1.2849                 0.7164                22.3009

                     43                     44                     45
                      A                      A                      A
 Frequencies --   3023.7329              3046.1019              3066.4740
 Red. masses --      1.0638                 1.0574                 1.0937
 Frc consts  --      5.7305                 5.7805                 6.0593
 IR Inten    --     29.6584                33.8769                 5.1257

                     46                     47                     48
                      A                      A                      A
 Frequencies --   3087.5554              3109.4672              3199.7311
 Red. masses --      1.1027                 1.1074                 1.0910
 Frc consts  --      6.1935                 6.3083                 6.5814
 IR Inten    --     41.4377                22.7553                13.7005

                     49                     50                     51
                      A                      A                      A
 Frequencies --   3204.1018              3220.2846              3816.8764
 Red. masses --      1.0909                 1.1042                 1.0662
 Frc consts  --      6.5986                 6.7467                 9.1515
 IR Inten    --     10.5500                19.1145                18.5845

 - Thermochemistry -
 -------------------
 Temperature   298.150 Kelvin.  Pressure   1.00000 Atm.
 Atom     1 has atomic number  8 and mass  15.99491

 Molecular mass:   126.06808 amu.
 Principal axes and moments of inertia in atomic units:
                           1         2         3
     Eigenvalues --   400.222151850.001951925.86529
           X            0.99996  -0.00883  -0.00103
           Y            0.00866   0.99365  -0.11221
           Z            0.00201   0.11220   0.99368
 This molecule is an asymmetric top.
 Rotational symmetry number  1.
 Rotational temperatures (Kelvin)      0.21641     0.04682     0.04497
 Rotational constants (GHZ):           4.50935     0.97553     0.93711
 Zero-point vibrational energy     417288.2 (Joules/Mol)
                                   99.73427 (Kcal/Mol)
 Warning -- explicit consideration of   9 degrees of freedom as
           vibrations may cause significant error
 Vibrational temperatures:    113.18   143.20   182.26   427.28   453.87
          (Kelvin)            470.12   513.76   660.30   794.10  1017.55
                             1085.51  1101.42  1127.05  1142.38  1174.75
                             1245.75  1319.36  1344.19  1385.95  1439.38
                             1457.98  1481.76  1495.88  1522.78  1538.41
                             1545.85  1595.76  1642.00  1692.27  1724.14
                             1773.56  1837.02  1847.55  1910.61  1948.70
                             1973.53  2024.57  2048.36  2122.34  2139.79
                             2178.20  4334.13  4350.47  4382.66  4411.97
                             4442.30  4473.82  4603.69  4609.98  4633.27
                             5491.63

 Zero-point correction=                           0.158937 (Hartree/Particle)
 Thermal correction to Energy=                    0.167105
 Thermal correction to Enthalpy=                  0.168049
 Thermal correction to Gibbs Free Energy=         0.125787
 Sum of electronic and zero-point Energies=           -422.952052
 Sum of electronic and thermal Energies=              -422.943884
 Sum of electronic and thermal Enthalpies=            -422.942940
 Sum of electronic and thermal Free Energies=         -422.985202

                     E (Thermal)             CV                S
                      KCal/Mol        Cal/Mol-Kelvin    Cal/Mol-Kelvin
 Total                  104.860             31.503             88.947
 Electronic               0.000              0.000              0.000
 Translational            0.889              2.981             40.409
 Rotational               0.889              2.981             28.746
 Vibrational            103.082             25.541             19.793
 Vibration     1          0.600              1.964              3.924
 Vibration     2          0.604              1.949              3.464
 Vibration     3          0.611              1.926              2.996
 Vibration     4          0.691              1.679              1.434
 Vibration     5          0.703              1.644              1.334
 Vibration     6          0.710              1.622              1.276
 Vibration     7          0.732              1.561              1.135
 Vibration     8          0.817              1.341              0.769
 Vibration     9          0.907              1.135              0.540

 Normal termination of Gaussian 09 at Tue Jan 28 14:58:50 2020.
