 Gaussian 09, Revision D.01,
 Gaussian 09:  ES64L-G09RevD.01 24-Apr-2013

 -----------------------------
 # b3lyp 6-31G(2df,p) opt Freq
 -----------------------------

 -----
 titel
 -----
 Symbolic Z-matrix:
 Charge =  0 Multiplicity = 1

 SCF Done:  E(RB3LYP) =  -423.142001912     A.U. after   13 cycles
 Optimization completed.
    -- Stationary point found.
 Normal termination of Gaussian 09 at Tue Jan 28 09:47:47 2020.

 ----------------------------------------------------------------------
 #N Geom=AllCheck Guess=TCheck SCRF=Check GenChk RB3LYP/6-31G(2df,p) Fr
 eq
 ----------------------------------------------------------------------

 Structure from the checkpoint file:  "/scratch/puck/g09_2949e68d-ba4a-4711-8331-95313686e165/Gau-96353.chk"
 -----
 titel
 -----
 Charge =  0 Multiplicity = 1

                         Standard orientation:
 ---------------------------------------------------------------------
 Center     Atomic      Atomic             Coordinates (Angstroms)
 Number     Number       Type             X           Y           Z
 ---------------------------------------------------------------------
      1          8           0        2.727456   -0.780366    0.055111
      2          6           0        1.885225    0.153701   -0.604560
      3          6           0        0.494980    0.197047   -0.022874
      4          6           0        0.181970    1.140523    1.133213
      5          6           0       -0.449744    1.357295   -0.218966
      6          8           0       -1.750456    0.882205   -0.461047
      7          6           0       -1.744845   -0.525647   -0.539642
      8          6           0       -1.534668   -1.318777    0.722353
      9          6           0       -0.367247   -1.038796   -0.205928
     10          1           0        2.705579   -0.571495    0.995259
     11          1           0        2.321473    1.165570   -0.594232
     12          1           0        1.849614   -0.174856   -1.649613
     13          1           0       -0.433039    0.809155    1.960328
     14          1           0        0.963085    1.842305    1.413409
     15          1           0       -0.212973    2.247048   -0.794047
     16          1           0       -2.374278   -0.903502   -1.338100
     17          1           0       -1.607184   -0.817130    1.679275
     18          1           0       -1.912286   -2.336334    0.725989
     19          1           0        0.089975   -1.867540   -0.732359
 ---------------------------------------------------------------------

 SCF Done:  E(RB3LYP) =  -423.142001912     A.U. after    1 cycles

 The electronic state is 1-A.
 Alpha  occ. eigenvalues --  -19.14903 -19.13545 -10.23748 -10.23480 -10.23221
 Alpha  occ. eigenvalues --  -10.20256 -10.19590 -10.19050 -10.18718  -1.05264
 Alpha  occ. eigenvalues --   -1.01675  -0.86343  -0.83929  -0.70324  -0.63854
 Alpha  occ. eigenvalues --   -0.62696  -0.57732  -0.55775  -0.53205  -0.49736
 Alpha  occ. eigenvalues --   -0.46199  -0.45474  -0.45069  -0.42594  -0.42090
 Alpha  occ. eigenvalues --   -0.38580  -0.37653  -0.35473  -0.34173  -0.31017
 Alpha  occ. eigenvalues --   -0.29765  -0.26957  -0.25848  -0.23523
 Alpha virt. eigenvalues --    0.07544   0.08634   0.09305   0.10789   0.12013
 Alpha virt. eigenvalues --    0.12800   0.13812   0.15630   0.16631   0.17380
 Alpha virt. eigenvalues --    0.18174   0.19329   0.20237   0.21966   0.22141

 Mulliken charges:
               1
     1  O   -0.414095
     2  C   -0.159315
     3  C    0.282543
     4  C   -0.389102
     5  C    0.055236
     6  O   -0.261299
     7  C    0.105209
     8  C   -0.336639
     9  C   -0.132517
    10  H    0.283279
    11  H    0.084086
    12  H    0.112794
    13  H    0.121669
    14  H    0.110021
    15  H    0.101500
    16  H    0.100516
    17  H    0.119368
    18  H    0.114904
    19  H    0.101842
 Sum of Mulliken charges =   0.00000

 Dipole moment (field-independent basis, Debye):
    X=              0.2158    Y=              0.1352    Z=              0.6992  Tot=              0.7441
 Quadrupole moment (field-independent basis, Debye-Ang):
   XX=            -59.3703   YY=            -52.5348   ZZ=            -49.9987
   XY=              6.9823   XZ=              2.0360   YZ=              0.5046

  Exact polarizability:  77.826   5.587  74.830   0.419   0.581  68.771
 Approx polarizability: 108.752   0.727 110.404   2.335   0.157 106.090

                      1                      2                      3
                      A                      A                      A
 Frequencies --     88.3468               136.2831               253.0708
 Red. masses --      3.6238                 4.0252                 2.6040
 Frc consts  --      0.0167                 0.0440                 0.0983
 IR Inten    --      4.0876                 1.2643                 8.3681

                      4                      5                      6
                      A                      A                      A
 Frequencies --    270.6071               308.7002               356.4754
 Red. masses --      3.1366                 1.4599                 2.2931
 Frc consts  --      0.1353                 0.0820                 0.1717
 IR Inten    --      1.2946                58.3677                20.8590

                      7                      8                      9
                      A                      A                      A
 Frequencies --    394.9726               483.4257               489.8654
 Red. masses --      2.5392                 2.2166                 2.4670
 Frc consts  --      0.2334                 0.3052                 0.3488
 IR Inten    --     34.9547                 4.3230                 1.2785

                     10                     11                     12
                      A                      A                      A
 Frequencies --    656.7202               708.6341               724.1794
 Red. masses --      3.5766                 2.6816                 4.7483
 Frc consts  --      0.9088                 0.7934                 1.4672
 IR Inten    --      8.0669                10.3325                 2.8395

                     13                     14                     15
                      A                      A                      A
 Frequencies --    785.3627               817.8226               832.9080
 Red. masses --      1.5709                 2.6561                 2.0310
 Frc consts  --      0.5709                 1.0467                 0.8302
 IR Inten    --     17.5170                 3.8940                 7.5161

                     16                     17                     18
                      A                      A                      A
 Frequencies --    909.2132               926.9817               966.1141
 Red. masses --      2.4860                 1.5114                 2.0458
 Frc consts  --      1.2108                 0.7652                 1.1250
 IR Inten    --      6.0115                15.3366                21.2384

                     19                     20                     21
                      A                      A                      A
 Frequencies --    978.8939               988.6173              1005.4625
 Red. masses --      2.6253                 1.8805                 1.9137
 Frc consts  --      1.4822                 1.0829                 1.1399
 IR Inten    --      4.9678                 7.4678                29.3216

                     22                     23                     24
                      A                      A                      A
 Frequencies --   1017.7964              1043.4905              1064.0481
 Red. masses --      1.4887                 1.5765                 3.2020
 Frc consts  --      0.9086                 1.0114                 2.1360
 IR Inten    --      4.2566                 1.5066                66.8538

                     25                     26                     27
                      A                      A                      A
 Frequencies --   1067.1716              1088.9284              1106.0348
 Red. masses --      1.5873                 1.3520                 1.7920
 Frc consts  --      1.0651                 0.9446                 1.2916
 IR Inten    --     42.2262                 2.3522                 1.0584

                     28                     29                     30
                      A                      A                      A
 Frequencies --   1115.2745              1170.2764              1200.1359
 Red. masses --      1.6721                 2.9138                 1.4365
 Frc consts  --      1.2254                 2.3512                 1.2190
 IR Inten    --      1.0873                79.2581                 9.3848

                     31                     32                     33
                      A                      A                      A
 Frequencies --   1208.1990              1243.3131              1287.1621
 Red. masses --      1.9224                 2.0466                 1.3867
 Frc consts  --      1.6534                 1.8640                 1.3537
 IR Inten    --     25.7986                 0.6136                 7.2881

                     34                     35                     36
                      A                      A                      A
 Frequencies --   1327.1336              1373.4420              1382.2539
 Red. masses --      1.7235                 1.7883                 1.3501
 Frc consts  --      1.7885                 1.9876                 1.5198
 IR Inten    --     11.1451                 8.4553                 6.6299

                     37                     38                     39
                      A                      A                      A
 Frequencies --   1401.5393              1427.1226              1467.6339
 Red. masses --      1.6074                 1.3360                 1.4573
 Frc consts  --      1.8603                 1.6032                 1.8494
 IR Inten    --      1.9635                74.5788                 6.8392

                     40                     41                     42
                      A                      A                      A
 Frequencies --   1492.9400              1506.8072              2972.6457
 Red. masses --      1.1871                 1.0989                 1.0703
 Frc consts  --      1.5589                 1.4700                 5.5722
 IR Inten    --     10.8874                 1.9517                57.2233

                     43                     44                     45
                      A                      A                      A
 Frequencies --   3060.7477              3125.5452              3137.8389
 Red. masses --      1.0924                 1.0570                 1.0559
 Frc consts  --      6.0298                 6.0840                 6.1256
 IR Inten    --     28.7387                10.3695                12.4071

                     46                     47                     48
                      A                      A                      A
 Frequencies --   3156.7263              3167.5176              3187.7694
 Red. masses --      1.0906                 1.0914                 1.0927
 Frc consts  --      6.4029                 6.4519                 6.5423
 IR Inten    --     25.1812                22.1258                 5.6619

                     49                     50                     51
                      A                      A                      A
 Frequencies --   3220.3785              3228.5294              3805.4025
 Red. masses --      1.1143                 1.1117                 1.0659
 Frc consts  --      6.8086                 6.8271                 9.0945
 IR Inten    --     11.1859                 7.0354                13.3112

 - Thermochemistry -
 -------------------
 Temperature   298.150 Kelvin.  Pressure   1.00000 Atm.
 Atom     1 has atomic number  8 and mass  15.99491

 Molecular mass:   126.06808 amu.
 Principal axes and moments of inertia in atomic units:
                           1         2         3
     Eigenvalues --   603.963551296.548771540.68857
           X            0.99878   0.04886  -0.00716
           Y           -0.04876   0.99873   0.01244
           Z            0.00776  -0.01207   0.99990
 This molecule is an asymmetric top.
 Rotational symmetry number  1.
 Warning -- assumption of classical behavior for rotation
           may cause significant error
 Rotational temperatures (Kelvin)      0.14341     0.06680     0.05622
 Rotational constants (GHZ):           2.98816     1.39196     1.17139
 Zero-point vibrational energy     419509.2 (Joules/Mol)
                                  100.26510 (Kcal/Mol)
 Warning -- explicit consideration of   9 degrees of freedom as
           vibrations may cause significant error
 Vibrational temperatures:    127.11   196.08   364.11   389.34   444.15
          (Kelvin)            512.89   568.28   695.54   704.81   944.87
                             1019.57  1041.93  1129.96  1176.66  1198.37
                             1308.15  1333.72  1390.02  1408.41  1422.40
                             1446.63  1464.38  1501.35  1530.93  1535.42
                             1566.72  1591.34  1604.63  1683.76  1726.73
                             1738.33  1788.85  1851.94  1909.45  1976.07
                             1988.75  2016.50  2053.31  2111.60  2148.00
                             2167.96  4276.97  4403.73  4496.96  4514.64
                             4541.82  4557.35  4586.48  4633.40  4645.13
                             5475.12

 Zero-point correction=                           0.159783 (Hartree/Particle)
 Thermal correction to Energy=                    0.167683
 Thermal correction to Enthalpy=                  0.168627
 Thermal correction to Gibbs Free Energy=         0.127422
 Sum of electronic and zero-point Energies=           -422.982219
 Sum of electronic and thermal Energies=              -422.974319
 Sum of electronic and thermal Enthalpies=            -422.973374
 Sum of electronic and thermal Free Energies=         -423.014580

                     E (Thermal)             CV                S
                      KCal/Mol        Cal/Mol-Kelvin    Cal/Mol-Kelvin
 Total                  105.223             31.421             86.724
 Electronic               0.000              0.000              0.000
 Translational            0.889              2.981             40.409
 Rotational               0.889              2.981             28.580
 Vibrational            103.445             25.460             17.736
 Vibration     1          0.601              1.957              3.696
 Vibration     2          0.614              1.917              2.855
 Vibration     3          0.664              1.758              1.709
 Vibration     4          0.674              1.727              1.592
 Vibration     5          0.698              1.657              1.369
 Vibration     6          0.732              1.562              1.137
 Vibration     7          0.762              1.481              0.981
 Vibration     8          0.840              1.287              0.701
 Vibration     9          0.846              1.273              0.684

 Optimization completed.
    -- Stationary point found.
 Normal termination of Gaussian 09 at Tue Jan 28 10:32:47 2020.
