 Gaussian 09, Revision D.01,
 Gaussian 09:  ES64L-G09RevD.01 24-Apr-2013

 -----------------------------
 # b3lyp 6-31G(2df,p) opt Freq
 -----------------------------

 -----
 titel
 -----
 Symbolic Z-matrix:
 Charge =  0 Multiplicity = 1

 SCF Done:  E(RB3LYP) =  -423.208418035     A.U. after   14 cycles
 Optimization completed.
    -- Stationary point found.
 Normal termination of Gaussian 09 at Tue Jan 28 08:10:36 2020.

 ----------------------------------------------------------------------
 #N Geom=AllCheck Guess=TCheck SCRF=Check GenChk RB3LYP/6-31G(2df,p) Fr
 eq
 ----------------------------------------------------------------------

 Structure from the checkpoint file:  "/scratch/puck/g09_a82a5a0a-90e2-4c95-b5d4-c21d8bf2aed7/Gau-126939.chk"
 -----
 titel
 -----
 Charge =  0 Multiplicity = 1

                         Standard orientation:
 ---------------------------------------------------------------------
 Center     Atomic      Atomic             Coordinates (Angstroms)
 Number     Number       Type             X           Y           Z
 ---------------------------------------------------------------------
      1          6           0       -0.060456    2.278127    0.469369
      2          6           0        0.310905    1.034972   -0.340841
      3          8           0        1.658313    0.741112    0.002529
      4          6           0        2.096616   -0.542035   -0.401579
      5          6           0        1.328776   -1.631545    0.350777
      6          6           0       -0.138332   -1.344654    0.270966
      7          6           0       -0.613464   -0.141037   -0.079230
      8          6           0       -2.075018    0.032018   -0.269223
      9          8           0       -2.910730   -0.803042   -0.004460
     10          1           0       -1.046093    2.660090    0.191189
     11          1           0       -0.061075    2.045049    1.537702
     12          1           0        0.677989    3.062460    0.284365
     13          1           0        0.260404    1.288003   -1.417114
     14          1           0        1.962040   -0.674860   -1.487424
     15          1           0        3.167820   -0.581279   -0.186819
     16          1           0        1.547153   -2.621245   -0.069434
     17          1           0        1.651244   -1.665695    1.400687
     18          1           0       -0.852274   -2.141174    0.464413
     19          1           0       -2.382028    1.009012   -0.703558
 ---------------------------------------------------------------------

 SCF Done:  E(RB3LYP) =  -423.208418035     A.U. after    1 cycles

 The electronic state is 1-A.
 Alpha  occ. eigenvalues --  -19.14631 -19.13306 -10.26799 -10.24721 -10.23691
 Alpha  occ. eigenvalues --  -10.20647 -10.19934 -10.19548 -10.18317  -1.04341
 Alpha  occ. eigenvalues --   -1.03858  -0.82159  -0.79639  -0.71604  -0.66829
 Alpha  occ. eigenvalues --   -0.62513  -0.59732  -0.52794  -0.50760  -0.49662
 Alpha  occ. eigenvalues --   -0.46487  -0.45225  -0.42898  -0.41411  -0.40880
 Alpha  occ. eigenvalues --   -0.39808  -0.39694  -0.37929  -0.36542  -0.36106
 Alpha  occ. eigenvalues --   -0.31427  -0.26664  -0.26067  -0.24851
 Alpha virt. eigenvalues --   -0.05824   0.05858   0.09105   0.09968   0.11745
 Alpha virt. eigenvalues --    0.13043   0.13719   0.14804   0.16018   0.16297
 Alpha virt. eigenvalues --    0.16910   0.18790   0.20045   0.20855   0.21447

 Mulliken charges:
               1
     1  C   -0.402196
     2  C    0.037945
     3  O   -0.259913
     4  C   -0.084045
     5  C   -0.265543
     6  C   -0.117800
     7  C    0.159946
     8  C    0.095640
     9  O   -0.268889
    10  H    0.120262
    11  H    0.129368
    12  H    0.131251
    13  H    0.078059
    14  H    0.094396
    15  H    0.111475
    16  H    0.114410
    17  H    0.129568
    18  H    0.125435
    19  H    0.070629
 Sum of Mulliken charges =   0.00000

 Dipole moment (field-independent basis, Debye):
    X=              2.2285    Y=              0.1619    Z=             -0.5920  Tot=              2.3114
 Quadrupole moment (field-independent basis, Debye-Ang):
   XX=            -62.0293   YY=            -50.7786   ZZ=            -52.3630
   XY=             -7.6668   XZ=              0.3576   YZ=             -0.8154

  Exact polarizability:  93.355  -8.892  89.227   2.233  -5.666  58.113
 Approx polarizability: 134.951 -11.598 132.300   5.976 -12.221  91.264

                      1                      2                      3
                      A                      A                      A
 Frequencies --     76.6478               115.7129               206.2013
 Red. masses --      3.4077                 3.3326                 2.2472
 Frc consts  --      0.0118                 0.0263                 0.0563
 IR Inten    --      3.2023                 4.9744                 3.4641

                      4                      5                      6
                      A                      A                      A
 Frequencies --    218.7992               232.0463               285.6014
 Red. masses --      1.4240                 2.5423                 2.3101
 Frc consts  --      0.0402                 0.0807                 0.1110
 IR Inten    --      0.7725                 6.3685                 1.9518

                      7                      8                      9
                      A                      A                      A
 Frequencies --    305.6227               362.6840               435.4280
 Red. masses --      1.8979                 3.7356                 4.2278
 Frc consts  --      0.1044                 0.2895                 0.4723
 IR Inten    --      1.9458                 2.2805                 1.3787

                     10                     11                     12
                      A                      A                      A
 Frequencies --    490.2369               528.0746               627.7748
 Red. masses --      5.0713                 3.8560                 2.7852
 Frc consts  --      0.7181                 0.6335                 0.6467
 IR Inten    --      2.2701                 2.2160                 2.9106

                     13                     14                     15
                      A                      A                      A
 Frequencies --    695.6158               800.5404               869.0282
 Red. masses --      2.2821                 3.3278                 1.7370
 Frc consts  --      0.6506                 1.2565                 0.7729
 IR Inten    --     32.9025                22.0960                 4.2560

                     16                     17                     18
                      A                      A                      A
 Frequencies --    880.3739               893.7389               949.1135
 Red. masses --      2.0238                 1.7990                 2.0221
 Frc consts  --      0.9242                 0.8466                 1.0732
 IR Inten    --      7.0662                 8.4723                12.1065

                     19                     20                     21
                      A                      A                      A
 Frequencies --   1027.2365              1043.0321              1055.0140
 Red. masses --      1.5910                 1.8095                 2.1704
 Frc consts  --      0.9891                 1.1599                 1.4234
 IR Inten    --     11.9817                15.9255                 3.0391

                     22                     23                     24
                      A                      A                      A
 Frequencies --   1078.9595              1096.6096              1132.6619
 Red. masses --      2.0288                 1.9532                 6.0696
 Frc consts  --      1.3916                 1.3839                 4.5879
 IR Inten    --      0.1530                 7.1587                49.9582

                     25                     26                     27
                      A                      A                      A
 Frequencies --   1141.7957              1175.2351              1230.6818
 Red. masses --      2.0633                 2.6619                 1.3021
 Frc consts  --      1.5849                 2.1661                 1.1620
 IR Inten    --      2.2192                79.3078                10.7285

                     28                     29                     30
                      A                      A                      A
 Frequencies --   1295.4192              1321.1914              1348.8457
 Red. masses --      1.2778                 1.2936                 1.4234
 Frc consts  --      1.2634                 1.3304                 1.5258
 IR Inten    --     29.4517                 3.4892                 9.9218

                     31                     32                     33
                      A                      A                      A
 Frequencies --   1362.5843              1369.6861              1408.2376
 Red. masses --      1.4727                 1.6416                 1.2788
 Frc consts  --      1.6110                 1.8146                 1.4942
 IR Inten    --      1.8496                 9.7645                 7.8846

                     34                     35                     36
                      A                      A                      A
 Frequencies --   1410.7078              1449.1252              1458.4564
 Red. masses --      1.3158                 1.2714                 1.0945
 Frc consts  --      1.5428                 1.5731                 1.3717
 IR Inten    --     10.6736                 9.8008                 7.5396

                     37                     38                     39
                      A                      A                      A
 Frequencies --   1485.7559              1497.0812              1502.8051
 Red. masses --      1.0530                 1.0626                 1.0913
 Frc consts  --      1.3696                 1.4031                 1.4522
 IR Inten    --      3.0738                 0.5369                 2.5632

                     40                     41                     42
                      A                      A                      A
 Frequencies --   1681.3899              1795.9469              2882.7583
 Red. masses --      8.1030                 9.4376                 1.0810
 Frc consts  --     13.4969                17.9349                 5.2930
 IR Inten    --    141.5749               121.1815               112.1473

                     43                     44                     45
                      A                      A                      A
 Frequencies --   2917.6457              2976.1016              3016.2807
 Red. masses --      1.0806                 1.0709                 1.0626
 Frc consts  --      5.4198                 5.5882                 5.6957
 IR Inten    --     59.4839                54.3899                17.5900

                     46                     47                     48
                      A                      A                      A
 Frequencies --   3049.3268              3054.3691              3092.4301
 Red. masses --      1.0343                 1.0970                 1.0937
 Frc consts  --      5.6662                 6.0295                 6.1626
 IR Inten    --     15.7556                24.6306                37.0724

                     49                     50                     51
                      A                      A                      A
 Frequencies --   3128.0015              3128.1220              3171.4987
 Red. masses --      1.1026                 1.1019                 1.0894
 Frc consts  --      6.3564                 6.3529                 6.4558
 IR Inten    --     18.6841                16.0726                 2.0354

 - Thermochemistry -
 -------------------
 Temperature   298.150 Kelvin.  Pressure   1.00000 Atm.
 Atom     1 has atomic number  6 and mass  12.00000

 Molecular mass:   126.06808 amu.
 Principal axes and moments of inertia in atomic units:
                           1         2         3
     Eigenvalues --   743.547441277.247961886.78119
           X            0.99735  -0.07279  -0.00153
           Y            0.07279   0.99735  -0.00016
           Z            0.00154   0.00005   1.00000
 This molecule is an asymmetric top.
 Rotational symmetry number  1.
 Warning -- assumption of classical behavior for rotation
           may cause significant error
 Rotational temperatures (Kelvin)      0.11649     0.06781     0.04591
 Rotational constants (GHZ):           2.42720     1.41299     0.95652
 Zero-point vibrational energy     417246.9 (Joules/Mol)
                                   99.72440 (Kcal/Mol)
 Warning -- explicit consideration of  11 degrees of freedom as
           vibrations may cause significant error
 Vibrational temperatures:    110.28   166.48   296.68   314.80   333.86
          (Kelvin)            410.92   439.72   521.82   626.48   705.34
                              759.78   903.23  1000.83  1151.80  1250.34
                             1266.66  1285.89  1365.56  1477.96  1500.69
                             1517.93  1552.38  1577.77  1629.65  1642.79
                             1690.90  1770.67  1863.82  1900.90  1940.69
                             1960.45  1970.67  2026.14  2029.69  2084.97
                             2098.39  2137.67  2153.96  2162.20  2419.14
                             2583.96  4147.64  4197.84  4281.94  4339.75
                             4387.30  4394.55  4449.31  4500.49  4500.66
                             4563.07

 Zero-point correction=                           0.158921 (Hartree/Particle)
 Thermal correction to Energy=                    0.167618
 Thermal correction to Enthalpy=                  0.168562
 Thermal correction to Gibbs Free Energy=         0.125410
 Sum of electronic and zero-point Energies=           -423.049497
 Sum of electronic and thermal Energies=              -423.040800
 Sum of electronic and thermal Enthalpies=            -423.039856
 Sum of electronic and thermal Free Energies=         -423.083008

                     E (Thermal)             CV                S
                      KCal/Mol        Cal/Mol-Kelvin    Cal/Mol-Kelvin
 Total                  105.182             32.358             90.820
 Electronic               0.000              0.000              0.000
 Translational            0.889              2.981             40.409
 Rotational               0.889              2.981             28.973
 Vibrational            103.404             26.396             21.438
 Vibration     1          0.599              1.965              3.975
 Vibration     2          0.608              1.936              3.171
 Vibration     3          0.641              1.831              2.077
 Vibration     4          0.647              1.812              1.969
 Vibration     5          0.653              1.792              1.863
 Vibration     6          0.683              1.700              1.500
 Vibration     7          0.696              1.663              1.386
 Vibration     8          0.737              1.549              1.111
 Vibration     9          0.796              1.393              0.841
 Vibration    10          0.846              1.272              0.683
 Vibration    11          0.883              1.188              0.592

 Normal termination of Gaussian 09 at Tue Jan 28 08:55:08 2020.
