 Gaussian 09, Revision D.01,
 Gaussian 09:  ES64L-G09RevD.01 24-Apr-2013

 -----------------------------
 # b3lyp 6-31G(2df,p) opt Freq
 -----------------------------

 -----
 titel
 -----
 Symbolic Z-matrix:
 Charge =  0 Multiplicity = 1

 SCF Done:  E(RB3LYP) =  -423.138420176     A.U. after   14 cycles
 Optimization completed.
    -- Stationary point found.
 Normal termination of Gaussian 09 at Mon Jan 27 23:37:30 2020.

 ----------------------------------------------------------------------
 #N Geom=AllCheck Guess=TCheck SCRF=Check GenChk RB3LYP/6-31G(2df,p) Fr
 eq
 ----------------------------------------------------------------------

 Structure from the checkpoint file:  "/scratch/puck/g09_db3d6177-ea05-4f36-9fbd-8b38568b15a3/Gau-103773.chk"
 -----
 titel
 -----
 Charge =  0 Multiplicity = 1

                         Standard orientation:
 ---------------------------------------------------------------------
 Center     Atomic      Atomic             Coordinates (Angstroms)
 Number     Number       Type             X           Y           Z
 ---------------------------------------------------------------------
      1          6           0       -2.717563   -0.181531    0.251383
      2          6           0       -1.247363    0.005227    0.003042
      3          6           0       -0.690570    1.344103   -0.548618
      4          6           0        0.636257    1.097838    0.215120
      5          6           0        1.516050    0.020432   -0.460244
      6          8           0        2.752040   -0.019261    0.227855
      7          6           0        0.534907   -1.067682    0.059330
      8          8           0       -0.667934   -1.113126   -0.731104
      9          6           0       -0.080148   -0.038139    1.042362
     10          1           0       -3.262321   -0.197956   -0.699595
     11          1           0       -2.906311   -1.127709    0.767046
     12          1           0       -3.116661    0.636250    0.859509
     13          1           0       -0.655184    1.451199   -1.636708
     14          1           0       -1.229957    2.193831   -0.117422
     15          1           0        1.167787    1.945208    0.645202
     16          1           0        1.646076    0.080544   -1.550037
     17          1           0        3.212169   -0.823673   -0.035333
     18          1           0        0.928862   -2.060234    0.296936
     19          1           0       -0.166725   -0.119857    2.122144
 ---------------------------------------------------------------------

 SCF Done:  E(RB3LYP) =  -423.138420176     A.U. after    1 cycles

 The electronic state is 1-A.
 Alpha  occ. eigenvalues --  -19.14049 -19.13020 -10.23672 -10.22823 -10.22715
 Alpha  occ. eigenvalues --  -10.18766 -10.18611 -10.18084 -10.17673  -1.04514
 Alpha  occ. eigenvalues --   -1.01945  -0.84080  -0.76554  -0.69823  -0.66468
 Alpha  occ. eigenvalues --   -0.61000  -0.57538  -0.52676  -0.49805  -0.48158
 Alpha  occ. eigenvalues --   -0.47566  -0.45682  -0.41716  -0.41667  -0.40313
 Alpha  occ. eigenvalues --   -0.38595  -0.36930  -0.35503  -0.33110  -0.30340
 Alpha  occ. eigenvalues --   -0.29542  -0.27802  -0.26596  -0.23158
 Alpha virt. eigenvalues --    0.06332   0.08428   0.10257   0.11252   0.12537
 Alpha virt. eigenvalues --    0.13391   0.14716   0.15347   0.16579   0.17334
 Alpha virt. eigenvalues --    0.17905   0.18661   0.19246   0.21085   0.22095

 Mulliken charges:
               1
     1  C   -0.486498
     2  C    0.445393
     3  C   -0.283220
     4  C   -0.061556
     5  C    0.101694
     6  O   -0.435793
     7  C    0.060626
     8  O   -0.341897
     9  C   -0.140715
    10  H    0.128725
    11  H    0.124837
    12  H    0.116820
    13  H    0.099644
    14  H    0.101396
    15  H    0.078769
    16  H    0.065848
    17  H    0.283781
    18  H    0.068327
    19  H    0.073818
 Sum of Mulliken charges =   0.00000

 Dipole moment (field-independent basis, Debye):
    X=             -0.1269    Y=             -0.0012    Z=              0.4518  Tot=              0.4693
 Quadrupole moment (field-independent basis, Debye-Ang):
   XX=            -51.5509   YY=            -52.2221   ZZ=            -53.5436
   XY=             -5.9491   XZ=             -3.2254   YZ=             -1.3472

  Exact polarizability:  87.200  -3.785  71.948  -0.409  -1.450  64.930
 Approx polarizability: 113.007  -4.249 108.141   2.099   1.240 101.865

                      1                      2                      3
                      A                      A                      A
 Frequencies --    150.2401               200.9656               243.6884
 Red. masses --      3.6591                 1.1125                 2.2475
 Frc consts  --      0.0487                 0.0265                 0.0786
 IR Inten    --      0.5077                 0.2093                 6.5025

                      4                      5                      6
                      A                      A                      A
 Frequencies --    283.6143               295.3990               326.2780
 Red. masses --      2.3008                 2.8570                 1.3379
 Frc consts  --      0.1090                 0.1469                 0.0839
 IR Inten    --      2.5900                 8.1564               100.6582

                      7                      8                      9
                      A                      A                      A
 Frequencies --    391.4749               410.4278               473.8844
 Red. masses --      2.6571                 3.2799                 4.3665
 Frc consts  --      0.2399                 0.3255                 0.5777
 IR Inten    --      6.7816                 6.1543                 1.0268

                     10                     11                     12
                      A                      A                      A
 Frequencies --    630.3682               695.8602               775.4391
 Red. masses --      3.7436                 4.1561                 3.3661
 Frc consts  --      0.8764                 1.1857                 1.1925
 IR Inten    --      0.5385                 1.8731                 6.1754

                     13                     14                     15
                      A                      A                      A
 Frequencies --    827.4708               843.1934               855.5720
 Red. masses --      1.8820                 2.0288                 1.7640
 Frc consts  --      0.7592                 0.8499                 0.7608
 IR Inten    --      3.2441                 4.6006                 6.4901

                     16                     17                     18
                      A                      A                      A
 Frequencies --    884.0176               911.4379               946.4321
 Red. masses --      1.9594                 2.0038                 3.1472
 Frc consts  --      0.9022                 0.9807                 1.6609
 IR Inten    --     18.3341                 3.4538                30.6059

                     19                     20                     21
                      A                      A                      A
 Frequencies --    970.5007               985.0175               999.4465
 Red. masses --      1.8144                 2.7169                 2.2591
 Frc consts  --      1.0069                 1.5531                 1.3295
 IR Inten    --      7.7635                 4.4783                 2.5098

                     22                     23                     24
                      A                      A                      A
 Frequencies --   1019.8807              1062.6512              1112.8529
 Red. masses --      3.7506                 1.9416                 1.7792
 Frc consts  --      2.2985                 1.2918                 1.2982
 IR Inten    --     35.5703                84.4437                 7.0782

                     25                     26                     27
                      A                      A                      A
 Frequencies --   1120.3453              1144.1139              1158.4431
 Red. masses --      2.1427                 2.3382                 2.0035
 Frc consts  --      1.5846                 1.8033                 1.5842
 IR Inten    --     34.1271                 2.0414                 4.1931

                     28                     29                     30
                      A                      A                      A
 Frequencies --   1174.5944              1204.7907              1220.3859
 Red. masses --      1.5811                 1.5410                 1.3957
 Frc consts  --      1.2852                 1.3179                 1.2247
 IR Inten    --      6.2462                18.0310                16.9172

                     31                     32                     33
                      A                      A                      A
 Frequencies --   1223.0921              1264.8079              1270.6203
 Red. masses --      1.7541                 1.8363                 1.8459
 Frc consts  --      1.5461                 1.7308                 1.7559
 IR Inten    --      3.6080                 5.1343                 2.6209

                     34                     35                     36
                      A                      A                      A
 Frequencies --   1285.9125              1326.9132              1336.1032
 Red. masses --      1.2886                 1.6264                 2.3433
 Frc consts  --      1.2554                 1.6871                 2.4646
 IR Inten    --     20.0442                18.6983                27.9194

                     37                     38                     39
                      A                      A                      A
 Frequencies --   1408.2225              1413.2275              1469.6237
 Red. masses --      1.4198                 1.6077                 1.1228
 Frc consts  --      1.6589                 1.8919                 1.4288
 IR Inten    --      7.5387                10.9823                 1.3820

                     40                     41                     42
                      A                      A                      A
 Frequencies --   1479.5592              1489.9320              3002.7597
 Red. masses --      1.0525                 1.0499                 1.0850
 Frc consts  --      1.3575                 1.3732                 5.7642
 IR Inten    --      3.1621                 3.4640                63.0474

                     43                     44                     45
                      A                      A                      A
 Frequencies --   3032.0492              3044.3694              3063.7501
 Red. masses --      1.0361                 1.0573                 1.0897
 Frc consts  --      5.6122                 5.7736                 6.0265
 IR Inten    --     15.7301                43.4605                63.4222

                     46                     47                     48
                      A                      A                      A
 Frequencies --   3099.2845              3102.6044              3114.2877
 Red. masses --      1.1040                 1.1035                 1.1020
 Frc consts  --      6.2482                 6.2584                 6.2970
 IR Inten    --      1.6058                33.8633                18.2318

                     49                     50                     51
                      A                      A                      A
 Frequencies --   3124.9334              3154.9501              3803.0380
 Red. masses --      1.0894                 1.0944                 1.0660
 Frc consts  --      6.2681                 6.4182                 9.0840
 IR Inten    --     27.1910                23.0811                18.5124

 - Thermochemistry -
 -------------------
 Temperature   298.150 Kelvin.  Pressure   1.00000 Atm.
 Atom     1 has atomic number  6 and mass  12.00000

 Molecular mass:   126.06808 amu.
 Principal axes and moments of inertia in atomic units:
                           1         2         3
     Eigenvalues --   461.972371304.699061468.35978
           X            0.99979  -0.01718  -0.01128
           Y            0.01655   0.99844  -0.05327
           Z            0.01217   0.05308   0.99852
 This molecule is an asymmetric top.
 Rotational symmetry number  1.
 Warning -- assumption of classical behavior for rotation
           may cause significant error
 Rotational temperatures (Kelvin)      0.18749     0.06639     0.05899
 Rotational constants (GHZ):           3.90660     1.38326     1.22909
 Zero-point vibrational energy     417669.1 (Joules/Mol)
                                   99.82532 (Kcal/Mol)
 Warning -- explicit consideration of   9 degrees of freedom as
           vibrations may cause significant error
 Vibrational temperatures:    216.16   289.14   350.61   408.06   425.01
          (Kelvin)            469.44   563.24   590.51   681.81   906.96
                             1001.19  1115.68  1190.54  1213.17  1230.98
                             1271.90  1311.35  1361.70  1396.33  1417.22
                             1437.98  1467.38  1528.92  1601.15  1611.92
                             1646.12  1666.74  1689.98  1733.42  1755.86
                             1759.75  1819.77  1828.14  1850.14  1909.13
                             1922.35  2026.12  2033.32  2114.46  2128.75
                             2143.68  4320.30  4362.44  4380.16  4408.05
                             4459.17  4463.95  4480.76  4496.08  4539.26
                             5471.72

 Zero-point correction=                           0.159082 (Hartree/Particle)
 Thermal correction to Energy=                    0.166849
 Thermal correction to Enthalpy=                  0.167793
 Thermal correction to Gibbs Free Energy=         0.127386
 Sum of electronic and zero-point Energies=           -422.979338
 Sum of electronic and thermal Energies=              -422.971571
 Sum of electronic and thermal Enthalpies=            -422.970627
 Sum of electronic and thermal Free Energies=         -423.011034

                     E (Thermal)             CV                S
                      KCal/Mol        Cal/Mol-Kelvin    Cal/Mol-Kelvin
 Total                  104.699             31.291             85.044
 Electronic               0.000              0.000              0.000
 Translational            0.889              2.981             40.409
 Rotational               0.889              2.981             28.272
 Vibrational            102.922             25.329             16.363
 Vibration     1          0.618              1.902              2.669
 Vibration     2          0.638              1.839              2.124
 Vibration     3          0.659              1.773              1.776
 Vibration     4          0.682              1.704              1.512
 Vibration     5          0.690              1.682              1.443
 Vibration     6          0.710              1.623              1.278
 Vibration     7          0.759              1.488              0.995
 Vibration     8          0.775              1.448              0.925
 Vibration     9          0.831              1.308              0.727

 Normal termination of Gaussian 09 at Tue Jan 28 00:23:40 2020.
