 Gaussian 09, Revision D.01,
 Gaussian 09:  ES64L-G09RevD.01 24-Apr-2013

 -----------------------------
 # b3lyp 6-31G(2df,p) opt Freq
 -----------------------------

 -----
 titel
 -----
 Symbolic Z-matrix:
 Charge =  0 Multiplicity = 1

 SCF Done:  E(RB3LYP) =  -423.187626390     A.U. after   13 cycles
 Optimization completed.
    -- Stationary point found.
 Normal termination of Gaussian 09 at Mon Jan 27 23:49:10 2020.

 ----------------------------------------------------------------------
 #N Geom=AllCheck Guess=TCheck SCRF=Check GenChk RB3LYP/6-31G(2df,p) Fr
 eq
 ----------------------------------------------------------------------

 Structure from the checkpoint file:  "/scratch/puck/g09_ee93cece-4848-43da-bb1d-b08c4b87234b/Gau-78116.chk"
 -----
 titel
 -----
 Charge =  0 Multiplicity = 1

                         Standard orientation:
 ---------------------------------------------------------------------
 Center     Atomic      Atomic             Coordinates (Angstroms)
 Number     Number       Type             X           Y           Z
 ---------------------------------------------------------------------
      1          8           0       -2.303388    0.212852   -0.462664
      2          6           0       -1.375828   -0.359382    0.421816
      3          6           0       -0.278085    0.511072    1.095705
      4          6           0        0.306680    1.496459    0.051265
      5          6           0        1.178056    0.545028   -0.792110
      6          6           0        1.957827   -0.230909    0.281652
      7          6           0        0.689811   -0.732391    0.964845
      8          6           0       -0.233837   -1.160252   -0.231426
      9          8           0        0.324309   -0.467618   -1.350569
     10          1           0       -2.982565    0.655422    0.056000
     11          1           0       -1.869343   -0.992265    1.175100
     12          1           0       -0.481119    0.947136    2.075257
     13          1           0       -0.477699    1.970233   -0.542743
     14          1           0        0.917758    2.274502    0.519958
     15          1           0        1.742975    1.000447   -1.605676
     16          1           0        2.570645   -1.030123   -0.143311
     17          1           0        2.573588    0.409287    0.919331
     18          1           0        0.768031   -1.411115    1.811039
     19          1           0       -0.397382   -2.203142   -0.509563
 ---------------------------------------------------------------------

 SCF Done:  E(RB3LYP) =  -423.187626390     A.U. after    1 cycles

 The electronic state is 1-A.
 Alpha  occ. eigenvalues --  -19.13622 -19.12935 -10.22530 -10.22492 -10.22257
 Alpha  occ. eigenvalues --  -10.18791 -10.18479 -10.17798 -10.17429  -1.03888
 Alpha  occ. eigenvalues --   -1.01396  -0.84280  -0.77130  -0.71809  -0.62763
 Alpha  occ. eigenvalues --   -0.61153  -0.57764  -0.52932  -0.52502  -0.48489
 Alpha  occ. eigenvalues --   -0.47058  -0.46236  -0.41521  -0.41228  -0.38280
 Alpha  occ. eigenvalues --   -0.36160  -0.35896  -0.34741  -0.33162  -0.32498
 Alpha  occ. eigenvalues --   -0.30836  -0.28422  -0.26027  -0.23470
 Alpha virt. eigenvalues --    0.06962   0.09926   0.11814   0.12999   0.14306
 Alpha virt. eigenvalues --    0.15024   0.15237   0.15784   0.16875   0.17494
 Alpha virt. eigenvalues --    0.17864   0.18883   0.19519   0.21153   0.23346

 Mulliken charges:
               1
     1  O   -0.426882
     2  C    0.144174
     3  C   -0.115201
     4  C   -0.223539
     5  C    0.092748
     6  C   -0.227001
     7  C   -0.063892
     8  C    0.074018
     9  O   -0.273034
    10  H    0.283063
    11  H    0.061627
    12  H    0.056360
    13  H    0.113417
    14  H    0.090421
    15  H    0.072751
    16  H    0.103613
    17  H    0.096963
    18  H    0.069469
    19  H    0.070926
 Sum of Mulliken charges =   0.00000

 Dipole moment (field-independent basis, Debye):
    X=              0.0687    Y=              0.5886    Z=              2.6380  Tot=              2.7037
 Quadrupole moment (field-independent basis, Debye-Ang):
   XX=            -48.6538   YY=            -50.7730   ZZ=            -55.8929
   XY=             -0.6991   XZ=             -3.6210   YZ=             -1.0637

  Exact polarizability:  80.011   0.884  72.746  -1.771  -1.050  67.033
 Approx polarizability: 110.161   1.368 107.356  -0.384  -0.311 106.284

                      1                      2                      3
                      A                      A                      A
 Frequencies --    184.2357               239.9319               256.3961
 Red. masses --      5.0067                 2.3346                 1.3460
 Frc consts  --      0.1001                 0.0792                 0.0521
 IR Inten    --      2.0577                13.0280                96.0645

                      4                      5                      6
                      A                      A                      A
 Frequencies --    408.8825               449.1376               499.8023
 Red. masses --      2.1129                 2.0107                 3.6337
 Frc consts  --      0.2081                 0.2390                 0.5348
 IR Inten    --      2.3705                 0.2454                 9.9938

                      7                      8                      9
                      A                      A                      A
 Frequencies --    537.1592               594.9732               681.3347
 Red. masses --      5.2502                 4.8496                 4.5685
 Frc consts  --      0.8926                 1.0115                 1.2495
 IR Inten    --      4.8731                 0.4505                16.2955

                     10                     11                     12
                      A                      A                      A
 Frequencies --    769.5592               800.4093               827.4585
 Red. masses --      2.7764                 3.6092                 2.3172
 Frc consts  --      0.9688                 1.3624                 0.9348
 IR Inten    --      2.8863                 2.7522                 2.0524

                     13                     14                     15
                      A                      A                      A
 Frequencies --    840.2679               867.5512               869.9967
 Red. masses --      2.4698                 2.8052                 3.1089
 Frc consts  --      1.0274                 1.2440                 1.3864
 IR Inten    --      4.0626                 4.6392                 8.5637

                     16                     17                     18
                      A                      A                      A
 Frequencies --    916.5702               946.4145               964.9779
 Red. masses --      2.4326                 2.4519                 2.1090
 Frc consts  --      1.2041                 1.2939                 1.1571
 IR Inten    --      0.4752                25.3307                11.3118

                     19                     20                     21
                      A                      A                      A
 Frequencies --    984.5546               993.0668              1033.8293
 Red. masses --      1.5252                 1.7766                 2.1984
 Frc consts  --      0.8711                 1.0323                 1.3844
 IR Inten    --      5.0211                 8.5026                15.1547

                     22                     23                     24
                      A                      A                      A
 Frequencies --   1046.1713              1071.2453              1114.8794
 Red. masses --      2.3590                 2.4090                 1.1566
 Frc consts  --      1.5212                 1.6288                 0.8470
 IR Inten    --     26.8417                43.2024                 6.2495

                     25                     26                     27
                      A                      A                      A
 Frequencies --   1122.1705              1153.2015              1185.0141
 Red. masses --      1.6808                 3.0171                 1.5236
 Frc consts  --      1.2470                 2.3640                 1.2605
 IR Inten    --      3.5765                69.7780                10.4221

                     28                     29                     30
                      A                      A                      A
 Frequencies --   1198.8629              1209.9059              1230.4093
 Red. masses --      1.1444                 1.9673                 1.5864
 Frc consts  --      0.9691                 1.6968                 1.4150
 IR Inten    --     12.5511                 7.2890                 0.4922

                     31                     32                     33
                      A                      A                      A
 Frequencies --   1245.2902              1257.9128              1290.3302
 Red. masses --      1.6871                 1.5132                 1.4802
 Frc consts  --      1.5414                 1.4107                 1.4521
 IR Inten    --     22.4297                23.8121                 3.6630

                     34                     35                     36
                      A                      A                      A
 Frequencies --   1301.4475              1311.9352              1336.7098
 Red. masses --      1.5036                 1.2564                 1.5972
 Frc consts  --      1.5005                 1.2741                 1.6815
 IR Inten    --     16.5140                 6.1488                 4.1439

                     37                     38                     39
                      A                      A                      A
 Frequencies --   1355.3903              1375.3677              1434.6742
 Red. masses --      1.5235                 1.3978                 1.5146
 Frc consts  --      1.6490                 1.5578                 1.8368
 IR Inten    --      7.6124                 6.1080                 4.1373

                     40                     41                     42
                      A                      A                      A
 Frequencies --   1471.1911              1487.6091              2984.4303
 Red. masses --      1.1126                 1.1121                 1.0838
 Frc consts  --      1.4188                 1.4500                 5.6877
 IR Inten    --      2.5823                 4.1869                53.8156

                     43                     44                     45
                      A                      A                      A
 Frequencies --   3050.9490              3062.0635              3089.0624
 Red. masses --      1.0635                 1.0584                 1.0879
 Frc consts  --      5.8326                 5.8471                 6.1163
 IR Inten    --     22.1976                29.3178                73.2775

                     46                     47                     48
                      A                      A                      A
 Frequencies --   3091.0739              3114.1949              3117.1012
 Red. masses --      1.0900                 1.1036                 1.1038
 Frc consts  --      6.1361                 6.3058                 6.3188
 IR Inten    --     33.6003                13.6909                22.2145

                     49                     50                     51
                      A                      A                      A
 Frequencies --   3121.5842              3145.2413              3818.6477
 Red. masses --      1.0913                 1.0905                 1.0662
 Frc consts  --      6.2651                 6.3563                 9.1602
 IR Inten    --     43.9556                23.2170                25.4330

 - Thermochemistry -
 -------------------
 Temperature   298.150 Kelvin.  Pressure   1.00000 Atm.
 Atom     1 has atomic number  8 and mass  15.99491

 Molecular mass:   126.06808 amu.
 Principal axes and moments of inertia in atomic units:
                           1         2         3
     Eigenvalues --   592.189081045.076101056.00030
           X            0.99990  -0.00563  -0.01299
           Y           -0.00416   0.76011  -0.64978
           Z            0.01354   0.64977   0.76001
 This molecule is an asymmetric top.
 Rotational symmetry number  1.
 Warning -- assumption of classical behavior for rotation
           may cause significant error
 Rotational temperatures (Kelvin)      0.14626     0.08288     0.08202
 Rotational constants (GHZ):           3.04758     1.72690     1.70903
 Zero-point vibrational energy     427429.2 (Joules/Mol)
                                  102.15802 (Kcal/Mol)
 Warning -- explicit consideration of   8 degrees of freedom as
           vibrations may cause significant error
 Vibrational temperatures:    265.07   345.21   368.90   588.29   646.21
          (Kelvin)            719.10   772.85   856.03   980.29  1107.22
                             1151.61  1190.53  1208.96  1248.21  1251.73
                             1318.74  1361.68  1388.39  1416.55  1428.80
                             1487.45  1505.21  1541.28  1604.06  1614.55
                             1659.20  1704.97  1724.89  1740.78  1770.28
                             1791.69  1809.85  1856.50  1872.49  1887.58
                             1923.22  1950.10  1978.84  2064.17  2116.71
                             2140.34  4293.92  4389.63  4405.62  4444.47
                             4447.36  4480.63  4484.81  4491.26  4525.30
                             5494.18

 Zero-point correction=                           0.162799 (Hartree/Particle)
 Thermal correction to Energy=                    0.169435
 Thermal correction to Enthalpy=                  0.170380
 Thermal correction to Gibbs Free Energy=         0.132188
 Sum of electronic and zero-point Energies=           -423.024827
 Sum of electronic and thermal Energies=              -423.018191
 Sum of electronic and thermal Enthalpies=            -423.017247
 Sum of electronic and thermal Free Energies=         -423.055439

                     E (Thermal)             CV                S
                      KCal/Mol        Cal/Mol-Kelvin    Cal/Mol-Kelvin
 Total                  106.322             28.205             80.382
 Electronic               0.000              0.000              0.000
 Translational            0.889              2.981             40.409
 Rotational               0.889              2.981             27.971
 Vibrational            104.545             22.243             12.002
 Vibration     1          0.631              1.861              2.285
 Vibration     2          0.657              1.779              1.803
 Vibration     3          0.666              1.752              1.686
 Vibration     4          0.773              1.451              0.931
 Vibration     5          0.808              1.363              0.798
 Vibration     6          0.855              1.250              0.659
 Vibration     7          0.892              1.168              0.571
 Vibration     8          0.953              1.042              0.458

 Optimization completed.
    -- Stationary point found.
 Normal termination of Gaussian 09 at Tue Jan 28 00:38:38 2020.
