 Gaussian 09, Revision D.01,
 Gaussian 09:  ES64L-G09RevD.01 24-Apr-2013

 -----------------------------
 # b3lyp 6-31G(2df,p) opt Freq
 -----------------------------

 -----
 titel
 -----
 Symbolic Z-matrix:
 Charge =  0 Multiplicity = 1

 SCF Done:  E(RB3LYP) =  -423.244853474     A.U. after   14 cycles
 Optimization completed.
    -- Stationary point found.
 Normal termination of Gaussian 09 at Mon Jan 27 16:21:42 2020.

 ----------------------------------------------------------------------
 #N Geom=AllCheck Guess=TCheck SCRF=Check GenChk RB3LYP/6-31G(2df,p) Fr
 eq
 ----------------------------------------------------------------------

 Structure from the checkpoint file:  "/scratch/puck/g09_9c6e6536-db75-4db3-b4a1-698be5da9f52/Gau-165314.chk"
 -----
 titel
 -----
 Charge =  0 Multiplicity = 1

                         Standard orientation:
 ---------------------------------------------------------------------
 Center     Atomic      Atomic             Coordinates (Angstroms)
 Number     Number       Type             X           Y           Z
 ---------------------------------------------------------------------
      1          6           0        1.264276   -0.177898    1.522095
      2          6           0        1.008429   -0.131226    0.009965
      3          6           0        2.158173   -0.782481   -0.755017
      4          6           0        0.761307    1.306696   -0.479630
      5          6           0       -0.611723    1.788599   -0.115656
      6          6           0       -1.602536    0.924057    0.104165
      7          6           0       -1.411367   -0.533553   -0.065082
      8          8           0       -2.323423   -1.321058   -0.076597
      9          8           0       -0.144531   -0.973809   -0.279125
     10          1           0        1.331164   -1.217287    1.853192
     11          1           0        2.205285    0.324902    1.766199
     12          1           0        0.460440    0.310201    2.079133
     13          1           0        1.934690   -0.817352   -1.824620
     14          1           0        3.083014   -0.216114   -0.608652
     15          1           0        2.317563   -1.805399   -0.404286
     16          1           0        1.526652    1.966269   -0.055664
     17          1           0        0.885447    1.361280   -1.570594
     18          1           0       -0.786376    2.859956   -0.061156
     19          1           0       -2.613603    1.227319    0.347179
 ---------------------------------------------------------------------

 SCF Done:  E(RB3LYP) =  -423.244853474     A.U. after    1 cycles

 The electronic state is 1-A.
 Alpha  occ. eigenvalues --  -19.16802 -19.11104 -10.29769 -10.26200 -10.21686
 Alpha  occ. eigenvalues --  -10.20755 -10.19886 -10.18571 -10.18563  -1.08522
 Alpha  occ. eigenvalues --   -1.00574  -0.83344  -0.79993  -0.71073  -0.70228
 Alpha  occ. eigenvalues --   -0.62613  -0.61647  -0.51643  -0.50658  -0.48747
 Alpha  occ. eigenvalues --   -0.46070  -0.44736  -0.43473  -0.42311  -0.40318
 Alpha  occ. eigenvalues --   -0.39993  -0.39189  -0.38155  -0.36861  -0.36351
 Alpha  occ. eigenvalues --   -0.32052  -0.28562  -0.27687  -0.25864
 Alpha virt. eigenvalues --   -0.04303   0.06978   0.08269   0.10360   0.11641
 Alpha virt. eigenvalues --    0.13723   0.13976   0.14621   0.15501   0.16825
 Alpha virt. eigenvalues --    0.17747   0.18528   0.18858   0.20067   0.22155

 Mulliken charges:
               1
     1  C   -0.413815
     2  C    0.345359
     3  C   -0.413993
     4  C   -0.291915
     5  C   -0.066811
     6  C   -0.182112
     7  C    0.406720
     8  O   -0.339892
     9  O   -0.275997
    10  H    0.134863
    11  H    0.116670
    12  H    0.127233
    13  H    0.126614
    14  H    0.116551
    15  H    0.131797
    16  H    0.118526
    17  H    0.125835
    18  H    0.113476
    19  H    0.120892
 Sum of Mulliken charges =   0.00000

 Dipole moment (field-independent basis, Debye):
    X=              3.2692    Y=              3.5602    Z=              0.3132  Tot=              4.8437
 Quadrupole moment (field-independent basis, Debye-Ang):
   XX=            -56.5664   YY=            -54.0943   ZZ=            -52.5244
   XY=             -5.8803   XZ=             -0.7573   YZ=             -0.9434

  Exact polarizability:  92.361   5.863  80.311  -3.166  -0.906  60.190
 Approx polarizability: 137.183  25.062 127.392  -6.200  -2.140  88.583

                      1                      2                      3
                      A                      A                      A
 Frequencies --    104.9899               135.9155               214.2723
 Red. masses --      4.8118                 2.9970                 1.0340
 Frc consts  --      0.0313                 0.0326                 0.0280
 IR Inten    --      0.9213                 0.8645                 0.0091

                      4                      5                      6
                      A                      A                      A
 Frequencies --    243.5076               287.6064               318.7441
 Red. masses --      1.2140                 2.0630                 2.8147
 Frc consts  --      0.0424                 0.1005                 0.1685
 IR Inten    --      0.4163                 0.7802                 1.0872

                      7                      8                      9
                      A                      A                      A
 Frequencies --    335.2492               361.0736               447.2873
 Red. masses --      2.6479                 2.3758                 3.1817
 Frc consts  --      0.1753                 0.1825                 0.3750
 IR Inten    --      0.5418                 2.1496                 2.3073

                     10                     11                     12
                      A                      A                      A
 Frequencies --    482.4324               502.1673               542.5722
 Red. masses --      5.3947                 3.8253                 4.4663
 Frc consts  --      0.7398                 0.5683                 0.7747
 IR Inten    --      2.9575                 0.7410                 9.4105

                     13                     14                     15
                      A                      A                      A
 Frequencies --    658.1642               680.5353               825.0349
 Red. masses --      1.7887                 4.3560                 3.1937
 Frc consts  --      0.4565                 1.1886                 1.2808
 IR Inten    --      3.9750                 0.7129                10.6958

                     16                     17                     18
                      A                      A                      A
 Frequencies --    841.7220               864.2932               905.1495
 Red. masses --      2.9234                 2.5004                 2.7844
 Frc consts  --      1.2203                 1.1005                 1.3441
 IR Inten    --     18.9081                20.8696                 1.8120

                     19                     20                     21
                      A                      A                      A
 Frequencies --    940.1846               964.0047              1001.3990
 Red. masses --      1.4591                 2.5676                 1.7989
 Frc consts  --      0.7599                 1.4058                 1.0629
 IR Inten    --      0.1121                20.5648                 1.0519

                     22                     23                     24
                      A                      A                      A
 Frequencies --   1011.1763              1015.5287              1035.0278
 Red. masses --      1.7362                 1.5716                 1.5575
 Frc consts  --      1.0459                 0.9549                 0.9830
 IR Inten    --     27.5692                19.8702                 5.2909

                     25                     26                     27
                      A                      A                      A
 Frequencies --   1118.1005              1165.9973              1209.8693
 Red. masses --      1.6815                 1.3712                 1.9296
 Frc consts  --      1.2385                 1.0984                 1.6642
 IR Inten    --     97.2831                19.9236                37.2602

                     28                     29                     30
                      A                      A                      A
 Frequencies --   1230.3604              1282.2596              1301.5129
 Red. masses --      2.0851                 2.0366                 2.5314
 Frc consts  --      1.8597                 1.9729                 2.5264
 IR Inten    --     14.8583                57.4041                86.7395

                     31                     32                     33
                      A                      A                      A
 Frequencies --   1363.9770              1400.5268              1401.2881
 Red. masses --      1.7645                 1.3773                 1.6278
 Frc consts  --      1.9341                 1.5917                 1.8833
 IR Inten    --      5.6851                13.7796                34.3035

                     34                     35                     36
                      A                      A                      A
 Frequencies --   1419.4959              1463.7474              1479.0979
 Red. masses --      1.2411                 1.0838                 1.0564
 Frc consts  --      1.4734                 1.3682                 1.3617
 IR Inten    --     13.3055                 3.2965                 2.8542

                     37                     38                     39
                      A                      A                      A
 Frequencies --   1486.7592              1495.5560              1508.9869
 Red. masses --      1.0500                 1.0657                 1.0543
 Frc consts  --      1.3675                 1.4043                 1.4144
 IR Inten    --      1.6148                 0.3542                 3.3259

                     40                     41                     42
                      A                      A                      A
 Frequencies --   1699.8546              1818.6296              3010.7379
 Red. masses --      6.8899                12.1189                 1.0676
 Frc consts  --     11.7297                23.6157                 5.7015
 IR Inten    --      2.3795               363.4602                14.6592

                     43                     44                     45
                      A                      A                      A
 Frequencies --   3042.6088              3047.4537              3065.9562
 Red. masses --      1.0350                 1.0365                 1.0917
 Frc consts  --      5.6450                 5.6715                 6.0462
 IR Inten    --     13.2518                 9.7418                14.0613

                     46                     47                     48
                      A                      A                      A
 Frequencies --   3115.8626              3121.2274              3125.8512
 Red. masses --      1.1010                 1.1014                 1.1028
 Frc consts  --      6.2980                 6.3216                 6.3486
 IR Inten    --      5.6646                28.6980                10.4109

                     49                     50                     51
                      A                      A                      A
 Frequencies --   3129.9123              3163.8955              3215.1563
 Red. masses --      1.1022                 1.0887                 1.0955
 Frc consts  --      6.3615                 6.4208                 6.6724
 IR Inten    --     21.6427                12.0682                 4.4393

 - Thermochemistry -
 -------------------
 Temperature   298.150 Kelvin.  Pressure   1.00000 Atm.
 Atom     1 has atomic number  6 and mass  12.00000

 Molecular mass:   126.06808 amu.
 Principal axes and moments of inertia in atomic units:
                           1         2         3
     Eigenvalues --   716.708071187.828611500.82100
           X            0.99812  -0.06111  -0.00535
           Y            0.06107   0.99811  -0.00662
           Z            0.00574   0.00628   0.99996
 This molecule is an asymmetric top.
 Rotational symmetry number  1.
 Warning -- assumption of classical behavior for rotation
           may cause significant error
 Rotational temperatures (Kelvin)      0.12085     0.07292     0.05771
 Rotational constants (GHZ):           2.51810     1.51936     1.20250
 Zero-point vibrational energy     416316.7 (Joules/Mol)
                                   99.50208 (Kcal/Mol)
 Warning -- explicit consideration of  12 degrees of freedom as
           vibrations may cause significant error
 Vibrational temperatures:    151.06   195.55   308.29   350.35   413.80
          (Kelvin)            458.60   482.35   519.50   643.55   694.11
                              722.51   780.64   946.95   979.14  1187.04
                             1211.05  1243.52  1302.31  1352.71  1386.99
                             1440.79  1454.86  1461.12  1489.17  1608.70
                             1677.61  1740.73  1770.21  1844.88  1872.58
                             1962.46  2015.04  2016.14  2042.34  2106.00
                             2128.09  2139.11  2151.77  2171.09  2445.71
                             2616.60  4331.77  4377.63  4384.60  4411.22
                             4483.03  4490.74  4497.40  4503.24  4552.13
                             4625.89

 Zero-point correction=                           0.158567 (Hartree/Particle)
 Thermal correction to Energy=                    0.167196
 Thermal correction to Enthalpy=                  0.168140
 Thermal correction to Gibbs Free Energy=         0.125740
 Sum of electronic and zero-point Energies=           -423.086287
 Sum of electronic and thermal Energies=              -423.077657
 Sum of electronic and thermal Enthalpies=            -423.076713
 Sum of electronic and thermal Free Energies=         -423.119113

                     E (Thermal)             CV                S
                      KCal/Mol        Cal/Mol-Kelvin    Cal/Mol-Kelvin
 Total                  104.917             33.356             89.238
 Electronic               0.000              0.000              0.000
 Translational            0.889              2.981             40.409
 Rotational               0.889              2.981             28.637
 Vibrational            103.140             27.394             20.193
 Vibration     1          0.605              1.945              3.360
 Vibration     2          0.614              1.917              2.861
 Vibration     3          0.644              1.819              2.007
 Vibration     4          0.659              1.774              1.777
 Vibration     5          0.685              1.697              1.488
 Vibration     6          0.705              1.638              1.317
 Vibration     7          0.716              1.605              1.235
 Vibration     8          0.735              1.552              1.117
 Vibration     9          0.806              1.367              0.804
 Vibration    10          0.839              1.289              0.704
 Vibration    11          0.858              1.245              0.653
 Vibration    12          0.898              1.156              0.560

 Optimization completed.
    -- Stationary point found.
 Normal termination of Gaussian 09 at Mon Jan 27 17:04:21 2020.
