 Gaussian 09, Revision D.01,
 Gaussian 09:  ES64L-G09RevD.01 24-Apr-2013

 -----------------------------
 # b3lyp 6-31G(2df,p) opt Freq
 -----------------------------

 -----
 titel
 -----
 Symbolic Z-matrix:
 Charge =  0 Multiplicity = 1

 SCF Done:  E(RB3LYP) =  -423.174981862     A.U. after   13 cycles
 Optimization completed.
    -- Stationary point found.
 Normal termination of Gaussian 09 at Mon Jan 27 19:01:23 2020.

 ----------------------------------------------------------------------
 #N Geom=AllCheck Guess=TCheck SCRF=Check GenChk RB3LYP/6-31G(2df,p) Fr
 eq
 ----------------------------------------------------------------------

 Structure from the checkpoint file:  "/scratch/puck/g09_d1bdf88d-ab93-4335-85d2-5d352db9d59a/Gau-64712.chk"
 -----
 titel
 -----
 Charge =  0 Multiplicity = 1

                         Standard orientation:
 ---------------------------------------------------------------------
 Center     Atomic      Atomic             Coordinates (Angstroms)
 Number     Number       Type             X           Y           Z
 ---------------------------------------------------------------------
      1          6           0       -2.233346    0.563204   -0.061958
      2          6           0       -0.745948    0.327684   -0.103922
      3          8           0       -0.042063    1.505769   -0.440782
      4          6           0        1.249786    1.416853    0.192866
      5          6           0        1.393619   -0.070584    0.509781
      6          6           0        1.261726   -0.845304   -0.837870
      7          6           0       -0.264583   -1.018655   -0.782526
      8          8           0       -0.429059   -1.674133    0.511844
      9          6           0       -0.036515   -0.399945    1.061130
     10          1           0       -2.596757    0.885096   -1.043008
     11          1           0       -2.746953   -0.359953    0.217308
     12          1           0       -2.479885    1.344774    0.662695
     13          1           0        2.010240    1.787476   -0.501786
     14          1           0        1.265937    2.047932    1.094303
     15          1           0        2.242565   -0.333218    1.139329
     16          1           0        1.613201   -0.266308   -1.695562
     17          1           0        1.755497   -1.818944   -0.827470
     18          1           0       -0.789694   -1.513628   -1.599990
     19          1           0       -0.253603   -0.265832    2.120685
 ---------------------------------------------------------------------

 SCF Done:  E(RB3LYP) =  -423.174981862     A.U. after    1 cycles

 The electronic state is 1-A.
 Alpha  occ. eigenvalues --  -19.13974 -19.13687 -10.23830 -10.23242 -10.23194
 Alpha  occ. eigenvalues --  -10.23025 -10.19419 -10.18445 -10.17662  -1.06524
 Alpha  occ. eigenvalues --   -1.02472  -0.79931  -0.76587  -0.71815  -0.67481
 Alpha  occ. eigenvalues --   -0.63099  -0.56712  -0.53417  -0.52119  -0.48519
 Alpha  occ. eigenvalues --   -0.47205  -0.46095  -0.42075  -0.40098  -0.38880
 Alpha  occ. eigenvalues --   -0.38431  -0.37665  -0.35121  -0.34424  -0.33858
 Alpha  occ. eigenvalues --   -0.32734  -0.30988  -0.24509  -0.24267
 Alpha virt. eigenvalues --    0.08430   0.10145   0.11438   0.11555   0.13202
 Alpha virt. eigenvalues --    0.13734   0.14867   0.15513   0.15991   0.16766
 Alpha virt. eigenvalues --    0.17796   0.18107   0.19644   0.20022   0.22374

 Mulliken charges:
               1
     1  C   -0.482778
     2  C    0.446481
     3  O   -0.321240
     4  C   -0.092744
     5  C   -0.090209
     6  C   -0.221883
     7  C    0.010201
     8  O   -0.302213
     9  C    0.021304
    10  H    0.126106
    11  H    0.135920
    12  H    0.121666
    13  H    0.110062
    14  H    0.094182
    15  H    0.075506
    16  H    0.105057
    17  H    0.108452
    18  H    0.074709
    19  H    0.081422
 Sum of Mulliken charges =   0.00000

 Dipole moment (field-independent basis, Debye):
    X=              0.9041    Y=              0.4671    Z=              0.1384  Tot=              1.0270
 Quadrupole moment (field-independent basis, Debye-Ang):
   XX=            -50.0848   YY=            -58.5516   ZZ=            -50.9179
   XY=              0.1465   XZ=              0.7308   YZ=              3.5986

  Exact polarizability:  79.662   1.117  71.025   0.424   3.995  69.032
 Approx polarizability: 107.494   3.628 107.681   0.882   1.797 107.558

                      1                      2                      3
                      A                      A                      A
 Frequencies --    227.0939               238.1101               249.1196
 Red. masses --      2.5685                 1.1154                 2.4476
 Frc consts  --      0.0780                 0.0373                 0.0895
 IR Inten    --      3.7443                 0.2507                 1.7554

                      4                      5                      6
                      A                      A                      A
 Frequencies --    310.3782               399.7322               442.1040
 Red. masses --      2.5795                 2.2002                 2.7843
 Frc consts  --      0.1464                 0.2071                 0.3206
 IR Inten    --      0.6763                 0.8163                 2.4349

                      7                      8                      9
                      A                      A                      A
 Frequencies --    511.8344               592.6037               641.8932
 Red. masses --      4.3756                 4.2559                 4.2370
 Frc consts  --      0.6754                 0.8806                 1.0286
 IR Inten    --      9.5297                 0.6813                 0.4569

                     10                     11                     12
                      A                      A                      A
 Frequencies --    690.5838               788.9652               829.9058
 Red. masses --      4.8958                 5.0798                 3.1999
 Frc consts  --      1.3757                 1.8630                 1.2985
 IR Inten    --      4.1091                 3.1722                 6.6197

                     13                     14                     15
                      A                      A                      A
 Frequencies --    850.6898               865.7940               886.6574
 Red. masses --      2.4966                 2.5042                 2.3848
 Frc consts  --      1.0645                 1.1060                 1.1046
 IR Inten    --      0.9938                 3.9821                 5.4980

                     16                     17                     18
                      A                      A                      A
 Frequencies --    912.8459               947.7155               948.9549
 Red. masses --      2.3430                 2.6380                 2.4442
 Frc consts  --      1.1503                 1.3960                 1.2968
 IR Inten    --     12.7439                10.6575                17.7250

                     19                     20                     21
                      A                      A                      A
 Frequencies --    969.6504               983.4278              1027.5731
 Red. masses --      1.6276                 2.2356                 2.1264
 Frc consts  --      0.9017                 1.2739                 1.3229
 IR Inten    --      9.9532                35.1037                 3.4944

                     22                     23                     24
                      A                      A                      A
 Frequencies --   1047.5299              1057.9602              1129.5602
 Red. masses --      3.5793                 1.3388                 1.6683
 Frc consts  --      2.3141                 0.8829                 1.2541
 IR Inten    --     51.7708                 3.9399                 6.1411

                     25                     26                     27
                      A                      A                      A
 Frequencies --   1131.8411              1167.0057              1186.4378
 Red. masses --      2.1695                 1.7760                 2.2830
 Frc consts  --      1.6375                 1.4250                 1.8934
 IR Inten    --      9.0403                 9.3346                78.4724

                     28                     29                     30
                      A                      A                      A
 Frequencies --   1206.7731              1211.7842              1237.8926
 Red. masses --      1.2111                 1.5492                 1.3233
 Frc consts  --      1.0391                 1.3403                 1.1947
 IR Inten    --      2.5997                 4.7025                 4.0000

                     31                     32                     33
                      A                      A                      A
 Frequencies --   1257.6964              1273.9061              1310.1590
 Red. masses --      2.0833                 1.7287                 1.5125
 Frc consts  --      1.9416                 1.6529                 1.5296
 IR Inten    --      2.2895                 5.2836                 4.5334

                     34                     35                     36
                      A                      A                      A
 Frequencies --   1331.0632              1353.8988              1384.2591
 Red. masses --      1.6168                 2.2712                 1.4063
 Frc consts  --      1.6878                 2.4529                 1.5876
 IR Inten    --      7.1398                 6.8333                 4.5524

                     37                     38                     39
                      A                      A                      A
 Frequencies --   1409.5638              1481.6355              1486.8319
 Red. masses --      1.4777                 1.1019                 1.0507
 Frc consts  --      1.7298                 1.4252                 1.3685
 IR Inten    --      9.8036                 2.6278                 3.3515

                     40                     41                     42
                      A                      A                      A
 Frequencies --   1495.7745              1522.9912              2990.2061
 Red. masses --      1.0609                 1.0970                 1.0691
 Frc consts  --      1.3985                 1.4991                 5.6319
 IR Inten    --      1.8530                 0.4655                75.7132

                     43                     44                     45
                      A                      A                      A
 Frequencies --   3042.8895              3068.5030              3072.8170
 Red. masses --      1.0352                 1.0646                 1.0894
 Frc consts  --      5.6475                 5.9057                 6.0604
 IR Inten    --     20.7226                 7.2193                48.2411

                     46                     47                     48
                      A                      A                      A
 Frequencies --   3109.0713              3118.1680              3119.7775
 Red. masses --      1.1014                 1.0895                 1.0941
 Frc consts  --      6.2726                 6.2411                 6.2742
 IR Inten    --     14.5435                53.2715                20.2009

                     49                     50                     51
                      A                      A                      A
 Frequencies --   3124.7788              3131.1093              3132.1088
 Red. masses --      1.1021                 1.1004                 1.0935
 Frc consts  --      6.3402                 6.3563                 6.3202
 IR Inten    --     11.7628                11.4234                32.7667

 - Thermochemistry -
 -------------------
 Temperature   298.150 Kelvin.  Pressure   1.00000 Atm.
 Atom     1 has atomic number  6 and mass  12.00000

 Molecular mass:   126.06808 amu.
 Principal axes and moments of inertia in atomic units:
                           1         2         3
     Eigenvalues --   730.68162 801.921981138.71321
           X            0.99698  -0.07769  -0.00122
           Y            0.07766   0.99578   0.04900
           Z           -0.00259  -0.04895   0.99880
 This molecule is an asymmetric top.
 Rotational symmetry number  1.
 Warning -- assumption of classical behavior for rotation
           may cause significant error
 Rotational temperatures (Kelvin)      0.11854     0.10801     0.07606
 Rotational constants (GHZ):           2.46994     2.25052     1.58490
 Zero-point vibrational energy     424133.8 (Joules/Mol)
                                  101.37040 (Kcal/Mol)
 Warning -- explicit consideration of   8 degrees of freedom as
           vibrations may cause significant error
 Vibrational temperatures:    326.74   342.59   358.43   446.56   575.12
          (Kelvin)            636.09   736.41   852.62   923.54   993.59
                             1135.14  1194.05  1223.95  1245.68  1275.70
                             1313.38  1363.55  1365.33  1395.11  1414.93
                             1478.45  1507.16  1522.17  1625.18  1628.46
                             1679.06  1707.02  1736.28  1743.49  1781.05
                             1809.54  1832.86  1885.02  1915.10  1947.96
                             1991.64  2028.05  2131.74  2139.22  2152.08
                             2191.24  4302.23  4378.03  4414.89  4421.09
                             4473.25  4486.34  4488.66  4495.85  4504.96
                             4506.40

 Zero-point correction=                           0.161544 (Hartree/Particle)
 Thermal correction to Energy=                    0.168377
 Thermal correction to Enthalpy=                  0.169322
 Thermal correction to Gibbs Free Energy=         0.130832
 Sum of electronic and zero-point Energies=           -423.013438
 Sum of electronic and thermal Energies=              -423.006605
 Sum of electronic and thermal Enthalpies=            -423.005660
 Sum of electronic and thermal Free Energies=         -423.044150

                     E (Thermal)             CV                S
                      KCal/Mol        Cal/Mol-Kelvin    Cal/Mol-Kelvin
 Total                  105.658             28.723             81.008
 Electronic               0.000              0.000              0.000
 Translational            0.889              2.981             40.409
 Rotational               0.889              2.981             27.992
 Vibrational            103.881             22.761             12.608
 Vibration     1          0.651              1.800              1.902
 Vibration     2          0.656              1.782              1.817
 Vibration     3          0.662              1.764              1.737
 Vibration     4          0.699              1.654              1.360
 Vibration     5          0.766              1.471              0.964
 Vibration     6          0.802              1.378              0.820
 Vibration     7          0.867              1.224              0.629
 Vibration     8          0.950              1.048              0.463

 Normal termination of Gaussian 09 at Mon Jan 27 19:47:40 2020.
