 Gaussian 09, Revision D.01,
 Gaussian 09:  ES64L-G09RevD.01 24-Apr-2013

 -----------------------------
 # b3lyp 6-31G(2df,p) opt Freq
 -----------------------------

 -----
 titel
 -----
 Symbolic Z-matrix:
 Charge =  0 Multiplicity = 1

 SCF Done:  E(RB3LYP) =  -423.130325297     A.U. after   13 cycles
 Optimization completed.
    -- Stationary point found.
 Normal termination of Gaussian 09 at Tue Jan 28 01:58:08 2020.

 ----------------------------------------------------------------------
 #N Geom=AllCheck Guess=TCheck SCRF=Check GenChk RB3LYP/6-31G(2df,p) Fr
 eq
 ----------------------------------------------------------------------

 Structure from the checkpoint file:  "/scratch/puck/g09_297d1524-3210-4564-90d7-b78fe102a70e/Gau-26513.chk"
 -----
 titel
 -----
 Charge =  0 Multiplicity = 1

                         Standard orientation:
 ---------------------------------------------------------------------
 Center     Atomic      Atomic             Coordinates (Angstroms)
 Number     Number       Type             X           Y           Z
 ---------------------------------------------------------------------
      1          6           0       -2.320259   -1.190734    0.191727
      2          6           0       -1.703487    0.149258    0.493872
      3          8           0       -1.614984    1.093250   -0.592917
      4          6           0       -0.412903    0.573456   -0.049999
      5          6           0        0.696489    1.466504    0.532277
      6          6           0        1.748831    0.606170   -0.221477
      7          6           0        2.138769   -0.715735    0.466141
      8          8           0        1.037519   -1.430543   -0.147366
      9          6           0        0.607217   -0.247413   -0.852165
     10          1           0       -3.410371   -1.107203    0.130257
     11          1           0       -1.949281   -1.587055   -0.756032
     12          1           0       -2.076221   -1.906637    0.982898
     13          1           0       -2.015387    0.609135    1.433957
     14          1           0        0.629143    2.486672    0.144458
     15          1           0        0.785090    1.507292    1.621840
     16          1           0        2.515447    1.124575   -0.793724
     17          1           0        3.101972   -1.134263    0.150237
     18          1           0        2.086515   -0.727035    1.562476
     19          1           0        0.424881   -0.416172   -1.916369
 ---------------------------------------------------------------------

 SCF Done:  E(RB3LYP) =  -423.130325297     A.U. after    1 cycles

 The electronic state is 1-A.
 Alpha  occ. eigenvalues --  -19.14667 -19.13665 -10.23499 -10.23475 -10.23471
 Alpha  occ. eigenvalues --  -10.23455 -10.19801 -10.19042 -10.17813  -1.06843
 Alpha  occ. eigenvalues --   -1.04051  -0.82232  -0.74173  -0.70981  -0.65831
 Alpha  occ. eigenvalues --   -0.61920  -0.58643  -0.52561  -0.51398  -0.49056
 Alpha  occ. eigenvalues --   -0.47673  -0.45015  -0.42421  -0.41968  -0.40646
 Alpha  occ. eigenvalues --   -0.39533  -0.37617  -0.36141  -0.34374  -0.31447
 Alpha  occ. eigenvalues --   -0.30170  -0.27959  -0.27146  -0.24099
 Alpha virt. eigenvalues --    0.05152   0.08486   0.10062   0.12194   0.12550
 Alpha virt. eigenvalues --    0.13106   0.13636   0.15094   0.15337   0.15804
 Alpha virt. eigenvalues --    0.17905   0.18292   0.19095   0.19928   0.20215

 Mulliken charges:
               1
     1  C   -0.409002
     2  C   -0.015069
     3  O   -0.295482
     4  C    0.432499
     5  C   -0.349144
     6  C   -0.080247
     7  C   -0.077540
     8  O   -0.290089
     9  C    0.006084
    10  H    0.123762
    11  H    0.131010
    12  H    0.129291
    13  H    0.087984
    14  H    0.122848
    15  H    0.105885
    16  H    0.084980
    17  H    0.106104
    18  H    0.101095
    19  H    0.085031
 Sum of Mulliken charges =   0.00000

 Dipole moment (field-independent basis, Debye):
    X=              1.2894    Y=              0.3938    Z=              1.0461  Tot=              1.7064
 Quadrupole moment (field-independent basis, Debye-Ang):
   XX=            -50.4140   YY=            -56.7476   ZZ=            -51.3575
   XY=              4.1304   XZ=             -2.1551   YZ=              0.8519

  Exact polarizability:  87.838   2.488  71.136  -0.722   0.435  66.417
 Approx polarizability: 114.332   0.862 104.153   1.269  -2.352 103.021

                      1                      2                      3
                      A                      A                      A
 Frequencies --     64.6356               138.7587               181.1620
 Red. masses --      3.1109                 2.9822                 1.1463
 Frc consts  --      0.0077                 0.0338                 0.0222
 IR Inten    --      1.1843                 4.1237                 0.2758

                      4                      5                      6
                      A                      A                      A
 Frequencies --    198.0679               273.1738               347.0800
 Red. masses --      2.6277                 3.2409                 2.0151
 Frc consts  --      0.0607                 0.1425                 0.1430
 IR Inten    --      1.2287                 6.0019                 0.6862

                      7                      8                      9
                      A                      A                      A
 Frequencies --    373.9310               449.7884               488.9583
 Red. masses --      4.6071                 3.1103                 3.9766
 Frc consts  --      0.3795                 0.3707                 0.5602
 IR Inten    --      0.8428                 5.4507                 2.3922

                     10                     11                     12
                      A                      A                      A
 Frequencies --    594.9467               752.1715               777.5697
 Red. masses --      3.6229                 2.7267                 3.2145
 Frc consts  --      0.7555                 0.9089                 1.1451
 IR Inten    --      2.3679                 8.0701                11.8930

                     13                     14                     15
                      A                      A                      A
 Frequencies --    794.3168               840.3013               882.9668
 Red. masses --      2.2942                 1.7351                 3.9280
 Frc consts  --      0.8528                 0.7218                 1.8043
 IR Inten    --      3.4678                 4.9499                11.2638

                     16                     17                     18
                      A                      A                      A
 Frequencies --    909.0837               937.5442               967.3207
 Red. masses --      1.7503                 2.7613                 1.5578
 Frc consts  --      0.8522                 1.4300                 0.8588
 IR Inten    --     13.9211                17.4478                 3.8775

                     19                     20                     21
                      A                      A                      A
 Frequencies --    990.3313              1013.2917              1025.4694
 Red. masses --      2.4396                 5.3727                 2.4747
 Frc consts  --      1.4097                 3.2502                 1.5333
 IR Inten    --     10.6457                92.4744                 8.9299

                     22                     23                     24
                      A                      A                      A
 Frequencies --   1049.4341              1097.1177              1117.0981
 Red. masses --      2.3443                 2.3220                 2.5332
 Frc consts  --      1.5212                 1.6467                 1.8626
 IR Inten    --     18.6554                 4.4987                23.2489

                     25                     26                     27
                      A                      A                      A
 Frequencies --   1139.9965              1153.0932              1160.3164
 Red. masses --      2.0583                 1.3615                 1.4011
 Frc consts  --      1.5760                 1.0666                 1.1114
 IR Inten    --      8.1812                 4.2390                 9.7792

                     28                     29                     30
                      A                      A                      A
 Frequencies --   1181.4679              1192.8948              1223.3897
 Red. masses --      1.4480                 1.6449                 1.6336
 Frc consts  --      1.1909                 1.3791                 1.4405
 IR Inten    --      0.9752                 0.5524                 0.8423

                     31                     32                     33
                      A                      A                      A
 Frequencies --   1253.2596              1283.0576              1309.7746
 Red. masses --      1.5886                 1.4015                 1.5563
 Frc consts  --      1.4701                 1.3593                 1.5731
 IR Inten    --      1.0360                 3.5457                 0.5927

                     34                     35                     36
                      A                      A                      A
 Frequencies --   1354.8698              1357.7209              1413.5443
 Red. masses --      1.4143                 1.4163                 1.2633
 Frc consts  --      1.5296                 1.5382                 1.4873
 IR Inten    --      4.5886                 5.5287                 4.8153

                     37                     38                     39
                      A                      A                      A
 Frequencies --   1464.7759              1473.2544              1489.0581
 Red. masses --      1.1870                 1.1442                 1.1248
 Frc consts  --      1.5005                 1.4632                 1.4694
 IR Inten    --      4.4674                 4.8126                 8.3506

                     40                     41                     42
                      A                      A                      A
 Frequencies --   1519.5250              1522.5464              3011.7344
 Red. masses --      2.4671                 1.1081                 1.0554
 Frc consts  --      3.3562                 1.5134                 5.6400
 IR Inten    --      6.9506                 1.4940                78.4907

                     43                     44                     45
                      A                      A                      A
 Frequencies --   3041.2078              3053.1972              3056.2014
 Red. masses --      1.0366                 1.0632                 1.1061
 Frc consts  --      5.6486                 5.8396                 6.0868
 IR Inten    --     18.2066                16.3017                47.1351

                     46                     47                     48
                      A                      A                      A
 Frequencies --   3084.0854              3086.8085              3106.2613
 Red. masses --      1.0893                 1.0867                 1.1007
 Frc consts  --      6.1043                 6.1007                 6.2576
 IR Inten    --     30.2552                24.4748                17.0646

                     49                     50                     51
                      A                      A                      A
 Frequencies --   3107.6064              3132.7958              3133.4919
 Red. masses --      1.1067                 1.0912                 1.1005
 Frc consts  --      6.2972                 6.3100                 6.3663
 IR Inten    --     10.2614                26.4593                30.5786

 - Thermochemistry -
 -------------------
 Temperature   298.150 Kelvin.  Pressure   1.00000 Atm.
 Atom     1 has atomic number  6 and mass  12.00000

 Molecular mass:   126.06808 amu.
 Principal axes and moments of inertia in atomic units:
                           1         2         3
     Eigenvalues --   596.296491236.239511563.07644
           X            0.99846   0.05529  -0.00539
           Y           -0.05520   0.99836   0.01486
           Z            0.00620  -0.01453   0.99988
 This molecule is an asymmetric top.
 Rotational symmetry number  1.
 Warning -- assumption of classical behavior for rotation
           may cause significant error
 Rotational temperatures (Kelvin)      0.14525     0.07006     0.05541
 Rotational constants (GHZ):           3.02658     1.45986     1.15461
 Zero-point vibrational energy     416123.7 (Joules/Mol)
                                   99.45596 (Kcal/Mol)
 Warning -- explicit consideration of  10 degrees of freedom as
           vibrations may cause significant error
 Vibrational temperatures:     93.00   199.64   260.65   284.98   393.04
          (Kelvin)            499.37   538.00   647.14   703.50   855.99
                             1082.21  1118.75  1142.84  1209.00  1270.39
                             1307.97  1348.92  1391.76  1424.86  1457.90
                             1475.42  1509.90  1578.51  1607.25  1640.20
                             1659.04  1669.43  1699.87  1716.31  1760.18
                             1803.16  1846.03  1884.47  1949.35  1953.46
                             2033.77  2107.48  2119.68  2142.42  2186.25
                             2190.60  4333.21  4375.61  4392.86  4397.19
                             4437.31  4441.22  4469.21  4471.15  4507.39
                             4508.39

 Zero-point correction=                           0.158493 (Hartree/Particle)
 Thermal correction to Energy=                    0.166670
 Thermal correction to Enthalpy=                  0.167614
 Thermal correction to Gibbs Free Energy=         0.125502
 Sum of electronic and zero-point Energies=           -422.971832
 Sum of electronic and thermal Energies=              -422.963655
 Sum of electronic and thermal Enthalpies=            -422.962711
 Sum of electronic and thermal Free Energies=         -423.004823

                     E (Thermal)             CV                S
                      KCal/Mol        Cal/Mol-Kelvin    Cal/Mol-Kelvin
 Total                  104.587             31.122             88.632
 Electronic               0.000              0.000              0.000
 Translational            0.889              2.981             40.409
 Rotational               0.889              2.981             28.534
 Vibrational            102.810             25.160             19.689
 Vibration     1          0.597              1.971              4.310
 Vibration     2          0.614              1.915              2.821
 Vibration     3          0.630              1.865              2.316
 Vibration     4          0.637              1.843              2.151
 Vibration     5          0.676              1.723              1.576
 Vibration     6          0.725              1.581              1.179
 Vibration     7          0.745              1.526              1.064
 Vibration     8          0.809              1.361              0.796
 Vibration     9          0.845              1.275              0.686
 Vibration    10          0.953              1.043              0.458

 Optimization completed.
    -- Stationary point found.
 Normal termination of Gaussian 09 at Tue Jan 28 02:45:43 2020.
