 Gaussian 09, Revision D.01,
 Gaussian 09:  ES64L-G09RevD.01 24-Apr-2013

 -----------------------------
 # b3lyp 6-31G(2df,p) opt Freq
 -----------------------------

 -----
 titel
 -----
 Symbolic Z-matrix:
 Charge =  0 Multiplicity = 1

 SCF Done:  E(RB3LYP) =  -423.143384419     A.U. after   13 cycles
 Optimization completed.
    -- Stationary point found.
 Normal termination of Gaussian 09 at Tue Jan 28 12:09:10 2020.

 ----------------------------------------------------------------------
 #N Geom=AllCheck Guess=TCheck SCRF=Check GenChk RB3LYP/6-31G(2df,p) Fr
 eq
 ----------------------------------------------------------------------

 Structure from the checkpoint file:  "/scratch/puck/g09_9cc9515b-1f07-4cb3-a09c-ab87c0756d6e/Gau-85234.chk"
 -----
 titel
 -----
 Charge =  0 Multiplicity = 1

                         Standard orientation:
 ---------------------------------------------------------------------
 Center     Atomic      Atomic             Coordinates (Angstroms)
 Number     Number       Type             X           Y           Z
 ---------------------------------------------------------------------
      1          6           0       -2.910701    0.178628    0.068832
      2          8           0       -1.861590   -0.681752   -0.342045
      3          6           0       -0.598163   -0.176512   -0.147490
      4          6           0       -0.034260    1.133747   -0.703217
      5          6           0        1.055335    1.046884    0.420703
      6          8           0        2.246627    0.431026   -0.047378
      7          6           0        1.892612   -0.898039   -0.449493
      8          6           0        0.517710   -1.146303    0.158748
      9          6           0        0.220651   -0.037463    1.140844
     10          1           0       -2.963361    1.085483   -0.548317
     11          1           0       -3.841105   -0.380663   -0.049218
     12          1           0       -2.796805    0.474549    1.120839
     13          1           0        0.326532    1.162314   -1.736661
     14          1           0       -0.712952    1.973527   -0.529238
     15          1           0        1.320133    1.966967    0.938328
     16          1           0        1.890180   -0.975705   -1.545211
     17          1           0        2.642983   -1.594909   -0.058244
     18          1           0        0.199720   -2.153745    0.398354
     19          1           0       -0.004729   -0.157661    2.191188
 ---------------------------------------------------------------------

 SCF Done:  E(RB3LYP) =  -423.143384419     A.U. after    1 cycles

 The electronic state is 1-A.
 Alpha  occ. eigenvalues --  -19.15279 -19.13144 -10.24371 -10.23519 -10.22893
 Alpha  occ. eigenvalues --  -10.22404 -10.19273 -10.18566 -10.18197  -1.04990
 Alpha  occ. eigenvalues --   -1.03248  -0.88141  -0.75274  -0.70322  -0.67948
 Alpha  occ. eigenvalues --   -0.60787  -0.57885  -0.53637  -0.53043  -0.48117
 Alpha  occ. eigenvalues --   -0.46515  -0.45233  -0.44538  -0.42261  -0.41244
 Alpha  occ. eigenvalues --   -0.39296  -0.38687  -0.35612  -0.34460  -0.31198
 Alpha  occ. eigenvalues --   -0.30731  -0.26972  -0.24300  -0.23701
 Alpha virt. eigenvalues --    0.08952   0.09429   0.11460   0.12238   0.13516
 Alpha virt. eigenvalues --    0.13976   0.14298   0.15061   0.15804   0.16408
 Alpha virt. eigenvalues --    0.17269   0.18330   0.18899   0.19830   0.20782

 Mulliken charges:
               1
     1  C   -0.256904
     2  O   -0.284300
     3  C    0.433939
     4  C   -0.330422
     5  C    0.089079
     6  O   -0.263973
     7  C   -0.108644
     8  C   -0.137485
     9  C   -0.182100
    10  H    0.115856
    11  H    0.130054
    12  H    0.111401
    13  H    0.100072
    14  H    0.100188
    15  H    0.085696
    16  H    0.099824
    17  H    0.105499
    18  H    0.099873
    19  H    0.092347
 Sum of Mulliken charges =   0.00000

 Dipole moment (field-independent basis, Debye):
    X=             -1.5439    Y=              0.2970    Z=              0.7216  Tot=              1.7299
 Quadrupole moment (field-independent basis, Debye-Ang):
   XX=            -55.0962   YY=            -51.2646   ZZ=            -52.2562
   XY=             -4.3799   XZ=             -1.3095   YZ=              0.0020

  Exact polarizability:  85.380  -4.537  71.955  -0.993   0.058  66.302
 Approx polarizability: 112.722  -3.263 107.824   0.640   3.043 103.497

                      1                      2                      3
                      A                      A                      A
 Frequencies --     87.6843               160.7688               198.3196
 Red. masses --      2.5012                 1.5564                 1.7972
 Frc consts  --      0.0113                 0.0237                 0.0416
 IR Inten    --      1.6458                 0.4507                 2.1135

                      4                      5                      6
                      A                      A                      A
 Frequencies --    226.1519               306.3349               374.7029
 Red. masses --      2.5269                 3.3196                 3.9817
 Frc consts  --      0.0761                 0.1835                 0.3294
 IR Inten    --      4.2983                 1.5482                 5.8845

                      7                      8                      9
                      A                      A                      A
 Frequencies --    439.7057               532.6961               579.6420
 Red. masses --      2.4577                 2.4091                 5.0520
 Frc consts  --      0.2800                 0.4028                 1.0001
 IR Inten    --      0.1099                 0.4444                 2.8057

                     10                     11                     12
                      A                      A                      A
 Frequencies --    697.4727               722.8531               752.6948
 Red. masses --      2.8931                 3.3028                 4.1868
 Frc consts  --      0.8292                 1.0168                 1.3975
 IR Inten    --      0.1390                13.3010                 0.4963

                     13                     14                     15
                      A                      A                      A
 Frequencies --    843.0499               869.6925               889.8550
 Red. masses --      2.8177                 2.4852                 1.8586
 Frc consts  --      1.1799                 1.1075                 0.8671
 IR Inten    --     19.2087                 2.4942                 8.0699

                     16                     17                     18
                      A                      A                      A
 Frequencies --    897.8051               937.4881               975.3994
 Red. masses --      2.0209                 2.3762                 1.8950
 Frc consts  --      0.9598                 1.2305                 1.0622
 IR Inten    --      5.3314                29.3941                29.9287

                     19                     20                     21
                      A                      A                      A
 Frequencies --    989.7839              1003.2660              1022.7302
 Red. masses --      1.8704                 2.3748                 3.0761
 Frc consts  --      1.0796                 1.4083                 1.8957
 IR Inten    --      4.6587                 2.8825                 2.5149

                     22                     23                     24
                      A                      A                      A
 Frequencies --   1074.6637              1087.0523              1108.1191
 Red. masses --      3.0666                 3.0338                 2.1554
 Frc consts  --      2.0867                 2.1122                 1.5594
 IR Inten    --     87.8297                25.1962                20.2021

                     25                     26                     27
                      A                      A                      A
 Frequencies --   1147.6363              1178.3367              1179.5832
 Red. masses --      1.6616                 1.6131                 1.2874
 Frc consts  --      1.2894                 1.3196                 1.0554
 IR Inten    --     34.3803                 3.9762                 1.6982

                     28                     29                     30
                      A                      A                      A
 Frequencies --   1186.8360              1206.8488              1221.0961
 Red. masses --      1.6839                 1.5946                 1.1447
 Frc consts  --      1.3975                 1.3684                 1.0056
 IR Inten    --      2.5630                 6.1835                 2.0842

                     31                     32                     33
                      A                      A                      A
 Frequencies --   1245.1604              1260.1219              1299.5932
 Red. masses --      1.8868                 1.5507                 2.1015
 Frc consts  --      1.7236                 1.4507                 2.0912
 IR Inten    --     35.8964                 1.8833                88.7823

                     34                     35                     36
                      A                      A                      A
 Frequencies --   1330.9808              1370.1488              1418.7257
 Red. masses --      1.6287                 1.6437                 2.0499
 Frc consts  --      1.6999                 1.8180                 2.4310
 IR Inten    --      2.6201                70.2497                44.8201

                     37                     38                     39
                      A                      A                      A
 Frequencies --   1479.0761              1491.0217              1499.0736
 Red. masses --      1.1261                 1.0713                 1.3009
 Frc consts  --      1.4515                 1.4032                 1.7224
 IR Inten    --      2.4418                 4.4772                26.5178

                     40                     41                     42
                      A                      A                      A
 Frequencies --   1508.5976              1523.2799              2997.6017
 Red. masses --      1.0880                 1.0907                 1.0349
 Frc consts  --      1.4589                 1.4911                 5.4788
 IR Inten    --      2.2063                 0.8986                47.5495

                     43                     44                     45
                      A                      A                      A
 Frequencies --   3007.6113              3043.1641              3052.6346
 Red. masses --      1.0622                 1.0603                 1.1025
 Frc consts  --      5.6612                 5.7854                 6.0531
 IR Inten    --     63.0609                15.6181                23.5241

                     46                     47                     48
                      A                      A                      A
 Frequencies --   3053.9510              3099.2234              3124.8401
 Red. masses --      1.1011                 1.1068                 1.0986
 Frc consts  --      6.0504                 6.2636                 6.3203
 IR Inten    --     86.0398                24.8467                25.9035

                     49                     50                     51
                      A                      A                      A
 Frequencies --   3137.1809              3197.0079              3214.5675
 Red. masses --      1.0907                 1.0897                 1.0963
 Frc consts  --      6.3246                 6.5624                 6.6747
 IR Inten    --     31.3907                 3.8798                 6.1600

 - Thermochemistry -
 -------------------
 Temperature   298.150 Kelvin.  Pressure   1.00000 Atm.
 Atom     1 has atomic number  6 and mass  12.00000

 Molecular mass:   126.06808 amu.
 Principal axes and moments of inertia in atomic units:
                           1         2         3
     Eigenvalues --   448.870071388.680021539.23216
           X            0.99948  -0.03052  -0.01019
           Y            0.03033   0.99937  -0.01825
           Z            0.01074   0.01793   0.99978
 This molecule is an asymmetric top.
 Rotational symmetry number  1.
 Warning -- assumption of classical behavior for rotation
           may cause significant error
 Rotational temperatures (Kelvin)      0.19296     0.06237     0.05627
 Rotational constants (GHZ):           4.02063     1.29961     1.17249
 Zero-point vibrational energy     420199.3 (Joules/Mol)
                                  100.43003 (Kcal/Mol)
 Warning -- explicit consideration of   9 degrees of freedom as
           vibrations may cause significant error
 Vibrational temperatures:    126.16   231.31   285.34   325.38   440.75
          (Kelvin)            539.11   632.64   766.43   833.97  1003.51
                             1040.02  1082.96  1212.96  1251.29  1280.30
                             1291.74  1348.83  1403.38  1424.08  1443.47
                             1471.48  1546.20  1564.02  1594.33  1651.19
                             1695.36  1697.16  1707.59  1736.38  1756.88
                             1791.51  1813.03  1869.82  1914.98  1971.34
                             2041.23  2128.06  2145.24  2156.83  2170.53
                             2191.66  4312.87  4327.28  4378.43  4392.05
                             4393.95  4459.09  4495.94  4513.70  4599.78
                             4625.04

 Zero-point correction=                           0.160045 (Hartree/Particle)
 Thermal correction to Energy=                    0.167755
 Thermal correction to Enthalpy=                  0.168699
 Thermal correction to Gibbs Free Energy=         0.127820
 Sum of electronic and zero-point Energies=           -422.983339
 Sum of electronic and thermal Energies=              -422.975630
 Sum of electronic and thermal Enthalpies=            -422.974685
 Sum of electronic and thermal Free Energies=         -423.015564

                     E (Thermal)             CV                S
                      KCal/Mol        Cal/Mol-Kelvin    Cal/Mol-Kelvin
 Total                  105.268             30.113             86.036
 Electronic               0.000              0.000              0.000
 Translational            0.889              2.981             40.409
 Rotational               0.889              2.981             28.352
 Vibrational            103.490             24.151             17.275
 Vibration     1          0.601              1.958              3.711
 Vibration     2          0.622              1.890              2.541
 Vibration     3          0.637              1.842              2.149
 Vibration     4          0.650              1.801              1.909
 Vibration     5          0.697              1.662              1.382
 Vibration     6          0.746              1.524              1.060
 Vibration     7          0.800              1.384              0.828
 Vibration     8          0.888              1.178              0.581
 Vibration     9          0.936              1.075              0.486

 Normal termination of Gaussian 09 at Tue Jan 28 12:56:47 2020.
