 Gaussian 09, Revision D.01,
 Gaussian 09:  ES64L-G09RevD.01 24-Apr-2013

 -----------------------------
 # b3lyp 6-31G(2df,p) opt Freq
 -----------------------------

 -----
 titel
 -----
 Symbolic Z-matrix:
 Charge =  0 Multiplicity = 1

 SCF Done:  E(RB3LYP) =  -423.234344284     A.U. after   14 cycles
 Optimization completed.
    -- Stationary point found.
 Normal termination of Gaussian 09 at Tue Jan 28 00:42:54 2020.

 ----------------------------------------------------------------------
 #N Geom=AllCheck Guess=TCheck SCRF=Check GenChk RB3LYP/6-31G(2df,p) Fr
 eq
 ----------------------------------------------------------------------

 Structure from the checkpoint file:  "/scratch/puck/g09_a2f3cffb-7042-4675-bb24-24ea485eebf3/Gau-37410.chk"
 -----
 titel
 -----
 Charge =  0 Multiplicity = 1

                         Standard orientation:
 ---------------------------------------------------------------------
 Center     Atomic      Atomic             Coordinates (Angstroms)
 Number     Number       Type             X           Y           Z
 ---------------------------------------------------------------------
      1          6           0        2.409737   -1.160399    0.136884
      2          6           0        1.047412   -0.643120   -0.319021
      3          6           0       -0.125303   -1.593285    0.017610
      4          6           0       -1.366687   -0.717715   -0.008088
      5          8           0       -2.515313   -1.045990   -0.129506
      6          6           0       -0.876554    0.756216    0.137942
      7          8           0       -1.590395    1.721829    0.096865
      8          6           0        0.637482    0.717800    0.303503
      9          6           0        1.339260    1.963369   -0.230826
     10          1           0        3.212430   -0.466442   -0.130391
     11          1           0        2.430435   -1.296320    1.224667
     12          1           0        2.638116   -2.126695   -0.324390
     13          1           0        1.070303   -0.510047   -1.409959
     14          1           0       -0.222036   -2.453107   -0.649326
     15          1           0       -0.012829   -1.986277    1.039070
     16          1           0        0.805870    0.645150    1.392327
     17          1           0        1.238261    2.028562   -1.319279
     18          1           0        0.888044    2.862039    0.197413
     19          1           0        2.404992    1.959230    0.012982
 ---------------------------------------------------------------------

 SCF Done:  E(RB3LYP) =  -423.234344284     A.U. after    1 cycles

 The electronic state is 1-A.
 Alpha  occ. eigenvalues --  -19.15279 -19.15179 -10.27831 -10.27537 -10.21397
 Alpha  occ. eigenvalues --  -10.20913 -10.20413 -10.19304 -10.18936  -1.06843
 Alpha  occ. eigenvalues --   -1.04770  -0.85986  -0.76237  -0.74104  -0.67259
 Alpha  occ. eigenvalues --   -0.62777  -0.58267  -0.51643  -0.50033  -0.47303
 Alpha  occ. eigenvalues --   -0.45416  -0.44841  -0.44125  -0.43354  -0.40479
 Alpha  occ. eigenvalues --   -0.40245  -0.39005  -0.38183  -0.37192  -0.35948
 Alpha  occ. eigenvalues --   -0.34739  -0.33786  -0.30093  -0.22956
 Alpha virt. eigenvalues --   -0.08571   0.04329   0.07333   0.09803   0.10598
 Alpha virt. eigenvalues --    0.12562   0.13667   0.15004   0.15522   0.16312
 Alpha virt. eigenvalues --    0.17181   0.18759   0.19258   0.20805   0.22060

 Mulliken charges:
               1
     1  C   -0.404893
     2  C   -0.001919
     3  C   -0.348505
     4  C    0.317547
     5  O   -0.277799
     6  C    0.302157
     7  O   -0.288280
     8  C   -0.102443
     9  C   -0.410339
    10  H    0.123990
    11  H    0.117449
    12  H    0.121563
    13  H    0.088634
    14  H    0.135917
    15  H    0.133283
    16  H    0.106528
    17  H    0.125089
    18  H    0.142080
    19  H    0.119942
 Sum of Mulliken charges =   0.00000

 Dipole moment (field-independent basis, Debye):
    X=              4.3923    Y=             -1.2896    Z=              0.3156  Tot=              4.5886
 Quadrupole moment (field-independent basis, Debye-Ang):
   XX=            -63.4100   YY=            -55.6530   ZZ=            -50.6341
   XY=              0.8881   XZ=             -0.5060   YZ=             -0.1663

  Exact polarizability:  86.974  -0.458  82.535   1.090   0.172  58.610
 Approx polarizability: 124.997  -3.431 117.051   3.435   0.407  94.297

                      1                      2                      3
                      A                      A                      A
 Frequencies --     63.7394               104.2160               184.9086
 Red. masses --      5.5223                 2.8147                 1.0727
 Frc consts  --      0.0132                 0.0180                 0.0216
 IR Inten    --      0.0198                 3.4464                 0.4531

                      4                      5                      6
                      A                      A                      A
 Frequencies --    222.4948               238.4562               271.0042
 Red. masses --      1.6800                 1.4644                 2.4527
 Frc consts  --      0.0490                 0.0491                 0.1061
 IR Inten    --      1.9871                 0.2583                 1.9756

                      7                      8                      9
                      A                      A                      A
 Frequencies --    290.4200               318.8093               376.1704
 Red. masses --      2.6642                10.3641                 4.0072
 Frc consts  --      0.1324                 0.6206                 0.3341
 IR Inten    --      2.0610                 4.8215                 4.9489

                     10                     11                     12
                      A                      A                      A
 Frequencies --    463.4658               500.9668               527.2425
 Red. masses --      2.4568                 5.2865                 4.0939
 Frc consts  --      0.3109                 0.7817                 0.6705
 IR Inten    --      0.3415                 0.9278                 2.3545

                     13                     14                     15
                      A                      A                      A
 Frequencies --    591.8717               680.7995               744.4022
 Red. masses --      3.3438                 4.6289                 2.7099
 Frc consts  --      0.6901                 1.2640                 0.8847
 IR Inten    --      8.5407                 4.5775                 2.0556

                     16                     17                     18
                      A                      A                      A
 Frequencies --    817.6931               888.9984               926.7784
 Red. masses --      2.1786                 1.6542                 2.1128
 Frc consts  --      0.8582                 0.7703                 1.0692
 IR Inten    --      0.2841                 2.0034                 2.4733

                     19                     20                     21
                      A                      A                      A
 Frequencies --    977.1530               992.6470              1021.9138
 Red. masses --      1.3071                 2.9258                 1.3694
 Frc consts  --      0.7353                 1.6986                 0.8426
 IR Inten    --      6.3871                34.1843                 1.7948

                     22                     23                     24
                      A                      A                      A
 Frequencies --   1062.4175              1091.0636              1114.2205
 Red. masses --      3.1580                 2.2539                 1.8030
 Frc consts  --      2.1002                 1.5809                 1.3188
 IR Inten    --     27.0182                 5.7437                 2.7271

                     25                     26                     27
                      A                      A                      A
 Frequencies --   1164.7460              1179.4830              1212.8174
 Red. masses --      2.0916                 3.0057                 1.7189
 Frc consts  --      1.6718                 2.4636                 1.4897
 IR Inten    --      5.0222                44.5683                 5.7723

                     28                     29                     30
                      A                      A                      A
 Frequencies --   1261.5229              1272.0401              1312.5879
 Red. masses --      1.5077                 1.4946                 1.4338
 Frc consts  --      1.4137                 1.4249                 1.4555
 IR Inten    --      3.4845                 1.8123                 6.0215

                     31                     32                     33
                      A                      A                      A
 Frequencies --   1349.7036              1378.9689              1408.0969
 Red. masses --      1.6007                 1.4697                 1.2346
 Frc consts  --      1.7180                 1.6466                 1.4423
 IR Inten    --      9.0002                 9.7586                 5.8914

                     34                     35                     36
                      A                      A                      A
 Frequencies --   1416.5209              1447.4632              1493.1738
 Red. masses --      1.2288                 1.0927                 1.0488
 Frc consts  --      1.4528                 1.3489                 1.3777
 IR Inten    --      1.5491                 8.5100                 5.3094

                     37                     38                     39
                      A                      A                      A
 Frequencies --   1494.9218              1496.6722              1502.5981
 Red. masses --      1.0511                 1.0454                 1.0431
 Frc consts  --      1.3840                 1.3797                 1.3875
 IR Inten    --      6.2044                 5.6800                 5.5696

                     40                     41                     42
                      A                      A                      A
 Frequencies --   1839.7699              1860.0320              2962.5837
 Red. masses --     12.9674                12.8044                 1.0788
 Frc consts  --     25.8600                26.1006                 5.5787
 IR Inten    --    227.5676                48.0850                 7.6438

                     43                     44                     45
                      A                      A                      A
 Frequencies --   3004.0382              3016.3764              3029.0849
 Red. masses --      1.0792                 1.0717                 1.0374
 Frc consts  --      5.7379                 5.7451                 5.6082
 IR Inten    --      6.3956                17.8693                22.9611

                     46                     47                     48
                      A                      A                      A
 Frequencies --   3042.6989              3095.8012              3105.9421
 Red. masses --      1.0360                 1.1001                 1.1012
 Frc consts  --      5.6512                 6.2118                 6.2587
 IR Inten    --     19.2985                27.4874                20.9075

                     49                     50                     51
                      A                      A                      A
 Frequencies --   3107.9105              3111.5788              3125.9291
 Red. masses --      1.0932                 1.1004                 1.1018
 Frc consts  --      6.2214                 6.2772                 6.3433
 IR Inten    --     10.5088                23.8057                11.8322

 - Thermochemistry -
 -------------------
 Temperature   298.150 Kelvin.  Pressure   1.00000 Atm.
 Atom     1 has atomic number  6 and mass  12.00000

 Molecular mass:   126.06808 amu.
 Principal axes and moments of inertia in atomic units:
                           1         2         3
     Eigenvalues --   814.845961168.515971892.47573
           X            1.00000  -0.00103   0.00008
           Y            0.00103   0.99996  -0.00869
           Z           -0.00007   0.00869   0.99996
 This molecule is an asymmetric top.
 Rotational symmetry number  1.
 Warning -- assumption of classical behavior for rotation
           may cause significant error
 Rotational temperatures (Kelvin)      0.10629     0.07412     0.04577
 Rotational constants (GHZ):           2.21483     1.54447     0.95364
 Zero-point vibrational energy     413698.1 (Joules/Mol)
                                   98.87621 (Kcal/Mol)
 Warning -- explicit consideration of  13 degrees of freedom as
           vibrations may cause significant error
 Vibrational temperatures:     91.71   149.94   266.04   320.12   343.08
          (Kelvin)            389.91   417.85   458.69   541.22   666.82
                              720.78   758.58   851.57   979.52  1071.03
                             1176.48  1279.07  1333.43  1405.90  1428.20
                             1470.30  1528.58  1569.80  1603.11  1675.81
                             1697.01  1744.97  1815.05  1830.18  1888.52
                             1941.92  1984.03  2025.93  2038.06  2082.57
                             2148.34  2150.86  2153.37  2161.90  2647.02
                             2676.17  4262.49  4322.14  4339.89  4358.17
                             4377.76  4454.16  4468.75  4471.58  4476.86
                             4497.51

 Zero-point correction=                           0.157569 (Hartree/Particle)
 Thermal correction to Energy=                    0.166749
 Thermal correction to Enthalpy=                  0.167693
 Thermal correction to Gibbs Free Energy=         0.123540
 Sum of electronic and zero-point Energies=           -423.076775
 Sum of electronic and thermal Energies=              -423.067595
 Sum of electronic and thermal Enthalpies=            -423.066651
 Sum of electronic and thermal Free Energies=         -423.110804

                     E (Thermal)             CV                S
                      KCal/Mol        Cal/Mol-Kelvin    Cal/Mol-Kelvin
 Total                  104.637             33.944             92.929
 Electronic               0.000              0.000              0.000
 Translational            0.889              2.981             40.409
 Rotational               0.889              2.981             28.979
 Vibrational            102.859             27.983             23.541
 Vibration     1          0.597              1.972              4.338
 Vibration     2          0.605              1.946              3.374
 Vibration     3          0.631              1.860              2.278
 Vibration     4          0.648              1.807              1.939
 Vibration     5          0.656              1.782              1.814
 Vibration     6          0.675              1.727              1.590
 Vibration     7          0.686              1.692              1.472
 Vibration     8          0.705              1.638              1.316
 Vibration     9          0.747              1.521              1.055
 Vibration    10          0.821              1.331              0.756
 Vibration    11          0.856              1.248              0.656
 Vibration    12          0.882              1.190              0.593
 Vibration    13          0.949              1.049              0.464

 Optimization completed.
    -- Stationary point found.
 Normal termination of Gaussian 09 at Tue Jan 28 02:41:16 2020.
