 Gaussian 09, Revision D.01,
 Gaussian 09:  ES64L-G09RevD.01 24-Apr-2013

 -----------------------------
 # b3lyp 6-31G(2df,p) opt Freq
 -----------------------------

 -----
 titel
 -----
 Symbolic Z-matrix:
 Charge =  0 Multiplicity = 1

 SCF Done:  E(RB3LYP) =  -423.188978161     A.U. after   13 cycles
 Optimization completed.
    -- Stationary point found.
 Normal termination of Gaussian 09 at Mon Jan 27 11:17:09 2020.

 ----------------------------------------------------------------------
 #N Geom=AllCheck Guess=TCheck SCRF=Check GenChk RB3LYP/6-31G(2df,p) Fr
 eq
 ----------------------------------------------------------------------

 Structure from the checkpoint file:  "/scratch/puck/g09_f5e4c644-faed-4042-b5f2-5ca8846d798b/Gau-70031.chk"
 -----
 titel
 -----
 Charge =  0 Multiplicity = 1

                         Standard orientation:
 ---------------------------------------------------------------------
 Center     Atomic      Atomic             Coordinates (Angstroms)
 Number     Number       Type             X           Y           Z
 ---------------------------------------------------------------------
      1          6           0        1.859572   -0.098116   -0.014653
      2          6           0        0.819609    0.192874    1.092911
      3          6           0        0.237893    1.499884    0.515010
      4          6           0       -0.243069    0.918331   -0.836192
      5          8           0       -1.571240    0.433766   -0.659238
      6          6           0       -1.655021   -0.348597    0.537837
      7          6           0       -0.261715   -0.931420    0.798003
      8          8           0        0.109822   -1.453052   -0.492800
      9          6           0        0.750717   -0.308305   -1.060468
     10          1           0        2.530004    0.746921   -0.188926
     11          1           0        2.440025   -1.012771    0.115957
     12          1           0        1.169360    0.222076    2.124849
     13          1           0       -0.594511    1.938164    1.068482
     14          1           0        1.012591    2.263905    0.407897
     15          1           0       -0.272013    1.618284   -1.671715
     16          1           0       -2.028072    0.248619    1.383407
     17          1           0       -2.369367   -1.154077    0.343642
     18          1           0       -0.267643   -1.740728    1.531049
     19          1           0        1.023060   -0.524000   -2.093036
 ---------------------------------------------------------------------

 SCF Done:  E(RB3LYP) =  -423.188978161     A.U. after    1 cycles

 The electronic state is 1-A.
 Alpha  occ. eigenvalues --  -19.13430 -19.13334 -10.23293 -10.23070 -10.22916
 Alpha  occ. eigenvalues --  -10.22252 -10.19670 -10.18225 -10.18189  -1.05946
 Alpha  occ. eigenvalues --   -1.00630  -0.83023  -0.76421  -0.70526  -0.65204
 Alpha  occ. eigenvalues --   -0.63213  -0.58209  -0.53658  -0.51444  -0.50035
 Alpha  occ. eigenvalues --   -0.47989  -0.43542  -0.42896  -0.40204  -0.40116
 Alpha  occ. eigenvalues --   -0.38298  -0.37147  -0.35421  -0.34113  -0.33486
 Alpha  occ. eigenvalues --   -0.31651  -0.30546  -0.25164  -0.23121
 Alpha virt. eigenvalues --    0.08461   0.09850   0.12260   0.12567   0.12856
 Alpha virt. eigenvalues --    0.14059   0.15071   0.15724   0.16466   0.17216
 Alpha virt. eigenvalues --    0.17773   0.18847   0.19817   0.20894   0.22016

 Mulliken charges:
               1
     1  C   -0.213995
     2  C   -0.064988
     3  C   -0.233457
     4  C    0.082979
     5  O   -0.259464
     6  C   -0.082793
     7  C    0.053487
     8  O   -0.257607
     9  C    0.070430
    10  H    0.093614
    11  H    0.105675
    12  H    0.066882
    13  H    0.107538
    14  H    0.096057
    15  H    0.079475
    16  H    0.085360
    17  H    0.112793
    18  H    0.080927
    19  H    0.077088
 Sum of Mulliken charges =   0.00000

 Dipole moment (field-independent basis, Debye):
    X=              1.3518    Y=              0.9816    Z=              1.3903  Tot=              2.1734
 Quadrupole moment (field-independent basis, Debye-Ang):
   XX=            -54.0019   YY=            -54.3943   ZZ=            -51.0512
   XY=              1.8421   XZ=             -3.1673   YZ=             -2.1163

  Exact polarizability:  76.030   2.315  70.226  -3.674  -1.842  70.562
 Approx polarizability: 107.665   3.409 106.156  -3.940  -1.922 108.174

                      1                      2                      3
                      A                      A                      A
 Frequencies --    320.2192               335.6250               413.0876
 Red. masses --      2.8090                 2.7385                 3.2275
 Frc consts  --      0.1697                 0.1817                 0.3245
 IR Inten    --      0.7809                 5.0072                 0.8338

                      4                      5                      6
                      A                      A                      A
 Frequencies --    498.3756               530.0041               558.7844
 Red. masses --      3.5360                 2.1262                 3.9029
 Frc consts  --      0.5175                 0.3519                 0.7180
 IR Inten    --      2.0109                 1.3612                 4.6193

                      7                      8                      9
                      A                      A                      A
 Frequencies --    629.4914               667.0233               770.1420
 Red. masses --      5.2150                 4.9905                 3.0661
 Frc consts  --      1.2175                 1.3082                 1.0714
 IR Inten    --      2.8076                 9.0574                 1.4387

                     10                     11                     12
                      A                      A                      A
 Frequencies --    785.5351               849.8618               869.6397
 Red. masses --      4.4795                 3.0302                 2.6059
 Frc consts  --      1.6286                 1.2895                 1.1612
 IR Inten    --      1.0173                 7.2923                13.1365

                     13                     14                     15
                      A                      A                      A
 Frequencies --    881.2968               901.4019               915.0129
 Red. masses --      2.4670                 2.2922                 3.0124
 Frc consts  --      1.1289                 1.0973                 1.4860
 IR Inten    --      5.4885                 5.1395                23.6914

                     16                     17                     18
                      A                      A                      A
 Frequencies --    942.7214               953.9090               969.0730
 Red. masses --      2.5953                 1.9467                 2.1929
 Frc consts  --      1.3590                 1.0437                 1.2133
 IR Inten    --      5.5022                 4.2282                12.0579

                     19                     20                     21
                      A                      A                      A
 Frequencies --    983.6829              1020.3480              1030.4492
 Red. masses --      1.9418                 2.0199                 1.6398
 Frc consts  --      1.1070                 1.2390                 1.0259
 IR Inten    --     22.0014                 6.5141                 3.4770

                     22                     23                     24
                      A                      A                      A
 Frequencies --   1065.5932              1083.2836              1094.0606
 Red. masses --      2.4440                 2.8709                 1.8403
 Frc consts  --      1.6350                 1.9849                 1.2979
 IR Inten    --     33.6419                37.2136                23.1870

                     25                     26                     27
                      A                      A                      A
 Frequencies --   1132.0621              1166.0547              1193.0206
 Red. masses --      1.5274                 1.5573                 1.6562
 Frc consts  --      1.1533                 1.2475                 1.3889
 IR Inten    --     23.5050                12.6247                 4.3255

                     28                     29                     30
                      A                      A                      A
 Frequencies --   1202.2278              1232.6119              1265.2427
 Red. masses --      1.7379                 1.2082                 1.3161
 Frc consts  --      1.4799                 1.0815                 1.2413
 IR Inten    --      6.4351                 0.6413                 0.9678

                     31                     32                     33
                      A                      A                      A
 Frequencies --   1279.8783              1293.5653              1301.1458
 Red. masses --      1.3331                 1.5365                 1.5480
 Frc consts  --      1.2866                 1.5149                 1.5440
 IR Inten    --      1.9931                 0.5917                 2.9544

                     34                     35                     36
                      A                      A                      A
 Frequencies --   1313.2183              1331.3483              1344.4453
 Red. masses --      1.3863                 1.5982                 1.3677
 Frc consts  --      1.4085                 1.6691                 1.4565
 IR Inten    --      0.1029                 2.5773                 3.4850

                     37                     38                     39
                      A                      A                      A
 Frequencies --   1353.2242              1396.0466              1485.8594
 Red. masses --      1.4262                 1.3913                 1.1000
 Frc consts  --      1.5388                 1.5976                 1.4308
 IR Inten    --      6.7063                 2.7129                 1.6410

                     40                     41                     42
                      A                      A                      A
 Frequencies --   1506.0488              1523.4393              2987.8891
 Red. masses --      1.1023                 1.0872                 1.0697
 Frc consts  --      1.4731                 1.4866                 5.6268
 IR Inten    --      3.2559                 3.7978                66.0795

                     43                     44                     45
                      A                      A                      A
 Frequencies --   3062.3565              3072.1329              3078.1375
 Red. masses --      1.0630                 1.0596                 1.0933
 Frc consts  --      5.8737                 5.8922                 6.1036
 IR Inten    --     17.1799                25.2391                23.2492

                     46                     47                     48
                      A                      A                      A
 Frequencies --   3091.1825              3108.5192              3114.9370
 Red. masses --      1.0895                 1.0897                 1.0977
 Frc consts  --      6.1336                 6.2037                 6.2753
 IR Inten    --     47.9973                28.1891                24.3423

                     49                     50                     51
                      A                      A                      A
 Frequencies --   3117.9909              3129.9905              3131.1298
 Red. masses --      1.0934                 1.1012                 1.0968
 Frc consts  --      6.2629                 6.3564                 6.3355
 IR Inten    --     46.5772                36.9433                21.2369

 - Thermochemistry -
 -------------------
 Temperature   298.150 Kelvin.  Pressure   1.00000 Atm.
 Atom     1 has atomic number  6 and mass  12.00000

 Molecular mass:   126.06808 amu.
 Principal axes and moments of inertia in atomic units:
                           1         2         3
     Eigenvalues --   656.88344 843.35332 938.64486
           X            0.99785   0.04621  -0.04652
           Y           -0.04824   0.99789  -0.04350
           Z            0.04441   0.04565   0.99797
 This molecule is an asymmetric top.
 Rotational symmetry number  1.
 Warning -- assumption of classical behavior for rotation
           may cause significant error
 Rotational temperatures (Kelvin)      0.13186     0.10270     0.09228
 Rotational constants (GHZ):           2.74743     2.13996     1.92271
 Zero-point vibrational energy     432344.3 (Joules/Mol)
                                  103.33277 (Kcal/Mol)
 Warning -- explicit consideration of   6 degrees of freedom as
           vibrations may cause significant error
 Vibrational temperatures:    460.72   482.89   594.34   717.05   762.56
          (Kelvin)            803.97   905.70   959.70  1108.06  1130.21
                             1222.76  1251.22  1267.99  1296.91  1316.50
                             1356.36  1372.46  1394.28  1415.30  1468.05
                             1482.58  1533.15  1558.60  1574.11  1628.78
                             1677.69  1716.49  1729.74  1773.45  1820.40
                             1841.46  1861.15  1872.06  1889.43  1915.51
                             1934.35  1946.99  2008.60  2137.82  2166.87
                             2191.89  4298.90  4406.04  4420.11  4428.75
                             4447.52  4472.46  4481.69  4486.09  4503.35
                             4504.99

 Zero-point correction=                           0.164671 (Hartree/Particle)
 Thermal correction to Energy=                    0.170432
 Thermal correction to Enthalpy=                  0.171376
 Thermal correction to Gibbs Free Energy=         0.134967
 Sum of electronic and zero-point Energies=           -423.024307
 Sum of electronic and thermal Energies=              -423.018546
 Sum of electronic and thermal Enthalpies=            -423.017602
 Sum of electronic and thermal Free Energies=         -423.054011

                     E (Thermal)             CV                S
                      KCal/Mol        Cal/Mol-Kelvin    Cal/Mol-Kelvin
 Total                  106.948             25.891             76.629
 Electronic               0.000              0.000              0.000
 Translational            0.889              2.981             40.409
 Rotational               0.889              2.981             27.744
 Vibrational            105.170             19.929              8.477
 Vibration     1          0.706              1.635              1.309
 Vibration     2          0.717              1.604              1.233
 Vibration     3          0.777              1.442              0.916
 Vibration     4          0.854              1.254              0.662
 Vibration     5          0.885              1.184              0.587
 Vibration     6          0.914              1.121              0.526

 Optimization completed.
    -- Stationary point found.
 Normal termination of Gaussian 09 at Mon Jan 27 12:14:11 2020.
