 Gaussian 09, Revision D.01,
 Gaussian 09:  ES64L-G09RevD.01 24-Apr-2013

 -----------------------------
 # b3lyp 6-31G(2df,p) opt Freq
 -----------------------------

 -----
 titel
 -----
 Symbolic Z-matrix:
 Charge =  0 Multiplicity = 1

 SCF Done:  E(RB3LYP) =  -423.152469271     A.U. after   12 cycles
 Optimization completed.
    -- Stationary point found.
 Normal termination of Gaussian 09 at Mon Jan 27 23:51:05 2020.

 ----------------------------------------------------------------------
 #N Geom=AllCheck Guess=TCheck SCRF=Check GenChk RB3LYP/6-31G(2df,p) Fr
 eq
 ----------------------------------------------------------------------

 Structure from the checkpoint file:  "/scratch/puck/g09_7ef0de1b-01a6-4eb6-8d67-7a191b1ab8ab/Gau-68197.chk"
 -----
 titel
 -----
 Charge =  0 Multiplicity = 1

                         Standard orientation:
 ---------------------------------------------------------------------
 Center     Atomic      Atomic             Coordinates (Angstroms)
 Number     Number       Type             X           Y           Z
 ---------------------------------------------------------------------
      1          8           0        2.415882   -0.603817    0.715466
      2          6           0        1.022732   -0.550465    0.667701
      3          6           0        0.339621   -0.920078   -0.639305
      4          6           0       -1.136525   -1.332590   -0.677519
      5          6           0       -1.956141   -0.103400   -0.262340
      6          6           0       -1.829194    0.431248    1.141549
      7          6           0       -0.997491    1.033288    0.034624
      8          6           0        0.413484    0.527008   -0.200261
      9          8           0        1.319363    1.386459   -0.843898
     10          1           0        2.728343    0.053446    0.077890
     11          1           0        0.584917   -0.831309    1.620589
     12          1           0        1.007615   -1.285720   -1.413043
     13          1           0       -1.401241   -1.614668   -1.701805
     14          1           0       -1.345553   -2.203896   -0.045604
     15          1           0       -2.888849    0.077645   -0.785099
     16          1           0       -2.653716    1.027833    1.518027
     17          1           0       -1.350301   -0.172192    1.904792
     18          1           0       -1.194105    2.050540   -0.285341
     19          1           0        1.492019    2.127105   -0.249648
 ---------------------------------------------------------------------

 SCF Done:  E(RB3LYP) =  -423.152469271     A.U. after    1 cycles

 The electronic state is 1-A.
 Alpha  occ. eigenvalues --  -19.16124 -19.13280 -10.23746 -10.22763 -10.19370
 Alpha  occ. eigenvalues --  -10.19088 -10.18739 -10.18709 -10.17977  -1.04939
 Alpha  occ. eigenvalues --   -1.01246  -0.88911  -0.81287  -0.71744  -0.63757
 Alpha  occ. eigenvalues --   -0.59499  -0.57512  -0.55938  -0.53919  -0.49637
 Alpha  occ. eigenvalues --   -0.46740  -0.44500  -0.42647  -0.42133  -0.41059
 Alpha  occ. eigenvalues --   -0.38284  -0.35897  -0.34825  -0.33994  -0.32087
 Alpha  occ. eigenvalues --   -0.30135  -0.28186  -0.24558  -0.22834
 Alpha virt. eigenvalues --    0.05896   0.08200   0.09619   0.11385   0.13013
 Alpha virt. eigenvalues --    0.13619   0.14403   0.16149   0.16923   0.17746
 Alpha virt. eigenvalues --    0.18082   0.20129   0.21056   0.22688   0.24020

 Mulliken charges:
               1
     1  O   -0.449506
     2  C    0.057647
     3  C   -0.142637
     4  C   -0.260031
     5  C   -0.025882
     6  C   -0.304341
     7  C   -0.110917
     8  C    0.343979
     9  O   -0.481579
    10  H    0.281454
    11  H    0.094922
    12  H    0.096102
    13  H    0.108713
    14  H    0.105727
    15  H    0.086589
    16  H    0.109653
    17  H    0.116557
    18  H    0.084341
    19  H    0.289211
 Sum of Mulliken charges =   0.00000

 Dipole moment (field-independent basis, Debye):
    X=             -1.4171    Y=              1.5061    Z=              0.0156  Tot=              2.0680
 Quadrupole moment (field-independent basis, Debye-Ang):
   XX=            -54.2304   YY=            -50.1067   ZZ=            -54.6439
   XY=              3.4895   XZ=             -1.2973   YZ=              2.5891

  Exact polarizability:  82.384   0.933  72.036  -0.600   2.335  67.016
 Approx polarizability: 111.712   3.107 108.672   0.648   0.678 104.836

                      1                      2                      3
                      A                      A                      A
 Frequencies --    174.1209               196.6468               253.8741
 Red. masses --      2.9976                 3.9614                 2.3038
 Frc consts  --      0.0535                 0.0903                 0.0875
 IR Inten    --      1.0927                 2.4352                51.2851

                      4                      5                      6
                      A                      A                      A
 Frequencies --    277.5235               295.2653               348.4305
 Red. masses --      1.8130                 1.8834                 2.5040
 Frc consts  --      0.0823                 0.0967                 0.1791
 IR Inten    --     37.2634                19.4885                 3.0366

                      7                      8                      9
                      A                      A                      A
 Frequencies --    379.4798               459.6114               493.1834
 Red. masses --      4.6256                 2.3446                 4.4459
 Frc consts  --      0.3925                 0.2918                 0.6371
 IR Inten    --     13.4891                 6.0012                 1.8455

                     10                     11                     12
                      A                      A                      A
 Frequencies --    513.7319               674.6297               686.9824
 Red. masses --      1.1766                 4.1688                 4.2360
 Frc consts  --      0.1830                 1.1179                 1.1779
 IR Inten    --     59.1190                 5.9490                 6.6458

                     13                     14                     15
                      A                      A                      A
 Frequencies --    702.5648               800.1898               807.7167
 Red. masses --      2.8812                 1.4209                 2.9985
 Frc consts  --      0.8379                 0.5360                 1.1526
 IR Inten    --      6.8910                 8.6413                 0.8272

                     16                     17                     18
                      A                      A                      A
 Frequencies --    835.8297               908.2228               909.2150
 Red. masses --      1.7140                 2.5811                 3.2663
 Frc consts  --      0.7055                 1.2544                 1.5909
 IR Inten    --      6.6591                 4.3475                39.6856

                     19                     20                     21
                      A                      A                      A
 Frequencies --    959.3045               983.7169              1005.8368
 Red. masses --      1.6985                 1.6612                 2.1006
 Frc consts  --      0.9209                 0.9471                 1.2521
 IR Inten    --      8.4244                 2.7232                 0.8541

                     22                     23                     24
                      A                      A                      A
 Frequencies --   1029.5566              1038.7743              1072.6939
 Red. masses --      2.0092                 1.3688                 1.5640
 Frc consts  --      1.2548                 0.8703                 1.0603
 IR Inten    --      5.1122                14.1084                 4.4831

                     25                     26                     27
                      A                      A                      A
 Frequencies --   1079.7994              1104.6655              1114.5746
 Red. masses --      1.7562                 1.2306                 1.6071
 Frc consts  --      1.2064                 0.8848                 1.1763
 IR Inten    --      1.4389                 2.3138                 2.5568

                     28                     29                     30
                      A                      A                      A
 Frequencies --   1140.0861              1185.6344              1197.9383
 Red. masses --      2.9354                 1.9825                 1.5613
 Frc consts  --      2.2480                 1.6419                 1.3201
 IR Inten    --    109.5833                31.2926                 4.7364

                     31                     32                     33
                      A                      A                      A
 Frequencies --   1213.7931              1225.8077              1272.0445
 Red. masses --      1.5998                 1.4617                 1.4741
 Frc consts  --      1.3887                 1.2941                 1.4053
 IR Inten    --     26.2440                10.1497                30.2717

                     34                     35                     36
                      A                      A                      A
 Frequencies --   1307.1738              1327.0835              1351.2844
 Red. masses --      1.6517                 1.4420                 1.8330
 Frc consts  --      1.6628                 1.4962                 1.9720
 IR Inten    --      4.6218                18.1162                38.3787

                     37                     38                     39
                      A                      A                      A
 Frequencies --   1372.2579              1402.1986              1464.2083
 Red. masses --      2.1732                 1.5638                 1.9419
 Frc consts  --      2.4112                 1.8116                 2.4530
 IR Inten    --      2.5774                30.6566                55.6961

                     40                     41                     42
                      A                      A                      A
 Frequencies --   1486.4008              1497.4720              3034.9999
 Red. masses --      1.1616                 1.1664                 1.0618
 Frc consts  --      1.5120                 1.5411                 5.7623
 IR Inten    --      2.5220                 5.5620                41.7658

                     43                     44                     45
                      A                      A                      A
 Frequencies --   3073.3444              3130.2456              3151.1426
 Red. masses --      1.1017                 1.0570                 1.0880
 Frc consts  --      6.1313                 6.1021                 6.3653
 IR Inten    --     17.7895                 8.2316                23.9940

                     46                     47                     48
                      A                      A                      A
 Frequencies --   3162.1641              3164.4192              3173.5035
 Red. masses --      1.0888                 1.0889                 1.0937
 Frc consts  --      6.4148                 6.4241                 6.4898
 IR Inten    --     14.4642                13.6563                10.9342

                     49                     50                     51
                      A                      A                      A
 Frequencies --   3212.1397              3737.3677              3776.1716
 Red. masses --      1.1139                 1.0649                 1.0659
 Frc consts  --      6.7714                 8.7635                 8.9548
 IR Inten    --     13.6274                46.2776                17.9876

 - Thermochemistry -
 -------------------
 Temperature   298.150 Kelvin.  Pressure   1.00000 Atm.
 Atom     1 has atomic number  8 and mass  15.99491

 Molecular mass:   126.06808 amu.
 Principal axes and moments of inertia in atomic units:
                           1         2         3
     Eigenvalues --   630.508301251.977101408.57967
           X            0.99990   0.01022  -0.00944
           Y           -0.00947   0.99706   0.07598
           Z            0.01019  -0.07588   0.99706
 This molecule is an asymmetric top.
 Rotational symmetry number  1.
 Warning -- assumption of classical behavior for rotation
           may cause significant error
 Rotational temperatures (Kelvin)      0.13737     0.06918     0.06149
 Rotational constants (GHZ):           2.86236     1.44151     1.28125
 Zero-point vibrational energy     419680.0 (Joules/Mol)
                                  100.30594 (Kcal/Mol)
 Warning -- explicit consideration of  10 degrees of freedom as
           vibrations may cause significant error
 Vibrational temperatures:    250.52   282.93   365.27   399.29   424.82
          (Kelvin)            501.31   545.99   661.28   709.58   739.14
                              970.64   988.41  1010.83  1151.29  1162.12
                             1202.57  1306.73  1308.16  1380.22  1415.35
                             1447.17  1481.30  1494.56  1543.37  1553.59
                             1589.37  1603.62  1640.33  1705.86  1723.56
                             1746.38  1763.66  1830.19  1880.73  1909.37
                             1944.19  1974.37  2017.45  2106.67  2138.60
                             2154.53  4366.68  4421.85  4503.72  4533.79
                             4549.64  4552.89  4565.96  4621.55  5377.23
                             5433.06

 Zero-point correction=                           0.159848 (Hartree/Particle)
 Thermal correction to Energy=                    0.167724
 Thermal correction to Enthalpy=                  0.168668
 Thermal correction to Gibbs Free Energy=         0.128103
 Sum of electronic and zero-point Energies=           -422.992622
 Sum of electronic and thermal Energies=              -422.984745
 Sum of electronic and thermal Enthalpies=            -422.983801
 Sum of electronic and thermal Free Energies=         -423.024366

                     E (Thermal)             CV                S
                      KCal/Mol        Cal/Mol-Kelvin    Cal/Mol-Kelvin
 Total                  105.248             32.266             85.377
 Electronic               0.000              0.000              0.000
 Translational            0.889              2.981             40.409
 Rotational               0.889              2.981             28.499
 Vibrational            103.471             26.305             16.469
 Vibration     1          0.627              1.874              2.391
 Vibration     2          0.636              1.845              2.164
 Vibration     3          0.665              1.756              1.704
 Vibration     4          0.679              1.715              1.549
 Vibration     5          0.689              1.683              1.444
 Vibration     6          0.726              1.578              1.173
 Vibration     7          0.749              1.514              1.041
 Vibration     8          0.818              1.340              0.767
 Vibration     9          0.849              1.265              0.675
 Vibration    10          0.869              1.220              0.625

 Optimization completed.
    -- Stationary point found.
 Normal termination of Gaussian 09 at Tue Jan 28 00:36:18 2020.
