 Gaussian 09, Revision D.01,
 Gaussian 09:  ES64L-G09RevD.01 24-Apr-2013

 -----------------------------
 # b3lyp 6-31G(2df,p) opt Freq
 -----------------------------

 -----
 titel
 -----
 Symbolic Z-matrix:
 Charge =  0 Multiplicity = 1

 SCF Done:  E(RB3LYP) =  -423.247954017     A.U. after   14 cycles
 Optimization completed.
    -- Stationary point found.
 Normal termination of Gaussian 09 at Mon Jan 27 14:10:03 2020.

 ----------------------------------------------------------------------
 #N Geom=AllCheck Guess=TCheck SCRF=Check GenChk RB3LYP/6-31G(2df,p) Fr
 eq
 ----------------------------------------------------------------------

 Structure from the checkpoint file:  "/scratch/puck/g09_65f44094-cc59-4825-944f-793a443ef47e/Gau-31513.chk"
 -----
 titel
 -----
 Charge =  0 Multiplicity = 1

                         Standard orientation:
 ---------------------------------------------------------------------
 Center     Atomic      Atomic             Coordinates (Angstroms)
 Number     Number       Type             X           Y           Z
 ---------------------------------------------------------------------
      1          6           0        2.573209    0.489701    0.385988
      2          6           0        1.488159   -0.454287   -0.075367
      3          8           0        1.666292   -1.308208   -0.912333
      4          6           0        0.107970   -0.245843    0.563548
      5          6           0       -0.886697   -1.395157    0.357327
      6          6           0       -2.271160   -0.722097    0.239075
      7          6           0       -1.984640    0.585247   -0.510527
      8          6           0       -0.592569    1.002505   -0.045117
      9          8           0       -0.113678    2.104305   -0.119768
     10          1           0        2.215463    1.520965    0.295776
     11          1           0        2.787452    0.316436    1.447395
     12          1           0        3.480258    0.337596   -0.199916
     13          1           0        0.254560   -0.005351    1.624591
     14          1           0       -0.624148   -1.908797   -0.572611
     15          1           0       -0.845687   -2.134411    1.160522
     16          1           0       -3.000692   -1.355632   -0.270628
     17          1           0       -2.672944   -0.498833    1.234334
     18          1           0       -1.916253    0.406657   -1.592933
     19          1           0       -2.704554    1.392175   -0.359288
 ---------------------------------------------------------------------

 SCF Done:  E(RB3LYP) =  -423.247954017     A.U. after    1 cycles

 The electronic state is 1-A.
 Alpha  occ. eigenvalues --  -19.14387 -19.13330 -10.28214 -10.27542 -10.20432
 Alpha  occ. eigenvalues --  -10.19938 -10.19678 -10.19031 -10.18456  -1.05547
 Alpha  occ. eigenvalues --   -1.04360  -0.84684  -0.76617  -0.72503  -0.69254
 Alpha  occ. eigenvalues --   -0.59954  -0.56720  -0.51789  -0.49516  -0.47545
 Alpha  occ. eigenvalues --   -0.45968  -0.44707  -0.43330  -0.42511  -0.40498
 Alpha  occ. eigenvalues --   -0.40226  -0.39428  -0.36461  -0.36079  -0.35172
 Alpha  occ. eigenvalues --   -0.34758  -0.33928  -0.25640  -0.24582
 Alpha virt. eigenvalues --   -0.03259  -0.00735   0.07853   0.10892   0.11904
 Alpha virt. eigenvalues --    0.13757   0.14325   0.15229   0.16177   0.16883
 Alpha virt. eigenvalues --    0.18209   0.18670   0.19396   0.19838   0.22502

 Mulliken charges:
               1
     1  C   -0.487444
     2  C    0.378610
     3  O   -0.296000
     4  C   -0.199012
     5  C   -0.234341
     6  C   -0.226208
     7  C   -0.302849
     8  C    0.392306
     9  O   -0.312021
    10  H    0.172850
    11  H    0.135989
    12  H    0.137962
    13  H    0.111305
    14  H    0.134299
    15  H    0.106274
    16  H    0.110042
    17  H    0.106896
    18  H    0.141217
    19  H    0.130124
 Sum of Mulliken charges =   0.00000

 Dipole moment (field-independent basis, Debye):
    X=             -1.6794    Y=             -0.4803    Z=              1.8006  Tot=              2.5087
 Quadrupole moment (field-independent basis, Debye-Ang):
   XX=            -49.9067   YY=            -61.2980   ZZ=            -52.0374
   XY=              2.9368   XZ=              3.5742   YZ=             -1.9233

  Exact polarizability:  89.963   2.052  76.382   1.694   1.798  63.575
 Approx polarizability: 113.508   0.211 123.075  -0.654   8.773 103.606

                      1                      2                      3
                      A                      A                      A
 Frequencies --     62.5667                72.4699               170.2971
 Red. masses --      3.0132                 5.4030                 2.8531
 Frc consts  --      0.0069                 0.0167                 0.0488
 IR Inten    --      3.3466                 5.5476                 2.2524

                      4                      5                      6
                      A                      A                      A
 Frequencies --    185.6151               191.0065               277.9939
 Red. masses --      1.1247                 2.5498                 2.5585
 Frc consts  --      0.0228                 0.0548                 0.1165
 IR Inten    --      0.4241                 4.7717                 3.1648

                      7                      8                      9
                      A                      A                      A
 Frequencies --    349.5049               439.6917               482.2738
 Red. masses --      3.4409                 4.3709                 2.5174
 Frc consts  --      0.2476                 0.4979                 0.3450
 IR Inten    --      0.8477                 4.0787                 0.9012

                     10                     11                     12
                      A                      A                      A
 Frequencies --    558.1449               572.1788               591.3547
 Red. masses --      2.9968                 3.0450                 3.4907
 Frc consts  --      0.5501                 0.5874                 0.7192
 IR Inten    --     10.8199                16.1612                 7.3467

                     13                     14                     15
                      A                      A                      A
 Frequencies --    642.1998               714.1479               830.8024
 Red. masses --      2.6698                 2.7632                 2.0282
 Frc consts  --      0.6487                 0.8303                 0.8248
 IR Inten    --      2.6629                 0.5922                16.4311

                     16                     17                     18
                      A                      A                      A
 Frequencies --    865.1886               893.5794               918.5473
 Red. masses --      2.9496                 1.5990                 2.6816
 Frc consts  --      1.3009                 0.7522                 1.3331
 IR Inten    --      2.6944                 4.0374                 5.0036

                     19                     20                     21
                      A                      A                      A
 Frequencies --    961.1355               977.4192              1006.2443
 Red. masses --      2.0624                 1.4870                 1.4533
 Frc consts  --      1.1225                 0.8370                 0.8670
 IR Inten    --      1.8028                14.7871                 0.7835

                     22                     23                     24
                      A                      A                      A
 Frequencies --   1027.6832              1099.9191              1127.7781
 Red. masses --      1.7909                 2.3014                 4.6412
 Frc consts  --      1.1144                 1.6405                 3.4780
 IR Inten    --      2.1731                 0.2335               127.1130

                     25                     26                     27
                      A                      A                      A
 Frequencies --   1150.8118              1176.0884              1193.0855
 Red. masses --      1.6043                 1.4347                 2.1639
 Frc consts  --      1.2518                 1.1692                 1.8148
 IR Inten    --      4.4208                 2.8477                55.9423

                     28                     29                     30
                      A                      A                      A
 Frequencies --   1215.1672              1257.7465              1299.3659
 Red. masses --      1.5482                 1.4365                 1.4010
 Frc consts  --      1.3469                 1.3389                 1.3936
 IR Inten    --     13.5778                42.8477                 2.3308

                     31                     32                     33
                      A                      A                      A
 Frequencies --   1316.2695              1338.3142              1351.5250
 Red. masses --      1.4420                 1.3063                 1.5446
 Frc consts  --      1.4719                 1.3786                 1.6623
 IR Inten    --      7.4921                 1.8026                16.7335

                     34                     35                     36
                      A                      A                      A
 Frequencies --   1384.1164              1448.8695              1468.3098
 Red. masses --      1.3455                 1.0851                 1.0508
 Frc consts  --      1.5187                 1.3421                 1.3347
 IR Inten    --     54.8099                 8.2444                 9.3616

                     37                     38                     39
                      A                      A                      A
 Frequencies --   1476.6356              1497.0812              1508.5572
 Red. masses --      1.0526                 1.0810                 1.0987
 Frc consts  --      1.3522                 1.4275                 1.4731
 IR Inten    --     11.3017                 5.1303                 1.4609

                     40                     41                     42
                      A                      A                      A
 Frequencies --   1806.5332              1835.9401              3025.2256
 Red. masses --     10.6685                12.4732                 1.0694
 Frc consts  --     20.5137                24.7712                 5.7665
 IR Inten    --    224.8565               116.4774                 3.7676

                     43                     44                     45
                      A                      A                      A
 Frequencies --   3030.8625              3036.2873              3042.2681
 Red. masses --      1.0700                 1.0484                 1.0659
 Frc consts  --      5.7910                 5.6945                 5.8127
 IR Inten    --      4.3132                 8.6658                34.0282

                     46                     47                     48
                      A                      A                      A
 Frequencies --   3064.7147              3100.4994              3100.8375
 Red. masses --      1.0602                 1.0964                 1.0965
 Frc consts  --      5.8673                 6.2101                 6.2119
 IR Inten    --     13.2491                 4.6289                21.6296

                     49                     50                     51
                      A                      A                      A
 Frequencies --   3112.8198              3116.2301              3155.5379
 Red. masses --      1.0998                 1.0995                 1.1033
 Frc consts  --      6.2787                 6.2910                 6.4728
 IR Inten    --     18.6056                13.2720                 7.5146

 - Thermochemistry -
 -------------------
 Temperature   298.150 Kelvin.  Pressure   1.00000 Atm.
 Atom     1 has atomic number  6 and mass  12.00000

 Molecular mass:   126.06808 amu.
 Principal axes and moments of inertia in atomic units:
                           1         2         3
     Eigenvalues --   713.687741296.115321757.78136
           X            0.99821   0.05718   0.01740
           Y           -0.05694   0.99828  -0.01394
           Z           -0.01817   0.01293   0.99975
 This molecule is an asymmetric top.
 Rotational symmetry number  1.
 Warning -- assumption of classical behavior for rotation
           may cause significant error
 Rotational temperatures (Kelvin)      0.12136     0.06683     0.04927
 Rotational constants (GHZ):           2.52875     1.39242     1.02672
 Zero-point vibrational energy     415866.5 (Joules/Mol)
                                   99.39447 (Kcal/Mol)
 Warning -- explicit consideration of  12 degrees of freedom as
           vibrations may cause significant error
 Vibrational temperatures:     90.02   104.27   245.02   267.06   274.82
          (Kelvin)            399.97   502.86   632.62   693.88   803.04
                              823.24   850.83   923.98  1027.50  1195.34
                             1244.81  1285.66  1321.58  1382.86  1406.29
                             1447.76  1478.61  1582.54  1622.62  1655.76
                             1692.13  1716.58  1748.35  1809.61  1869.50
                             1893.82  1925.53  1944.54  1991.43  2084.60
                             2112.57  2124.55  2153.96  2170.47  2599.20
                             2641.51  4352.62  4360.73  4368.53  4377.14
                             4409.44  4460.92  4461.41  4478.65  4483.55
                             4540.11

 Zero-point correction=                           0.158395 (Hartree/Particle)
 Thermal correction to Energy=                    0.167283
 Thermal correction to Enthalpy=                  0.168227
 Thermal correction to Gibbs Free Energy=         0.124231
 Sum of electronic and zero-point Energies=           -423.089559
 Sum of electronic and thermal Energies=              -423.080671
 Sum of electronic and thermal Enthalpies=            -423.079727
 Sum of electronic and thermal Free Energies=         -423.123723

                     E (Thermal)             CV                S
                      KCal/Mol        Cal/Mol-Kelvin    Cal/Mol-Kelvin
 Total                  104.972             32.821             92.597
 Electronic               0.000              0.000              0.000
 Translational            0.889              2.981             40.409
 Rotational               0.889              2.981             28.877
 Vibrational            103.194             26.859             23.311
 Vibration     1          0.597              1.972              4.375
 Vibration     2          0.599              1.967              4.085
 Vibration     3          0.625              1.879              2.432
 Vibration     4          0.632              1.860              2.271
 Vibration     5          0.634              1.852              2.218
 Vibration     6          0.679              1.714              1.546
 Vibration     7          0.727              1.576              1.168
 Vibration     8          0.800              1.384              0.828
 Vibration     9          0.839              1.289              0.704
 Vibration    10          0.914              1.122              0.528
 Vibration    11          0.928              1.091              0.500
 Vibration    12          0.949              1.050              0.465

 Normal termination of Gaussian 09 at Mon Jan 27 14:59:53 2020.
