 Gaussian 09, Revision D.01,
 Gaussian 09:  ES64L-G09RevD.01 24-Apr-2013

 -----------------------------
 # b3lyp 6-31G(2df,p) opt Freq
 -----------------------------

 -----
 titel
 -----
 Symbolic Z-matrix:
 Charge =  0 Multiplicity = 1

 SCF Done:  E(RB3LYP) =  -423.158818519     A.U. after   14 cycles
 Optimization completed.
    -- Stationary point found.
 Normal termination of Gaussian 09 at Tue Jan 28 03:58:34 2020.

 ----------------------------------------------------------------------
 #N Geom=AllCheck Guess=TCheck SCRF=Check GenChk RB3LYP/6-31G(2df,p) Fr
 eq
 ----------------------------------------------------------------------

 Structure from the checkpoint file:  "/scratch/puck/g09_a0ac65c1-e4b9-4381-8edc-64485ab00524/Gau-92996.chk"
 -----
 titel
 -----
 Charge =  0 Multiplicity = 1

                         Standard orientation:
 ---------------------------------------------------------------------
 Center     Atomic      Atomic             Coordinates (Angstroms)
 Number     Number       Type             X           Y           Z
 ---------------------------------------------------------------------
      1          8           0       -1.477392   -0.902880   -1.323594
      2          6           0       -1.152529   -0.685320    0.037743
      3          6           0       -1.715776    0.683453    0.542998
      4          6           0       -0.582342    1.661004    0.217982
      5          6           0        0.560845    0.982232    0.149486
      6          6           0        1.896752    0.839147   -0.552144
      7          6           0        1.493191   -0.670801   -0.784344
      8          6           0        0.366239   -0.507520    0.292448
      9          8           0        0.647789   -1.090453    1.557309
     10          1           0       -1.261121   -0.095362   -1.804668
     11          1           0       -1.548189   -1.544170    0.584189
     12          1           0       -2.647271    0.924438    0.020180
     13          1           0       -1.945220    0.653565    1.615186
     14          1           0       -0.745922    2.711461    0.001695
     15          1           0        2.067938    1.466721   -1.430292
     16          1           0        2.766375    0.933321    0.107486
     17          1           0        1.093003   -0.856455   -1.782837
     18          1           0        2.252296   -1.420099   -0.548305
     19          1           0        1.406649   -0.639916    1.942636
 ---------------------------------------------------------------------

 SCF Done:  E(RB3LYP) =  -423.158818519     A.U. after    1 cycles

 The electronic state is 1-A.
 Alpha  occ. eigenvalues --  -19.13816 -19.13447 -10.22692 -10.22521 -10.19960
 Alpha  occ. eigenvalues --  -10.18839 -10.18555 -10.18416 -10.18197  -1.02572
 Alpha  occ. eigenvalues --   -1.01240  -0.85684  -0.78160  -0.70083  -0.65620
 Alpha  occ. eigenvalues --   -0.62791  -0.57642  -0.54625  -0.50792  -0.47211
 Alpha  occ. eigenvalues --   -0.46315  -0.43951  -0.43664  -0.40091  -0.39165
 Alpha  occ. eigenvalues --   -0.37888  -0.37110  -0.35085  -0.33889  -0.32902
 Alpha  occ. eigenvalues --   -0.30558  -0.25923  -0.25676  -0.24192
 Alpha virt. eigenvalues --   -0.00294   0.07321   0.08954   0.11428   0.11696
 Alpha virt. eigenvalues --    0.12928   0.14693   0.15213   0.16268   0.17782
 Alpha virt. eigenvalues --    0.18575   0.19172   0.19469   0.20857   0.22090

 Mulliken charges:
               1
     1  O   -0.430569
     2  C    0.070546
     3  C   -0.281044
     4  C   -0.260710
     5  C    0.241416
     6  C   -0.339920
     7  C   -0.296837
     8  C    0.373806
     9  O   -0.492617
    10  H    0.277526
    11  H    0.095141
    12  H    0.105856
    13  H    0.119991
    14  H    0.097422
    15  H    0.114527
    16  H    0.109260
    17  H    0.114125
    18  H    0.104201
    19  H    0.277879
 Sum of Mulliken charges =   0.00000

 Dipole moment (field-independent basis, Debye):
    X=              1.3823    Y=              2.2203    Z=             -0.1247  Tot=              2.6184
 Quadrupole moment (field-independent basis, Debye-Ang):
   XX=            -50.5951   YY=            -55.8372   ZZ=            -52.5814
   XY=             -2.2570   XZ=              0.1961   YZ=             -1.4840

  Exact polarizability:  90.399  -5.603  74.829  -4.294  -1.580  66.636
 Approx polarizability: 132.017 -11.648 113.760  -2.770  -3.355 102.032

                      1                      2                      3
                      A                      A                      A
 Frequencies --    102.6570               181.0897               220.8882
 Red. masses --      3.3042                 1.4976                 2.0654
 Frc consts  --      0.0205                 0.0289                 0.0594
 IR Inten    --      1.7684                35.7967                24.9836

                      4                      5                      6
                      A                      A                      A
 Frequencies --    231.3036               264.6033               324.0017
 Red. masses --      3.1623                 2.4512                 2.4502
 Frc consts  --      0.0997                 0.1011                 0.1515
 IR Inten    --      4.7527                16.2307                 6.5446

                      7                      8                      9
                      A                      A                      A
 Frequencies --    362.7667               412.9639               457.7073
 Red. masses --      1.1795                 2.7996                 2.9629
 Frc consts  --      0.0915                 0.2813                 0.3657
 IR Inten    --     50.0460                38.3146                 6.5677

                     10                     11                     12
                      A                      A                      A
 Frequencies --    514.8105               592.6509               665.9498
 Red. masses --      3.3233                 3.6840                 4.1446
 Frc consts  --      0.5189                 0.7624                 1.0830
 IR Inten    --      5.9514                 1.2044                 3.4304

                     13                     14                     15
                      A                      A                      A
 Frequencies --    716.0568               763.2337               803.4533
 Red. masses --      2.1061                 1.7920                 2.2014
 Frc consts  --      0.6363                 0.6150                 0.8373
 IR Inten    --      3.6636                 0.9333                 2.9491

                     16                     17                     18
                      A                      A                      A
 Frequencies --    818.9808               866.1616               902.1981
 Red. masses --      2.2867                 2.0016                 2.7966
 Frc consts  --      0.9037                 0.8848                 1.3412
 IR Inten    --      1.0977                13.5797                 1.2098

                     19                     20                     21
                      A                      A                      A
 Frequencies --    915.2749               926.8058               982.2219
 Red. masses --      2.1190                 2.0584                 2.6470
 Frc consts  --      1.0459                 1.0417                 1.5046
 IR Inten    --     43.7090                 9.2768                24.2113

                     22                     23                     24
                      A                      A                      A
 Frequencies --    992.4228              1060.0318              1075.9366
 Red. masses --      2.1772                 2.5427                 1.5281
 Frc consts  --      1.2634                 1.6834                 1.0423
 IR Inten    --      9.2869                83.3494                14.5890

                     25                     26                     27
                      A                      A                      A
 Frequencies --   1116.9980              1122.3723              1151.2070
 Red. masses --      1.8275                 4.0420                 1.9698
 Frc consts  --      1.3434                 3.0000                 1.5381
 IR Inten    --     14.8480                 8.7141                21.8554

                     28                     29                     30
                      A                      A                      A
 Frequencies --   1174.1189              1204.6820              1211.5337
 Red. masses --      1.2805                 1.4495                 1.3035
 Frc consts  --      1.0400                 1.2394                 1.1273
 IR Inten    --     49.7753                18.2488                 1.4170

                     31                     32                     33
                      A                      A                      A
 Frequencies --   1224.7712              1246.3747              1289.1437
 Red. masses --      1.5527                 1.5295                 1.4358
 Frc consts  --      1.3723                 1.3999                 1.4058
 IR Inten    --      5.0582                 1.2403                 6.7845

                     34                     35                     36
                      A                      A                      A
 Frequencies --   1299.5539              1332.6882              1362.6890
 Red. masses --      1.4943                 1.8427                 1.8068
 Frc consts  --      1.4869                 1.9282                 1.9768
 IR Inten    --      9.2579                 9.2364                43.0698

                     37                     38                     39
                      A                      A                      A
 Frequencies --   1421.8071              1466.3821              1474.7080
 Red. masses --      1.2495                 1.0913                 1.0922
 Frc consts  --      1.4882                 1.3825                 1.3995
 IR Inten    --     55.6137                 3.2773                 1.6468

                     40                     41                     42
                      A                      A                      A
 Frequencies --   1484.6851              1716.7784              3033.3684
 Red. masses --      1.1099                 8.3948                 1.0628
 Frc consts  --      1.4415                14.5776                 5.7619
 IR Inten    --      1.3743                 1.8007                27.6019

                     43                     44                     45
                      A                      A                      A
 Frequencies --   3042.4550              3070.8340              3079.5800
 Red. masses --      1.0625                 1.0584                 1.1000
 Frc consts  --      5.7948                 5.8803                 6.1465
 IR Inten    --     38.5567                30.1254                15.4767

                     46                     47                     48
                      A                      A                      A
 Frequencies --   3098.0004              3099.2534              3136.5046
 Red. masses --      1.1019                 1.0873                 1.1079
 Frc consts  --      6.2309                 6.1532                 6.4216
 IR Inten    --     19.9516                24.8508                17.8018

                     49                     50                     51
                      A                      A                      A
 Frequencies --   3185.4276              3784.2552              3806.8392
 Red. masses --      1.0946                 1.0655                 1.0663
 Frc consts  --      6.5440                 8.9903                 9.1050
 IR Inten    --     15.8373                 7.8343                14.1834

 - Thermochemistry -
 -------------------
 Temperature   298.150 Kelvin.  Pressure   1.00000 Atm.
 Atom     1 has atomic number  8 and mass  15.99491

 Molecular mass:   126.06808 amu.
 Principal axes and moments of inertia in atomic units:
                           1         2         3
     Eigenvalues --   788.610121096.364411180.26256
           X            0.99853  -0.03139  -0.04423
           Y            0.03049   0.99932  -0.02079
           Z            0.04485   0.01941   0.99881
 This molecule is an asymmetric top.
 Rotational symmetry number  1.
 Warning -- assumption of classical behavior for rotation
           may cause significant error
 Rotational temperatures (Kelvin)      0.10983     0.07900     0.07339
 Rotational constants (GHZ):           2.28851     1.64611     1.52910
 Zero-point vibrational energy     417444.0 (Joules/Mol)
                                   99.77150 (Kcal/Mol)
 Warning -- explicit consideration of  11 degrees of freedom as
           vibrations may cause significant error
 Vibrational temperatures:    147.70   260.55   317.81   332.79   380.70
          (Kelvin)            466.17   521.94   594.16   658.54   740.70
                              852.69   958.15  1030.24  1098.12  1155.99
                             1178.33  1246.21  1298.06  1316.87  1333.47
                             1413.20  1427.87  1525.15  1548.03  1607.11
                             1614.84  1656.33  1689.29  1733.27  1743.12
                             1762.17  1793.25  1854.79  1869.77  1917.44
                             1960.60  2045.66  2109.79  2121.77  2136.13
                             2470.06  4364.34  4377.41  4418.24  4430.82
                             4457.33  4459.13  4512.72  4583.11  5444.69
                             5477.19

 Zero-point correction=                           0.158996 (Hartree/Particle)
 Thermal correction to Energy=                    0.167363
 Thermal correction to Enthalpy=                  0.168307
 Thermal correction to Gibbs Free Energy=         0.126562
 Sum of electronic and zero-point Energies=           -422.999823
 Sum of electronic and thermal Energies=              -422.991456
 Sum of electronic and thermal Enthalpies=            -422.990511
 Sum of electronic and thermal Free Energies=         -423.032256

                     E (Thermal)             CV                S
                      KCal/Mol        Cal/Mol-Kelvin    Cal/Mol-Kelvin
 Total                  105.022             33.090             87.859
 Electronic               0.000              0.000              0.000
 Translational            0.889              2.981             40.409
 Rotational               0.889              2.981             28.414
 Vibrational            103.244             27.128             19.037
 Vibration     1          0.605              1.947              3.403
 Vibration     2          0.630              1.865              2.317
 Vibration     3          0.648              1.809              1.952
 Vibration     4          0.653              1.793              1.869
 Vibration     5          0.671              1.738              1.631
 Vibration     6          0.709              1.627              1.290
 Vibration     7          0.737              1.549              1.110
 Vibration     8          0.777              1.442              0.916
 Vibration     9          0.816              1.344              0.773
 Vibration    10          0.870              1.217              0.622
 Vibration    11          0.950              1.047              0.462

 Optimization completed.
    -- Stationary point found.
 Normal termination of Gaussian 09 at Tue Jan 28 04:45:01 2020.
