 Gaussian 09, Revision D.01,
 Gaussian 09:  ES64L-G09RevD.01 24-Apr-2013

 -----------------------------
 # b3lyp 6-31G(2df,p) opt Freq
 -----------------------------

 -----
 titel
 -----
 Symbolic Z-matrix:
 Charge =  0 Multiplicity = 1

 SCF Done:  E(RB3LYP) =  -423.158983963     A.U. after   14 cycles
 Optimization completed.
    -- Stationary point found.
 Normal termination of Gaussian 09 at Mon Jan 27 13:15:29 2020.

 ----------------------------------------------------------------------
 #N Geom=AllCheck Guess=TCheck SCRF=Check GenChk RB3LYP/6-31G(2df,p) Fr
 eq
 ----------------------------------------------------------------------

 Structure from the checkpoint file:  "/scratch/puck/g09_6966e36a-d5e1-43a1-87e7-a63b439f2cf9/Gau-75681.chk"
 -----
 titel
 -----
 Charge =  0 Multiplicity = 1

                         Standard orientation:
 ---------------------------------------------------------------------
 Center     Atomic      Atomic             Coordinates (Angstroms)
 Number     Number       Type             X           Y           Z
 ---------------------------------------------------------------------
      1          8           0        3.059062   -1.553097   -0.267265
      2          6           0        2.456113   -0.666820    0.285287
      3          6           0        1.537159    0.279244   -0.381468
      4          6           0        1.449556    1.705607    0.151659
      5          6           0        0.314433    0.773057    0.390212
      6          6           0       -1.009203    0.923774   -0.333278
      7          6           0       -1.775728   -0.377270   -0.388977
      8          6           0       -3.236936   -0.431311   -0.269862
      9          8           0       -2.399752   -0.787863    0.831853
     10          1           0        2.556654   -0.497934    1.385162
     11          1           0        1.435297    0.134094   -1.451855
     12          1           0        2.090258    1.968421    0.987101
     13          1           0        1.336856    2.487766   -0.591269
     14          1           0        0.220159    0.383036    1.400714
     15          1           0       -1.623028    1.673636    0.179894
     16          1           0       -0.836857    1.289488   -1.353776
     17          1           0       -1.277908   -1.189761   -0.921200
     18          1           0       -3.799334    0.493965   -0.148725
     19          1           0       -3.788940   -1.252707   -0.724194
 ---------------------------------------------------------------------

 SCF Done:  E(RB3LYP) =  -423.158983964     A.U. after    1 cycles

 The electronic state is 1-A.
 Alpha  occ. eigenvalues --  -19.15472 -19.13037 -10.26742 -10.24465 -10.23893
 Alpha  occ. eigenvalues --  -10.21558 -10.20895 -10.20718 -10.20418  -1.07479
 Alpha  occ. eigenvalues --   -1.03850  -0.88624  -0.76482  -0.67512  -0.66308
 Alpha  occ. eigenvalues --   -0.61472  -0.58747  -0.57968  -0.51554  -0.49919
 Alpha  occ. eigenvalues --   -0.48089  -0.46946  -0.43049  -0.42529  -0.40410
 Alpha  occ. eigenvalues --   -0.39438  -0.38804  -0.38298  -0.37162  -0.32547
 Alpha  occ. eigenvalues --   -0.30278  -0.29695  -0.27177  -0.24790
 Alpha virt. eigenvalues --   -0.01638   0.08026   0.09582   0.10063   0.10257
 Alpha virt. eigenvalues --    0.11683   0.11724   0.13156   0.14460   0.15239
 Alpha virt. eigenvalues --    0.15972   0.17168   0.18122   0.19026   0.21905

 Mulliken charges:
               1
     1  O   -0.268720
     2  C    0.165275
     3  C   -0.093984
     4  C   -0.315698
     5  C    0.006054
     6  C   -0.261363
     7  C    0.103040
     8  C   -0.179878
     9  O   -0.236259
    10  H    0.063476
    11  H    0.103158
    12  H    0.126229
    13  H    0.126522
    14  H    0.113089
    15  H    0.111991
    16  H    0.104011
    17  H    0.101340
    18  H    0.113524
    19  H    0.118191
 Sum of Mulliken charges =   0.00000

 Dipole moment (field-independent basis, Debye):
    X=             -2.0544    Y=              3.0411    Z=             -0.8362  Tot=              3.7641
 Quadrupole moment (field-independent basis, Debye-Ang):
   XX=            -58.7901   YY=            -55.8027   ZZ=            -52.9491
   XY=              5.9074   XZ=              6.6428   YZ=              0.3764

  Exact polarizability:  94.751  -4.641  76.029   0.854   2.820  64.326
 Approx polarizability: 120.085 -12.989 115.340  -4.564   6.336 104.924

                      1                      2                      3
                      A                      A                      A
 Frequencies --     49.8427                72.7212               104.1299
 Red. masses --      7.3148                 3.4805                 3.3127
 Frc consts  --      0.0107                 0.0108                 0.0212
 IR Inten    --      1.6735                 5.4942                 1.2349

                      4                      5                      6
                      A                      A                      A
 Frequencies --    149.8753               231.9912               267.9787
 Red. masses --      3.5477                 2.6428                 2.7746
 Frc consts  --      0.0470                 0.0838                 0.1174
 IR Inten    --      4.6005                 2.8673                 1.1309

                      7                      8                      9
                      A                      A                      A
 Frequencies --    309.3829               381.6655               444.4755
 Red. masses --      3.4337                 2.3148                 1.9468
 Frc consts  --      0.1936                 0.1987                 0.2266
 IR Inten    --      2.3128                 3.5968                 0.3834

                     10                     11                     12
                      A                      A                      A
 Frequencies --    482.0093               515.3048               772.4846
 Red. masses --      3.7906                 4.3402                 2.8445
 Frc consts  --      0.5189                 0.6790                 1.0001
 IR Inten    --      8.1233                 9.1477                 0.5802

                     13                     14                     15
                      A                      A                      A
 Frequencies --    788.1077               862.0229               865.0710
 Red. masses --      3.0339                 2.0847                 1.2994
 Frc consts  --      1.1102                 0.9127                 0.5729
 IR Inten    --      6.7791                16.2266                15.7026

                     16                     17                     18
                      A                      A                      A
 Frequencies --    883.1738               930.6256               943.4910
 Red. masses --      1.7989                 1.9547                 2.1003
 Frc consts  --      0.8267                 0.9974                 1.1015
 IR Inten    --     14.1697                25.9194                 6.1562

                     19                     20                     21
                      A                      A                      A
 Frequencies --    965.7870              1044.0592              1053.5846
 Red. masses --      3.7264                 2.0308                 1.7173
 Frc consts  --      2.0478                 1.3043                 1.1232
 IR Inten    --     38.3735                12.9550                21.5590

                     22                     23                     24
                      A                      A                      A
 Frequencies --   1076.1930              1083.7938              1109.0122
 Red. masses --      1.3803                 1.1813                 1.7035
 Frc consts  --      0.9419                 0.8175                 1.2344
 IR Inten    --      3.1162                 0.2889                 2.0184

                     25                     26                     27
                      A                      A                      A
 Frequencies --   1132.9781              1158.3575              1162.4704
 Red. masses --      1.2281                 1.4545                 1.3984
 Frc consts  --      0.9288                 1.1499                 1.1134
 IR Inten    --      1.6115                 4.3296                 1.1340

                     28                     29                     30
                      A                      A                      A
 Frequencies --   1181.0883              1183.6474              1222.9149
 Red. masses --      1.7280                 1.6331                 1.8759
 Frc consts  --      1.4203                 1.3481                 1.6530
 IR Inten    --     28.9639                12.7580                 6.7726

                     31                     32                     33
                      A                      A                      A
 Frequencies --   1259.0225              1294.0070              1305.1606
 Red. masses --      1.4165                 1.6203                 1.3182
 Frc consts  --      1.3229                 1.5986                 1.3230
 IR Inten    --      0.6916                 6.5151                 3.9062

                     34                     35                     36
                      A                      A                      A
 Frequencies --   1321.9199              1417.9848              1444.6377
 Red. masses --      1.3812                 1.4333                 1.4087
 Frc consts  --      1.4221                 1.6980                 1.7321
 IR Inten    --     13.2796                 0.7860                 9.3721

                     37                     38                     39
                      A                      A                      A
 Frequencies --   1448.5782              1467.3464              1490.7724
 Red. masses --      1.7053                 1.1078                 1.3836
 Frc consts  --      2.1083                 1.4053                 1.8117
 IR Inten    --      4.2336                 5.2970                 3.2484

                     40                     41                     42
                      A                      A                      A
 Frequencies --   1531.5663              1822.2078              2836.2442
 Red. masses --      1.3649                10.1478                 1.0810
 Frc consts  --      1.8864                19.8526                 5.1236
 IR Inten    --      3.0954               268.2972                97.9660

                     43                     44                     45
                      A                      A                      A
 Frequencies --   3024.0158              3065.5764              3082.5550
 Red. masses --      1.0595                 1.1000                 1.0505
 Frc consts  --      5.7086                 6.0909                 5.8811
 IR Inten    --     18.3761                 9.2418                31.3285

                     46                     47                     48
                      A                      A                      A
 Frequencies --   3100.3776              3132.5726              3144.4223
 Red. masses --      1.0896                 1.0541                 1.0881
 Frc consts  --      6.1710                 6.0944                 6.3386
 IR Inten    --     23.3791                11.1490                 6.0957

                     49                     50                     51
                      A                      A                      A
 Frequencies --   3169.1223              3173.1343              3219.5010
 Red. masses --      1.1193                 1.0897                 1.1161
 Frc consts  --      6.6230                 6.4646                 6.8162
 IR Inten    --     26.1453                 4.7929                 5.2430

 - Thermochemistry -
 -------------------
 Temperature   298.150 Kelvin.  Pressure   1.00000 Atm.
 Atom     1 has atomic number  8 and mass  15.99491

 Molecular mass:   126.06808 amu.
 Principal axes and moments of inertia in atomic units:
                           1         2         3
     Eigenvalues --   573.511122233.202962581.19990
           X            0.99978   0.01454   0.01489
           Y           -0.01464   0.99987   0.00668
           Z           -0.01479  -0.00690   0.99987
 This molecule is an asymmetric top.
 Rotational symmetry number  1.
 Warning -- assumption of classical behavior for rotation
           may cause significant error
 Rotational temperatures (Kelvin)      0.15102     0.03878     0.03356
 Rotational constants (GHZ):           3.14683     0.80814     0.69919
 Zero-point vibrational energy     413782.1 (Joules/Mol)
                                   98.89629 (Kcal/Mol)
 Warning -- explicit consideration of  11 degrees of freedom as
           vibrations may cause significant error
 Vibrational temperatures:     71.71   104.63   149.82   215.64   333.78
          (Kelvin)            385.56   445.13   549.13   639.50   693.50
                              741.41  1111.43  1133.91  1240.26  1244.64
                             1270.69  1338.96  1357.47  1389.55  1502.17
                             1515.87  1548.40  1559.34  1595.62  1630.10
                             1666.62  1672.53  1699.32  1703.00  1759.50
                             1811.45  1861.79  1877.83  1901.95  2040.16
                             2078.51  2084.18  2111.18  2144.89  2203.58
                             2621.75  4080.72  4350.88  4410.68  4435.10
                             4460.75  4507.07  4524.12  4559.65  4565.43
                             4632.14

 Zero-point correction=                           0.157601 (Hartree/Particle)
 Thermal correction to Energy=                    0.166676
 Thermal correction to Enthalpy=                  0.167620
 Thermal correction to Gibbs Free Energy=         0.122462
 Sum of electronic and zero-point Energies=           -423.001383
 Sum of electronic and thermal Energies=              -422.992308
 Sum of electronic and thermal Enthalpies=            -422.991364
 Sum of electronic and thermal Free Energies=         -423.036522

                     E (Thermal)             CV                S
                      KCal/Mol        Cal/Mol-Kelvin    Cal/Mol-Kelvin
 Total                  104.591             32.636             95.044
 Electronic               0.000              0.000              0.000
 Translational            0.889              2.981             40.409
 Rotational               0.889              2.981             29.582
 Vibrational            102.813             26.674             25.054
 Vibration     1          0.595              1.978              4.824
 Vibration     2          0.599              1.967              4.078
 Vibration     3          0.605              1.946              3.376
 Vibration     4          0.618              1.903              2.674
 Vibration     5          0.653              1.792              1.863
 Vibration     6          0.673              1.732              1.609
 Vibration     7          0.699              1.656              1.366
 Vibration     8          0.751              1.509              1.033
 Vibration     9          0.804              1.373              0.813
 Vibration    10          0.838              1.290              0.705
 Vibration    11          0.870              1.216              0.621

 Optimization completed.
    -- Stationary point found.
 Normal termination of Gaussian 09 at Mon Jan 27 13:54:19 2020.
