 Gaussian 09, Revision D.01,
 Gaussian 09:  ES64L-G09RevD.01 24-Apr-2013

 -----------------------------
 # b3lyp 6-31G(2df,p) opt Freq
 -----------------------------

 -----
 titel
 -----
 Symbolic Z-matrix:
 Charge =  0 Multiplicity = 1

 SCF Done:  E(RB3LYP) =  -423.126743299     A.U. after   13 cycles
 Optimization completed.
    -- Stationary point found.
 Normal termination of Gaussian 09 at Mon Jan 27 16:24:33 2020.

 ----------------------------------------------------------------------
 #N Geom=AllCheck Guess=TCheck SCRF=Check GenChk RB3LYP/6-31G(2df,p) Fr
 eq
 ----------------------------------------------------------------------

 Structure from the checkpoint file:  "/scratch/puck/g09_1bbf23bb-107e-49ca-960c-8f9f4a710b9d/Gau-76344.chk"
 -----
 titel
 -----
 Charge =  0 Multiplicity = 1

                         Standard orientation:
 ---------------------------------------------------------------------
 Center     Atomic      Atomic             Coordinates (Angstroms)
 Number     Number       Type             X           Y           Z
 ---------------------------------------------------------------------
      1          6           0        1.841894    1.420305   -0.047639
      2          6           0        1.106367    0.106628    0.091066
      3          6           0        1.700698   -1.022236    0.825820
      4          8           0        1.687469   -1.004657   -0.602160
      5          6           0       -0.377808    0.185629   -0.006836
      6          6           0       -1.404102    0.665263    1.040434
      7          6           0       -2.449048   -0.304228    0.380251
      8          6           0       -1.363972   -0.711877   -0.627146
      9          8           0       -0.942708    0.488560   -1.291767
     10          1           0        1.534679    2.122962    0.734418
     11          1           0        2.921078    1.265792    0.023423
     12          1           0        1.614867    1.872249   -1.017807
     13          1           0        2.679576   -0.901083    1.288288
     14          1           0        1.056464   -1.768679    1.288751
     15          1           0       -1.150339    0.374767    2.062760
     16          1           0       -1.631283    1.733056    1.007539
     17          1           0       -2.745594   -1.115593    1.049092
     18          1           0       -3.338672    0.152070   -0.059198
     19          1           0       -1.223038   -1.643671   -1.161544
 ---------------------------------------------------------------------

 SCF Done:  E(RB3LYP) =  -423.126743299     A.U. after    1 cycles

 The electronic state is 1-A.
 Alpha  occ. eigenvalues --  -19.15253 -19.14686 -10.24948 -10.23881 -10.23633
 Alpha  occ. eigenvalues --  -10.23415 -10.19290 -10.19177 -10.18392  -1.08181
 Alpha  occ. eigenvalues --   -1.06623  -0.80198  -0.75893  -0.67779  -0.66184
 Alpha  occ. eigenvalues --   -0.64267  -0.59047  -0.54274  -0.52366  -0.48018
 Alpha  occ. eigenvalues --   -0.46262  -0.45197  -0.43334  -0.41983  -0.40228
 Alpha  occ. eigenvalues --   -0.39093  -0.37920  -0.36098  -0.34649  -0.33680
 Alpha  occ. eigenvalues --   -0.30107  -0.29294  -0.26895  -0.25125
 Alpha virt. eigenvalues --    0.08166   0.08902   0.09790   0.11362   0.11803
 Alpha virt. eigenvalues --    0.12303   0.12782   0.13699   0.15277   0.16096
 Alpha virt. eigenvalues --    0.16579   0.17299   0.18987   0.19561   0.20613

 Mulliken charges:
               1
     1  C   -0.478603
     2  C    0.274293
     3  C   -0.220744
     4  O   -0.265283
     5  C    0.404660
     6  C   -0.303779
     7  C   -0.238314
     8  C   -0.044550
     9  O   -0.298149
    10  H    0.123766
    11  H    0.126933
    12  H    0.146938
    13  H    0.113276
    14  H    0.108302
    15  H    0.106875
    16  H    0.110297
    17  H    0.106318
    18  H    0.114105
    19  H    0.113661
 Sum of Mulliken charges =   0.00000

 Dipole moment (field-independent basis, Debye):
    X=             -0.2607    Y=             -0.1068    Z=              2.7845  Tot=              2.7987
 Quadrupole moment (field-independent basis, Debye-Ang):
   XX=            -51.4703   YY=            -51.9148   ZZ=            -55.0252
   XY=              3.3326   XZ=              1.5943   YZ=             -0.4736

  Exact polarizability:  84.345   2.009  72.677   1.900  -1.046  67.131
 Approx polarizability: 108.068   1.289 109.381   3.221  -2.176 109.568

                      1                      2                      3
                      A                      A                      A
 Frequencies --     58.5097               139.4268               164.4324
 Red. masses --      3.6443                 2.8708                 2.6384
 Frc consts  --      0.0074                 0.0329                 0.0420
 IR Inten    --      1.0417                 1.7010                 0.4562

                      4                      5                      6
                      A                      A                      A
 Frequencies --    202.3042               264.0793               297.4766
 Red. masses --      1.1941                 1.9529                 3.0963
 Frc consts  --      0.0288                 0.0802                 0.1614
 IR Inten    --      0.1448                 0.1757                 0.4024

                      7                      8                      9
                      A                      A                      A
 Frequencies --    354.7381               445.0197               494.6140
 Red. masses --      2.6558                 3.5185                 3.0543
 Frc consts  --      0.1969                 0.4106                 0.4403
 IR Inten    --      5.0630                 1.6189                 4.9873

                     10                     11                     12
                      A                      A                      A
 Frequencies --    525.5917               552.8270               738.4535
 Red. masses --      4.1510                 3.4337                 5.0207
 Frc consts  --      0.6756                 0.6183                 1.6131
 IR Inten    --     19.8039                 4.9580                 1.3321

                     13                     14                     15
                      A                      A                      A
 Frequencies --    773.9675               804.6938               872.2171
 Red. masses --      1.3520                 3.8835                 2.9832
 Frc consts  --      0.4772                 1.4816                 1.3372
 IR Inten    --      0.4100                 9.1134                20.2569

                     16                     17                     18
                      A                      A                      A
 Frequencies --    886.3748               913.9185               925.7300
 Red. masses --      2.3550                 1.8970                 1.7290
 Frc consts  --      1.0901                 0.9335                 0.8730
 IR Inten    --     15.7270                 0.6713                 6.3861

                     19                     20                     21
                      A                      A                      A
 Frequencies --    939.0858               941.8346              1001.2887
 Red. masses --      2.9914                 3.3022                 1.6408
 Frc consts  --      1.5543                 1.7258                 0.9692
 IR Inten    --     16.6283                 2.3003                 5.9331

                     22                     23                     24
                      A                      A                      A
 Frequencies --   1028.2813              1060.2663              1094.1701
 Red. masses --      1.9083                 2.0178                 2.0495
 Frc consts  --      1.1888                 1.3364                 1.4457
 IR Inten    --      5.9238                 6.8563                16.6023

                     25                     26                     27
                      A                      A                      A
 Frequencies --   1124.8414              1134.7042              1154.3562
 Red. masses --      2.0382                 1.3559                 1.5189
 Frc consts  --      1.5194                 1.0286                 1.1925
 IR Inten    --      8.6265                 6.6133                 9.8254

                     28                     29                     30
                      A                      A                      A
 Frequencies --   1172.4376              1208.3714              1214.0315
 Red. masses --      1.4536                 1.5851                 1.2394
 Frc consts  --      1.1772                 1.3636                 1.0762
 IR Inten    --      2.4501                 5.3166                 2.2402

                     31                     32                     33
                      A                      A                      A
 Frequencies --   1224.3970              1271.4997              1294.5488
 Red. masses --      1.4261                 1.6289                 2.2726
 Frc consts  --      1.2597                 1.5516                 2.2439
 IR Inten    --     11.4638                 2.9021                 6.6754

                     34                     35                     36
                      A                      A                      A
 Frequencies --   1379.1054              1410.3939              1462.1649
 Red. masses --      2.5524                 1.4091                 1.8220
 Frc consts  --      2.8602                 1.6514                 2.2951
 IR Inten    --     13.7883                 9.7809                 8.3399

                     37                     38                     39
                      A                      A                      A
 Frequencies --   1464.1179              1479.1336              1491.3628
 Red. masses --      1.1043                 1.0548                 1.1834
 Frc consts  --      1.3947                 1.3597                 1.5508
 IR Inten    --      0.5996                 6.2377                 0.4416

                     40                     41                     42
                      A                      A                      A
 Frequencies --   1506.1051              1527.6745              3040.2502
 Red. masses --      1.4999                 1.4385                 1.0356
 Frc consts  --      2.0046                 1.9780                 5.6397
 IR Inten    --      4.2490                 2.2964                12.9513

                     43                     44                     45
                      A                      A                      A
 Frequencies --   3064.3398              3072.0537              3079.5281
 Red. masses --      1.0563                 1.0591                 1.0503
 Frc consts  --      5.8440                 5.8891                 5.8685
 IR Inten    --     31.3519                29.3788                24.4866

                     46                     47                     48
                      A                      A                      A
 Frequencies --   3108.6699              3116.4749              3128.8803
 Red. masses --      1.0999                 1.1090                 1.1026
 Frc consts  --      6.2628                 6.3464                 6.3597
 IR Inten    --     13.0278                 0.7746                11.9008

                     49                     50                     51
                      A                      A                      A
 Frequencies --   3132.7641              3166.2977              3197.1638
 Red. masses --      1.1083                 1.1195                 1.0942
 Frc consts  --      6.4086                 6.6126                 6.5901
 IR Inten    --     35.1143                25.6470                11.3835

 - Thermochemistry -
 -------------------
 Temperature   298.150 Kelvin.  Pressure   1.00000 Atm.
 Atom     1 has atomic number  6 and mass  12.00000

 Molecular mass:   126.06808 amu.
 Principal axes and moments of inertia in atomic units:
                           1         2         3
     Eigenvalues --   582.417031388.464041451.37713
           X            0.99952   0.03062  -0.00449
           Y           -0.03072   0.99921  -0.02527
           Z            0.00371   0.02539   0.99967
 This molecule is an asymmetric top.
 Rotational symmetry number  1.
 Warning -- assumption of classical behavior for rotation
           may cause significant error
 Rotational temperatures (Kelvin)      0.14871     0.06238     0.05968
 Rotational constants (GHZ):           3.09871     1.29981     1.24347
 Zero-point vibrational energy     413339.5 (Joules/Mol)
                                   98.79051 (Kcal/Mol)
 Warning -- explicit consideration of  11 degrees of freedom as
           vibrations may cause significant error
 Vibrational temperatures:     84.18   200.60   236.58   291.07   379.95
          (Kelvin)            428.00   510.39   640.28   711.64   756.21
                              795.39  1062.47  1113.57  1157.77  1254.92
                             1275.29  1314.92  1331.92  1351.13  1355.09
                             1440.63  1479.47  1525.48  1574.26  1618.39
                             1632.58  1660.86  1686.87  1738.57  1746.72
                             1761.63  1829.40  1862.56  1984.22  2029.24
                             2103.73  2106.54  2128.14  2145.74  2166.95
                             2197.98  4374.24  4408.90  4419.99  4430.75
                             4472.68  4483.91  4501.76  4507.34  4555.59
                             4600.00

 Zero-point correction=                           0.157433 (Hartree/Particle)
 Thermal correction to Energy=                    0.165953
 Thermal correction to Enthalpy=                  0.166897
 Thermal correction to Gibbs Free Energy=         0.124125
 Sum of electronic and zero-point Energies=           -422.969311
 Sum of electronic and thermal Energies=              -422.960791
 Sum of electronic and thermal Enthalpies=            -422.959847
 Sum of electronic and thermal Free Energies=         -423.002619

                     E (Thermal)             CV                S
                      KCal/Mol        Cal/Mol-Kelvin    Cal/Mol-Kelvin
 Total                  104.137             32.390             90.022
 Electronic               0.000              0.000              0.000
 Translational            0.889              2.981             40.409
 Rotational               0.889              2.981             28.553
 Vibrational            102.359             26.428             21.060
 Vibration     1          0.596              1.974              4.507
 Vibration     2          0.615              1.914              2.812
 Vibration     3          0.623              1.886              2.498
 Vibration     4          0.639              1.837              2.112
 Vibration     5          0.671              1.739              1.635
 Vibration     6          0.691              1.678              1.431
 Vibration     7          0.731              1.566              1.145
 Vibration     8          0.804              1.372              0.811
 Vibration     9          0.850              1.262              0.672
 Vibration    10          0.881              1.193              0.597
 Vibration    11          0.908              1.134              0.538

 Optimization completed.
    -- Stationary point found.
 Normal termination of Gaussian 09 at Mon Jan 27 17:16:19 2020.
