 Gaussian 09, Revision D.01,
 Gaussian 09:  ES64L-G09RevD.01 24-Apr-2013

 -----------------------------
 # b3lyp 6-31G(2df,p) opt Freq
 -----------------------------

 -----
 titel
 -----
 Symbolic Z-matrix:
 Charge =  0 Multiplicity = 1

 SCF Done:  E(RB3LYP) =  -423.143816693     A.U. after   13 cycles
 Optimization completed.
    -- Stationary point found.
 Normal termination of Gaussian 09 at Mon Jan 27 23:47:34 2020.

 ----------------------------------------------------------------------
 #N Geom=AllCheck Guess=TCheck SCRF=Check GenChk RB3LYP/6-31G(2df,p) Fr
 eq
 ----------------------------------------------------------------------

 Structure from the checkpoint file:  "/scratch/puck/g09_8e93c7d7-9ee1-4fd4-96bf-58b7bbaabef6/Gau-186185.chk"
 -----
 titel
 -----
 Charge =  0 Multiplicity = 1

                         Standard orientation:
 ---------------------------------------------------------------------
 Center     Atomic      Atomic             Coordinates (Angstroms)
 Number     Number       Type             X           Y           Z
 ---------------------------------------------------------------------
      1          8           0        2.894303   -0.262369    0.059343
      2          6           0        1.552109   -0.094433    0.414765
      3          6           0        0.690488    0.790720   -0.467252
      4          8           0       -0.405201    1.509110    0.041135
      5          6           0       -1.583155    0.729064    0.245962
      6          6           0       -1.303647   -0.482510    1.173229
      7          6           0       -0.809661   -1.206034   -0.114819
      8          6           0       -1.826223   -0.305443   -0.890616
      9          6           0        0.567124   -0.713082   -0.540540
     10          1           0        3.372607    0.528995    0.330006
     11          1           0        1.341287   -0.120156    1.482331
     12          1           0        1.203537    1.326662   -1.260828
     13          1           0       -2.365270    1.443500    0.505655
     14          1           0       -0.627203   -0.339810    2.017568
     15          1           0       -2.235937   -0.926796    1.531489
     16          1           0       -0.901517   -2.292566   -0.164202
     17          1           0       -1.575786   -0.010516   -1.912317
     18          1           0       -2.847507   -0.691915   -0.849388
     19          1           0        1.000763   -1.201017   -1.408515
 ---------------------------------------------------------------------

 SCF Done:  E(RB3LYP) =  -423.143816693     A.U. after    1 cycles

 The electronic state is 1-A.
 Alpha  occ. eigenvalues --  -19.14287 -19.14180 -10.23457 -10.22945 -10.22641
 Alpha  occ. eigenvalues --  -10.19740 -10.18800 -10.18147 -10.18128  -1.04066
 Alpha  occ. eigenvalues --   -1.02388  -0.85415  -0.82655  -0.66868  -0.65621
 Alpha  occ. eigenvalues --   -0.62740  -0.58327  -0.53690  -0.51121  -0.50424
 Alpha  occ. eigenvalues --   -0.47180  -0.45805  -0.42554  -0.41166  -0.39613
 Alpha  occ. eigenvalues --   -0.38157  -0.37033  -0.35887  -0.33067  -0.31623
 Alpha  occ. eigenvalues --   -0.29944  -0.28604  -0.25493  -0.22311
 Alpha virt. eigenvalues --    0.07831   0.08603   0.10703   0.11623   0.12778
 Alpha virt. eigenvalues --    0.13078   0.14381   0.15194   0.17263   0.18000
 Alpha virt. eigenvalues --    0.18726   0.19365   0.20325   0.21216   0.22413

 Mulliken charges:
               1
     1  O   -0.429985
     2  C    0.018818
     3  C    0.043803
     4  O   -0.273290
     5  C    0.133611
     6  C   -0.252592
     7  C   -0.053965
     8  C   -0.236243
     9  C   -0.071623
    10  H    0.287351
    11  H    0.090915
    12  H    0.097787
    13  H    0.075492
    14  H    0.101645
    15  H    0.100985
    16  H    0.067566
    17  H    0.099973
    18  H    0.099224
    19  H    0.100528
 Sum of Mulliken charges =   0.00000

 Dipole moment (field-independent basis, Debye):
    X=             -0.6423    Y=             -0.1413    Z=              0.2779  Tot=              0.7140
 Quadrupole moment (field-independent basis, Debye-Ang):
   XX=            -50.1355   YY=            -55.6258   ZZ=            -51.6982
   XY=              5.4726   XZ=              0.7466   YZ=              0.1414

  Exact polarizability:  87.628   2.506  66.953  -0.534  -0.023  67.632
 Approx polarizability: 116.656   1.784 105.732  -0.180   0.907 102.354

                      1                      2                      3
                      A                      A                      A
 Frequencies --    188.1079               243.5604               266.0228
 Red. masses --      3.8748                 2.3627                 3.1071
 Frc consts  --      0.0808                 0.0826                 0.1296
 IR Inten    --      1.1434                31.0955                 6.7662

                      4                      5                      6
                      A                      A                      A
 Frequencies --    331.9637               358.1773               407.7715
 Red. masses --      1.5912                 2.7332                 3.6699
 Frc consts  --      0.1033                 0.2066                 0.3595
 IR Inten    --     35.0715                51.8595                 0.7186

                      7                      8                      9
                      A                      A                      A
 Frequencies --    454.4955               472.8256               527.5179
 Red. masses --      2.7555                 2.1909                 4.1623
 Frc consts  --      0.3354                 0.2886                 0.6824
 IR Inten    --      0.6353                 0.5312                 1.2701

                     10                     11                     12
                      A                      A                      A
 Frequencies --    650.6858               799.2596               809.4741
 Red. masses --      3.4723                 2.0561                 2.4783
 Frc consts  --      0.8662                 0.7739                 0.9568
 IR Inten    --      2.5396                 1.3343                 4.2700

                     13                     14                     15
                      A                      A                      A
 Frequencies --    820.5557               878.1578               894.3921
 Red. masses --      2.8788                 2.4979                 2.2288
 Frc consts  --      1.1420                 1.1349                 1.0505
 IR Inten    --     14.4311                 0.4411                 2.9352

                     16                     17                     18
                      A                      A                      A
 Frequencies --    911.3217               927.6832               938.1213
 Red. masses --      2.0657                 3.7354                 3.1719
 Frc consts  --      1.0108                 1.8940                 1.6447
 IR Inten    --     16.2539                12.1926                 7.1821

                     19                     20                     21
                      A                      A                      A
 Frequencies --    984.5239               994.5371              1040.2870
 Red. masses --      1.7946                 1.8917                 1.4689
 Frc consts  --      1.0248                 1.1024                 0.9366
 IR Inten    --      2.4520                 4.2885                10.4864

                     22                     23                     24
                      A                      A                      A
 Frequencies --   1062.1596              1072.6311              1101.2628
 Red. masses --      1.2851                 1.9814                 1.4304
 Frc consts  --      0.8542                 1.3431                 1.0221
 IR Inten    --      7.0605                62.9694                27.5298

                     25                     26                     27
                      A                      A                      A
 Frequencies --   1110.4568              1126.7968              1144.3147
 Red. masses --      1.3429                 2.3209                 1.9659
 Frc consts  --      0.9756                 1.7362                 1.5167
 IR Inten    --      9.0131                20.6739                22.6196

                     28                     29                     30
                      A                      A                      A
 Frequencies --   1177.0459              1178.6807              1219.4565
 Red. masses --      1.5123                 2.9783                 2.0176
 Frc consts  --      1.2345                 2.4379                 1.7678
 IR Inten    --     43.8781                 9.9313                52.4497

                     31                     32                     33
                      A                      A                      A
 Frequencies --   1239.2261              1263.0868              1267.8458
 Red. masses --      1.3598                 1.7072                 1.5648
 Frc consts  --      1.2303                 1.6047                 1.4820
 IR Inten    --      1.6641                 8.9383                 1.4782

                     34                     35                     36
                      A                      A                      A
 Frequencies --   1286.4196              1310.0722              1337.9003
 Red. masses --      1.2464                 1.2122                 1.6043
 Frc consts  --      1.2152                 1.2258                 1.6919
 IR Inten    --     33.8275                 2.2916                17.7989

                     37                     38                     39
                      A                      A                      A
 Frequencies --   1349.0660              1380.7726              1460.0249
 Red. masses --      1.5451                 1.3305                 1.9297
 Frc consts  --      1.6569                 1.4945                 2.4236
 IR Inten    --      5.2020                 7.0817                10.6510

                     40                     41                     42
                      A                      A                      A
 Frequencies --   1475.4342              1505.7864              3061.5395
 Red. masses --      1.2102                 1.1190                 1.0569
 Frc consts  --      1.5522                 1.4949                 5.8364
 IR Inten    --      1.8024                 3.4852                34.3174

                     43                     44                     45
                      A                      A                      A
 Frequencies --   3066.4003              3087.8631              3105.6964
 Red. masses --      1.0606                 1.0868                 1.0904
 Frc consts  --      5.8759                 6.1055                 6.1966
 IR Inten    --      9.9970                47.6740                44.4499

                     46                     47                     48
                      A                      A                      A
 Frequencies --   3110.4411              3123.9860              3126.6901
 Red. masses --      1.0931                 1.1085                 1.1014
 Frc consts  --      6.2310                 6.3738                 6.3439
 IR Inten    --     26.0131                35.6244                31.1312

                     49                     50                     51
                      A                      A                      A
 Frequencies --   3143.7280              3157.2147              3797.6302
 Red. masses --      1.0885                 1.0895                 1.0661
 Frc consts  --      6.3384                 6.3986                 9.0590
 IR Inten    --     19.3742                16.6336                22.1309

 - Thermochemistry -
 -------------------
 Temperature   298.150 Kelvin.  Pressure   1.00000 Atm.
 Atom     1 has atomic number  8 and mass  15.99491

 Molecular mass:   126.06808 amu.
 Principal axes and moments of inertia in atomic units:
                           1         2         3
     Eigenvalues --   512.455891300.095941439.16671
           X            0.99975   0.02249  -0.00072
           Y           -0.02250   0.99970  -0.00975
           Z            0.00050   0.00976   0.99995
 This molecule is an asymmetric top.
 Rotational symmetry number  1.
 Warning -- assumption of classical behavior for rotation
           may cause significant error
 Rotational temperatures (Kelvin)      0.16902     0.06662     0.06018
 Rotational constants (GHZ):           3.52175     1.38816     1.25402
 Zero-point vibrational energy     423173.4 (Joules/Mol)
                                  101.14087 (Kcal/Mol)
 Warning -- explicit consideration of   9 degrees of freedom as
           vibrations may cause significant error
 Vibrational temperatures:    270.64   350.43   382.75   477.62   515.34
          (Kelvin)            586.69   653.92   680.29   758.98   936.19
                             1149.95  1164.65  1180.60  1263.47  1286.83
                             1311.19  1334.73  1349.75  1416.51  1430.92
                             1496.74  1528.21  1543.28  1584.47  1597.70
                             1621.21  1646.41  1693.50  1695.86  1754.52
                             1782.97  1817.30  1824.15  1850.87  1884.90
                             1924.94  1941.00  1986.62  2100.65  2122.82
                             2166.49  4404.87  4411.86  4442.74  4468.40
                             4475.23  4494.71  4498.60  4523.12  4542.52
                             5463.94

 Zero-point correction=                           0.161178 (Hartree/Particle)
 Thermal correction to Energy=                    0.168332
 Thermal correction to Enthalpy=                  0.169277
 Thermal correction to Gibbs Free Energy=         0.130078
 Sum of electronic and zero-point Energies=           -422.982638
 Sum of electronic and thermal Energies=              -422.975484
 Sum of electronic and thermal Enthalpies=            -422.974540
 Sum of electronic and thermal Free Energies=         -423.013739

                     E (Thermal)             CV                S
                      KCal/Mol        Cal/Mol-Kelvin    Cal/Mol-Kelvin
 Total                  105.630             29.905             82.500
 Electronic               0.000              0.000              0.000
 Translational            0.889              2.981             40.409
 Rotational               0.889              2.981             28.352
 Vibrational            103.853             23.943             13.740
 Vibration     1          0.633              1.856              2.246
 Vibration     2          0.659              1.773              1.777
 Vibration     3          0.672              1.735              1.622
 Vibration     4          0.714              1.612              1.251
 Vibration     5          0.733              1.558              1.130
 Vibration     6          0.772              1.453              0.935
 Vibration     7          0.813              1.351              0.782
 Vibration     8          0.830              1.310              0.730
 Vibration     9          0.882              1.189              0.593

 Optimization completed.
    -- Stationary point found.
 Normal termination of Gaussian 09 at Tue Jan 28 00:34:42 2020.
