 Gaussian 09, Revision D.01,
 Gaussian 09:  ES64L-G09RevD.01 24-Apr-2013

 -----------------------------
 # b3lyp 6-31G(2df,p) opt Freq
 -----------------------------

 -----
 titel
 -----
 Symbolic Z-matrix:
 Charge =  0 Multiplicity = 1

 SCF Done:  E(RB3LYP) =  -423.154731809     A.U. after   14 cycles
 Optimization completed.
    -- Stationary point found.
 Normal termination of Gaussian 09 at Tue Jan 28 08:21:36 2020.

 ----------------------------------------------------------------------
 #N Geom=AllCheck Guess=TCheck SCRF=Check GenChk RB3LYP/6-31G(2df,p) Fr
 eq
 ----------------------------------------------------------------------

 Structure from the checkpoint file:  "/scratch/puck/g09_5b12285b-22f9-4567-99c7-dcd4ce53cce1/Gau-59771.chk"
 -----
 titel
 -----
 Charge =  0 Multiplicity = 1

                         Standard orientation:
 ---------------------------------------------------------------------
 Center     Atomic      Atomic             Coordinates (Angstroms)
 Number     Number       Type             X           Y           Z
 ---------------------------------------------------------------------
      1          6           0       -2.424117   -1.119569   -0.613541
      2          6           0       -2.084584   -0.198002    0.573460
      3          6           0       -0.971713    0.768139    0.206798
      4          8           0       -1.170563    1.806153   -0.382320
      5          6           0        0.447776    0.390618    0.623102
      6          8           0        0.683866   -1.046513    0.564103
      7          6           0        1.650973   -0.844785   -0.478351
      8          6           0        2.804905   -0.032994    0.013892
      9          6           0        1.528102    0.660043   -0.415562
     10          1           0       -1.569698   -1.751565   -0.866869
     11          1           0       -3.267033   -1.768665   -0.360544
     12          1           0       -2.697692   -0.528966   -1.492424
     13          1           0       -2.960513    0.401110    0.840506
     14          1           0       -1.789567   -0.803298    1.435846
     15          1           0        0.622823    0.787453    1.635274
     16          1           0        1.667231   -1.556349   -1.295003
     17          1           0        3.086676   -0.081627    1.062368
     18          1           0        3.631361    0.074491   -0.682022
     19          1           0        1.461941    1.409589   -1.190179
 ---------------------------------------------------------------------

 SCF Done:  E(RB3LYP) =  -423.154731809     A.U. after    1 cycles

 The electronic state is 1-A.
 Alpha  occ. eigenvalues --  -19.15065 -19.13365 -10.26945 -10.24782 -10.24750
 Alpha  occ. eigenvalues --  -10.20320 -10.19735 -10.19010 -10.18272  -1.06391
 Alpha  occ. eigenvalues --   -1.04104  -0.84077  -0.78129  -0.72723  -0.64754
 Alpha  occ. eigenvalues --   -0.61141  -0.57835  -0.53456  -0.51068  -0.49011
 Alpha  occ. eigenvalues --   -0.47338  -0.45415  -0.44318  -0.41367  -0.40672
 Alpha  occ. eigenvalues --   -0.39448  -0.37270  -0.35602  -0.34968  -0.34806
 Alpha  occ. eigenvalues --   -0.32778  -0.29241  -0.26092  -0.23322
 Alpha virt. eigenvalues --   -0.02171   0.07504   0.10142   0.11183   0.11841
 Alpha virt. eigenvalues --    0.13017   0.13691   0.14081   0.15497   0.15936
 Alpha virt. eigenvalues --    0.17413   0.17569   0.18970   0.20617   0.21920

 Mulliken charges:
               1
     1  C   -0.380540
     2  C   -0.265751
     3  C    0.355281
     4  O   -0.311526
     5  C    0.013311
     6  O   -0.301158
     7  C    0.105884
     8  C   -0.308698
     9  C   -0.112672
    10  H    0.136580
    11  H    0.120650
    12  H    0.133012
    13  H    0.121215
    14  H    0.117495
    15  H    0.106744
    16  H    0.109057
    17  H    0.118479
    18  H    0.120952
    19  H    0.121685
 Sum of Mulliken charges =   0.00000

 Dipole moment (field-independent basis, Debye):
    X=              0.9718    Y=             -1.1089    Z=              0.1094  Tot=              1.4785
 Quadrupole moment (field-independent basis, Debye-Ang):
   XX=            -48.9359   YY=            -59.0339   ZZ=            -51.0641
   XY=              3.4125   XZ=             -3.0181   YZ=              3.4752

  Exact polarizability:  89.723   0.326  71.040  -1.247   0.226  64.638
 Approx polarizability: 111.080  -2.531 116.382  -1.139  -5.359  99.629

                      1                      2                      3
                      A                      A                      A
 Frequencies --     31.8856                62.6208               139.8184
 Red. masses --      4.1573                 2.4861                 3.8912
 Frc consts  --      0.0025                 0.0057                 0.0448
 IR Inten    --      4.0755                 0.0925                 1.5677

                      4                      5                      6
                      A                      A                      A
 Frequencies --    165.6010               231.4565               233.5043
 Red. masses --      2.7397                 2.2974                 1.4566
 Frc consts  --      0.0443                 0.0725                 0.0468
 IR Inten    --      7.3130                 1.5767                 3.5376

                      7                      8                      9
                      A                      A                      A
 Frequencies --    330.1805               438.1726               462.5301
 Red. masses --      3.6380                 2.7738                 3.3219
 Frc consts  --      0.2337                 0.3138                 0.4187
 IR Inten    --      0.6191                 0.1220                 6.9488

                     10                     11                     12
                      A                      A                      A
 Frequencies --    558.0208               609.2685               761.7542
 Red. masses --      3.4447                 4.1655                 1.7210
 Frc consts  --      0.6320                 0.9110                 0.5884
 IR Inten    --     11.9126                 5.3197                 6.3346

                     13                     14                     15
                      A                      A                      A
 Frequencies --    790.9445               805.0856               832.8478
 Red. masses --      1.7971                 1.3614                 2.7855
 Frc consts  --      0.6624                 0.5199                 1.1384
 IR Inten    --      4.0245                 3.4114                31.5152

                     16                     17                     18
                      A                      A                      A
 Frequencies --    873.4765               938.5638               953.2611
 Red. masses --      3.0237                 2.0407                 2.5653
 Frc consts  --      1.3592                 1.0591                 1.3735
 IR Inten    --      5.6939                 7.6920                35.4545

                     19                     20                     21
                      A                      A                      A
 Frequencies --    965.5056               987.1569              1014.9101
 Red. masses --      2.2973                 2.5393                 2.6223
 Frc consts  --      1.2618                 1.4580                 1.5915
 IR Inten    --     18.3242                10.5912                29.1506

                     22                     23                     24
                      A                      A                      A
 Frequencies --   1041.8465              1051.1903              1066.9550
 Red. masses --      1.3422                 1.5905                 1.7715
 Frc consts  --      0.8584                 1.0355                 1.1882
 IR Inten    --     13.9302                 6.3538                11.5591

                     25                     26                     27
                      A                      A                      A
 Frequencies --   1068.6889              1083.9592              1096.1798
 Red. masses --      1.6247                 1.5931                 2.1947
 Frc consts  --      1.0933                 1.1028                 1.5538
 IR Inten    --     18.6630                20.1469                13.0166

                     28                     29                     30
                      A                      A                      A
 Frequencies --   1181.2691              1201.4494              1225.8590
 Red. masses --      1.8256                 1.9510                 1.3833
 Frc consts  --      1.5009                 1.6593                 1.2247
 IR Inten    --     33.4960                 0.5161                20.7996

                     31                     32                     33
                      A                      A                      A
 Frequencies --   1280.0736              1284.9186              1333.1836
 Red. masses --      1.2481                 1.6433                 1.5584
 Frc consts  --      1.2050                 1.5985                 1.6320
 IR Inten    --      7.7720                 3.0432                 6.7118

                     34                     35                     36
                      A                      A                      A
 Frequencies --   1341.8896              1363.1004              1398.9312
 Red. masses --      1.8740                 1.9639                 1.2199
 Frc consts  --      1.9882                 2.1499                 1.4066
 IR Inten    --      8.8559                14.4620                 2.8001

                     37                     38                     39
                      A                      A                      A
 Frequencies --   1472.8798              1474.3786              1496.9488
 Red. masses --      1.2488                 1.1068                 1.0429
 Frc consts  --      1.5961                 1.4175                 1.3770
 IR Inten    --      5.0483                 4.4827                 5.2957

                     40                     41                     42
                      A                      A                      A
 Frequencies --   1510.6359              1805.5410              2990.3525
 Red. masses --      1.0596                11.7593                 1.0818
 Frc consts  --      1.4246                22.5863                 5.6995
 IR Inten    --      5.1029               131.4569                35.9853

                     43                     44                     45
                      A                      A                      A
 Frequencies --   3047.0745              3051.2815              3101.6743
 Red. masses --      1.0346                 1.0566                 1.1046
 Frc consts  --      5.6596                 5.7957                 6.2609
 IR Inten    --     19.4862                15.5486                 4.7544

                     46                     47                     48
                      A                      A                      A
 Frequencies --   3114.7595              3119.3439              3134.2303
 Red. masses --      1.0545                 1.1023                 1.1032
 Frc consts  --      6.0274                 6.3192                 6.3853
 IR Inten    --     12.9882                21.5768                24.3150

                     49                     50                     51
                      A                      A                      A
 Frequencies --   3187.2545              3207.5827              3230.3638
 Red. masses --      1.0939                 1.1145                 1.0960
 Frc consts  --      6.5471                 6.7561                 6.7383
 IR Inten    --     13.9890                 7.5487                 3.1311

 - Thermochemistry -
 -------------------
 Temperature   298.150 Kelvin.  Pressure   1.00000 Atm.
 Atom     1 has atomic number  6 and mass  12.00000

 Molecular mass:   126.06808 amu.
 Principal axes and moments of inertia in atomic units:
                           1         2         3
     Eigenvalues --   567.998351504.261811793.29713
           X            0.99925   0.03876  -0.00029
           Y           -0.03871   0.99826   0.04439
           Z            0.00201  -0.04434   0.99901
 This molecule is an asymmetric top.
 Rotational symmetry number  1.
 Warning -- assumption of classical behavior for rotation
           may cause significant error
 Rotational temperatures (Kelvin)      0.15249     0.05758     0.04830
 Rotational constants (GHZ):           3.17737     1.19975     1.00638
 Zero-point vibrational energy     413611.0 (Joules/Mol)
                                   98.85540 (Kcal/Mol)
 Warning -- explicit consideration of  11 degrees of freedom as
           vibrations may cause significant error
 Vibrational temperatures:     45.88    90.10   201.17   238.26   333.01
          (Kelvin)            335.96   475.06   630.43   665.48   802.87
                              876.60  1095.99  1137.99  1158.34  1198.28
                             1256.74  1350.38  1371.53  1389.15  1420.30
                             1460.23  1498.98  1512.43  1535.11  1537.60
                             1559.57  1577.16  1699.58  1728.62  1763.74
                             1841.74  1848.71  1918.15  1930.68  1961.19
                             2012.75  2119.14  2121.30  2153.77  2173.47
                             2597.77  4302.44  4384.06  4390.11  4462.61
                             4481.44  4488.03  4509.45  4585.74  4614.99
                             4647.77

 Zero-point correction=                           0.157536 (Hartree/Particle)
 Thermal correction to Energy=                    0.166487
 Thermal correction to Enthalpy=                  0.167431
 Thermal correction to Gibbs Free Energy=         0.122579
 Sum of electronic and zero-point Energies=           -422.997196
 Sum of electronic and thermal Energies=              -422.988245
 Sum of electronic and thermal Enthalpies=            -422.987300
 Sum of electronic and thermal Free Energies=         -423.032153

                     E (Thermal)             CV                S
                      KCal/Mol        Cal/Mol-Kelvin    Cal/Mol-Kelvin
 Total                  104.472             32.579             94.400
 Electronic               0.000              0.000              0.000
 Translational            0.889              2.981             40.409
 Rotational               0.889              2.981             28.818
 Vibrational            102.695             26.617             25.174
 Vibration     1          0.594              1.983              5.709
 Vibration     2          0.597              1.972              4.373
 Vibration     3          0.615              1.914              2.806
 Vibration     4          0.624              1.885              2.485
 Vibration     5          0.653              1.793              1.868
 Vibration     6          0.654              1.790              1.852
 Vibration     7          0.713              1.615              1.259
 Vibration     8          0.798              1.387              0.832
 Vibration     9          0.820              1.333              0.759
 Vibration    10          0.914              1.122              0.528
 Vibration    11          0.968              1.012              0.434

 Optimization completed.
    -- Stationary point found.
 Normal termination of Gaussian 09 at Tue Jan 28 10:15:54 2020.
