 Gaussian 09, Revision D.01,
 Gaussian 09:  ES64L-G09RevD.01 24-Apr-2013

 -----------------------------
 # b3lyp 6-31G(2df,p) opt Freq
 -----------------------------

 -----
 titel
 -----
 Symbolic Z-matrix:
 Charge =  0 Multiplicity = 1

 SCF Done:  E(RB3LYP) =  -423.114586612     A.U. after   13 cycles
 Optimization completed.
    -- Stationary point found.
 Normal termination of Gaussian 09 at Tue Jan 28 02:18:52 2020.

 ----------------------------------------------------------------------
 #N Geom=AllCheck Guess=TCheck SCRF=Check GenChk RB3LYP/6-31G(2df,p) Fr
 eq
 ----------------------------------------------------------------------

 Structure from the checkpoint file:  "/scratch/puck/g09_4545d34b-7860-48d0-918d-40c8efae911d/Gau-4898.chk"
 -----
 titel
 -----
 Charge =  0 Multiplicity = 1

                         Standard orientation:
 ---------------------------------------------------------------------
 Center     Atomic      Atomic             Coordinates (Angstroms)
 Number     Number       Type             X           Y           Z
 ---------------------------------------------------------------------
      1          6           0       -3.430289    0.672905    0.147275
      2          6           0       -2.164281    0.140874   -0.472503
      3          8           0       -1.803638   -1.207752   -0.147543
      4          6           0       -0.952470   -0.146834    0.308290
      5          6           0        0.417567   -0.088516   -0.276351
      6          6           0        1.393313    0.868119    0.394022
      7          6           0        2.736023    0.788664   -0.322698
      8          8           0        2.761378   -0.660711   -0.199092
      9          6           0        1.549118   -0.624922    0.554105
     10          1           0       -4.309299    0.253668   -0.353375
     11          1           0       -3.483709    0.409832    1.207219
     12          1           0       -3.477372    1.763195    0.052686
     13          1           0       -2.022918    0.385341   -1.527538
     14          1           0       -1.002328    0.023933    1.386767
     15          1           0        0.469246   -0.235542   -1.353323
     16          1           0        1.084807    1.632327    1.094841
     17          1           0        2.780530    1.120340   -1.366762
     18          1           0        3.561166    1.233783    0.244558
     19          1           0        1.444080   -1.300912    1.395171
 ---------------------------------------------------------------------

 SCF Done:  E(RB3LYP) =  -423.114586613     A.U. after    1 cycles

 The electronic state is 1-A.
 Alpha  occ. eigenvalues --  -19.14497 -19.14011 -10.24293 -10.24035 -10.23960
 Alpha  occ. eigenvalues --  -10.23761 -10.20284 -10.19971 -10.18510  -1.06647
 Alpha  occ. eigenvalues --   -1.05409  -0.84409  -0.74586  -0.70987  -0.67325
 Alpha  occ. eigenvalues --   -0.60126  -0.58838  -0.55398  -0.52498  -0.49577
 Alpha  occ. eigenvalues --   -0.47646  -0.45568  -0.44353  -0.41972  -0.40587
 Alpha  occ. eigenvalues --   -0.39928  -0.37607  -0.36686  -0.34781  -0.33201
 Alpha  occ. eigenvalues --   -0.29979  -0.27863  -0.26316  -0.23367
 Alpha virt. eigenvalues --    0.07268   0.09419   0.10064   0.11023   0.11456
 Alpha virt. eigenvalues --    0.11894   0.13147   0.14042   0.14802   0.15644
 Alpha virt. eigenvalues --    0.16745   0.17291   0.18237   0.19245   0.21098

 Mulliken charges:
               1
     1  C   -0.419669
     2  C    0.070524
     3  O   -0.265164
     4  C    0.044863
     5  C   -0.074199
     6  C   -0.148938
     7  C   -0.096763
     8  O   -0.288461
     9  C    0.096532
    10  H    0.131102
    11  H    0.126132
    12  H    0.121783
    13  H    0.087611
    14  H    0.084763
    15  H    0.095999
    16  H    0.101138
    17  H    0.107988
    18  H    0.112459
    19  H    0.112300
 Sum of Mulliken charges =   0.00000

 Dipole moment (field-independent basis, Debye):
    X=             -0.6587    Y=              2.9422    Z=              0.6897  Tot=              3.0929
 Quadrupole moment (field-independent basis, Debye-Ang):
   XX=            -54.9884   YY=            -55.5911   ZZ=            -50.4078
   XY=              0.6456   XZ=              1.1621   YZ=             -1.3833

  Exact polarizability:  99.389   1.422  65.747   1.721  -1.926  65.987
 Approx polarizability: 119.738   1.557 107.735   4.421  -2.229 100.495

                      1                      2                      3
                      A                      A                      A
 Frequencies --     66.6222               107.1008               137.3675
 Red. masses --      3.5759                 3.8081                 2.7749
 Frc consts  --      0.0094                 0.0257                 0.0309
 IR Inten    --      0.0427                 0.1120                 1.3325

                      4                      5                      6
                      A                      A                      A
 Frequencies --    196.8116               275.4503               322.3917
 Red. masses --      1.1399                 3.3603                 2.8873
 Frc consts  --      0.0260                 0.1502                 0.1768
 IR Inten    --      0.3194                 1.0474                 2.0158

                      7                      8                      9
                      A                      A                      A
 Frequencies --    343.5348               357.1253               490.1288
 Red. masses --      3.2888                 2.8579                 3.7147
 Frc consts  --      0.2287                 0.2147                 0.5258
 IR Inten    --      4.9296                 1.2778                 5.5072

                     10                     11                     12
                      A                      A                      A
 Frequencies --    533.7700               754.8943               784.2948
 Red. masses --      3.6959                 3.3603                 3.3669
 Frc consts  --      0.6204                 1.1282                 1.2202
 IR Inten    --     15.8188                 5.9840                 8.3059

                     13                     14                     15
                      A                      A                      A
 Frequencies --    805.4978               877.8512               914.3105
 Red. masses --      1.5651                 2.9174                 2.4532
 Frc consts  --      0.5983                 1.3246                 1.2083
 IR Inten    --     13.2722                22.7418                 8.8821

                     16                     17                     18
                      A                      A                      A
 Frequencies --    942.6934               953.1708               971.4028
 Red. masses --      2.3988                 3.4755                 2.4554
 Frc consts  --      1.2560                 1.8604                 1.3651
 IR Inten    --     17.0148                 8.4224                30.1927

                     19                     20                     21
                      A                      A                      A
 Frequencies --    989.9976              1006.2675              1036.3085
 Red. masses --      2.6389                 1.4638                 1.6378
 Frc consts  --      1.5238                 0.8733                 1.0363
 IR Inten    --     66.1509                 1.5476                12.2335

                     22                     23                     24
                      A                      A                      A
 Frequencies --   1040.0292              1077.6376              1088.8876
 Red. masses --      1.8409                 1.6984                 2.0193
 Frc consts  --      1.1732                 1.1621                 1.4106
 IR Inten    --      3.0936                 7.6578                23.0024

                     25                     26                     27
                      A                      A                      A
 Frequencies --   1099.0604              1148.7260              1159.0731
 Red. masses --      1.6838                 2.0171                 1.1848
 Frc consts  --      1.1983                 1.5682                 0.9378
 IR Inten    --      2.9084                26.9407                 2.8823

                     28                     29                     30
                      A                      A                      A
 Frequencies --   1164.8222              1174.1533              1210.5082
 Red. masses --      1.6270                 1.6851                 2.3247
 Frc consts  --      1.3007                 1.3688                 2.0071
 IR Inten    --      2.3948                 3.4233                 6.0289

                     31                     32                     33
                      A                      A                      A
 Frequencies --   1248.6220              1252.2210              1287.1276
 Red. masses --      1.3135                 1.4229                 1.4261
 Frc consts  --      1.2065                 1.3146                 1.3921
 IR Inten    --      7.3868                 1.1212                 3.2098

                     34                     35                     36
                      A                      A                      A
 Frequencies --   1322.2109              1366.0270              1403.4722
 Red. masses --      1.6059                 1.3432                 1.4290
 Frc consts  --      1.6541                 1.4767                 1.6584
 IR Inten    --      2.7879                 0.3940                 7.9931

                     37                     38                     39
                      A                      A                      A
 Frequencies --   1420.7682              1478.2892              1491.6736
 Red. masses --      1.7361                 1.1265                 1.0922
 Frc consts  --      2.0647                 1.4505                 1.4319
 IR Inten    --     27.4695                 1.7685                 7.5458

                     40                     41                     42
                      A                      A                      A
 Frequencies --   1514.6395              1519.3039              3024.2402
 Red. masses --      1.1941                 2.0682                 1.0546
 Frc consts  --      1.6140                 2.8127                 5.6831
 IR Inten    --      0.3901                12.7498                78.9511

                     43                     44                     45
                      A                      A                      A
 Frequencies --   3035.4735              3073.7101              3073.7975
 Red. masses --      1.0355                 1.0896                 1.1090
 Frc consts  --      5.6216                 6.0651                 6.1732
 IR Inten    --     19.9193                22.3960                22.8422

                     46                     47                     48
                      A                      A                      A
 Frequencies --   3085.3599              3100.9631              3121.6590
 Red. masses --      1.0865                 1.1008                 1.1013
 Frc consts  --      6.0938                 6.2364                 6.3228
 IR Inten    --     24.7570                18.2270                27.2509

                     49                     50                     51
                      A                      A                      A
 Frequencies --   3129.6150              3177.9740              3201.7537
 Red. masses --      1.0888                 1.0909                 1.0964
 Frc consts  --      6.2831                 6.4913                 6.6222
 IR Inten    --     14.6121                16.0565                 8.9529

 - Thermochemistry -
 -------------------
 Temperature   298.150 Kelvin.  Pressure   1.00000 Atm.
 Atom     1 has atomic number  6 and mass  12.00000

 Molecular mass:   126.06808 amu.
 Principal axes and moments of inertia in atomic units:
                           1         2         3
     Eigenvalues --   334.537532228.624822380.38629
           X            0.99999  -0.00450  -0.00261
           Y            0.00444   0.99974  -0.02232
           Z            0.00271   0.02231   0.99975
 This molecule is an asymmetric top.
 Rotational symmetry number  1.
 Rotational temperatures (Kelvin)      0.25891     0.03886     0.03639
 Rotational constants (GHZ):           5.39473     0.80980     0.75817
 Zero-point vibrational energy     414857.7 (Joules/Mol)
                                   99.15337 (Kcal/Mol)
 Warning -- explicit consideration of  10 degrees of freedom as
           vibrations may cause significant error
 Vibrational temperatures:     95.85   154.09   197.64   283.17   396.31
          (Kelvin)            463.85   494.27   513.82   705.19   767.98
                             1086.12  1128.42  1158.93  1263.03  1315.49
                             1356.32  1371.40  1397.63  1424.38  1447.79
                             1491.01  1496.37  1550.48  1566.66  1581.30
                             1652.76  1667.65  1675.92  1689.34  1741.65
                             1796.49  1801.66  1851.89  1902.36  1965.41
                             2019.28  2044.17  2126.93  2146.18  2179.23
                             2185.94  4351.20  4367.36  4422.38  4422.50
                             4439.14  4461.59  4491.37  4502.81  4572.39
                             4606.60

 Zero-point correction=                           0.158011 (Hartree/Particle)
 Thermal correction to Energy=                    0.166490
 Thermal correction to Enthalpy=                  0.167435
 Thermal correction to Gibbs Free Energy=         0.124344
 Sum of electronic and zero-point Energies=           -422.956576
 Sum of electronic and thermal Energies=              -422.948096
 Sum of electronic and thermal Enthalpies=            -422.947152
 Sum of electronic and thermal Free Energies=         -422.990242

                     E (Thermal)             CV                S
                      KCal/Mol        Cal/Mol-Kelvin    Cal/Mol-Kelvin
 Total                  104.474             31.615             90.691
 Electronic               0.000              0.000              0.000
 Translational            0.889              2.981             40.409
 Rotational               0.889              2.981             28.964
 Vibrational            102.697             25.653             21.319
 Vibration     1          0.598              1.970              4.251
 Vibration     2          0.606              1.944              3.321
 Vibration     3          0.614              1.916              2.840
 Vibration     4          0.636              1.844              2.163
 Vibration     5          0.677              1.719              1.562
 Vibration     6          0.707              1.631              1.298
 Vibration     7          0.722              1.588              1.196
 Vibration     8          0.732              1.561              1.135
 Vibration     9          0.846              1.272              0.683
 Vibration    10          0.889              1.175              0.579

 Normal termination of Gaussian 09 at Tue Jan 28 02:55:40 2020.
