 Gaussian 09, Revision D.01,
 Gaussian 09:  ES64L-G09RevD.01 24-Apr-2013

 -----------------------------
 # b3lyp 6-31G(2df,p) opt Freq
 -----------------------------

 -----
 titel
 -----
 Symbolic Z-matrix:
 Charge =  0 Multiplicity = 1

 SCF Done:  E(RB3LYP) =  -423.146686683     A.U. after   13 cycles
 Optimization completed.
    -- Stationary point found.
 Normal termination of Gaussian 09 at Mon Jan 27 18:58:31 2020.

 ----------------------------------------------------------------------
 #N Geom=AllCheck Guess=TCheck SCRF=Check GenChk RB3LYP/6-31G(2df,p) Fr
 eq
 ----------------------------------------------------------------------

 Structure from the checkpoint file:  "/scratch/puck/g09_3ac340d1-bc08-4496-b4e8-7a4160866d71/Gau-64637.chk"
 -----
 titel
 -----
 Charge =  0 Multiplicity = 1

                         Standard orientation:
 ---------------------------------------------------------------------
 Center     Atomic      Atomic             Coordinates (Angstroms)
 Number     Number       Type             X           Y           Z
 ---------------------------------------------------------------------
      1          6           0       -1.970966   -1.203372    0.125334
      2          6           0       -0.583524   -0.634948    0.117436
      3          8           0        0.371141   -1.483811   -0.493422
      4          6           0        1.453832   -0.664840   -0.948422
      5          6           0        1.265258    0.638151   -0.191300
      6          8           0        1.343188    0.314546    1.231996
      7          6           0       -0.081059    0.234425    1.267762
      8          6           0       -0.274603    0.822386   -0.115449
      9          6           0       -1.114945    1.911741   -0.708148
     10          1           0       -2.656140   -0.550399    0.674217
     11          1           0       -2.352151   -1.326539   -0.893568
     12          1           0       -1.974684   -2.183559    0.611784
     13          1           0        2.398630   -1.155040   -0.695409
     14          1           0        1.401677   -0.515701   -2.039158
     15          1           0        1.908133    1.475595   -0.468500
     16          1           0       -0.581121    0.393979    2.218057
     17          1           0       -0.792919    2.901124   -0.364692
     18          1           0       -1.063139    1.903287   -1.803510
     19          1           0       -2.166873    1.790114   -0.431084
 ---------------------------------------------------------------------

 SCF Done:  E(RB3LYP) =  -423.146686683     A.U. after    1 cycles

 The electronic state is 1-A.
 Alpha  occ. eigenvalues --  -19.13788 -19.13583 -10.24081 -10.23736 -10.23261
 Alpha  occ. eigenvalues --  -10.22753 -10.19677 -10.19052 -10.18477  -1.07260
 Alpha  occ. eigenvalues --   -1.01186  -0.83672  -0.76243  -0.71337  -0.70692
 Alpha  occ. eigenvalues --   -0.63515  -0.54990  -0.54274  -0.50116  -0.49945
 Alpha  occ. eigenvalues --   -0.45858  -0.44212  -0.42321  -0.41417  -0.40712
 Alpha  occ. eigenvalues --   -0.40004  -0.38994  -0.38237  -0.35466  -0.33213
 Alpha  occ. eigenvalues --   -0.31229  -0.29732  -0.24454  -0.21075
 Alpha virt. eigenvalues --    0.07393   0.09661   0.10440   0.12009   0.12977
 Alpha virt. eigenvalues --    0.13393   0.14252   0.14388   0.15216   0.16612
 Alpha virt. eigenvalues --    0.17530   0.18141   0.19097   0.21128   0.21920

 Mulliken charges:
               1
     1  C   -0.484548
     2  C    0.390892
     3  O   -0.305866
     4  C   -0.085527
     5  C    0.012515
     6  O   -0.306327
     7  C   -0.023564
     8  C    0.171638
     9  C   -0.521685
    10  H    0.120047
    11  H    0.126941
    12  H    0.137063
    13  H    0.118416
    14  H    0.088654
    15  H    0.084903
    16  H    0.098579
    17  H    0.126810
    18  H    0.124230
    19  H    0.126829
 Sum of Mulliken charges =   0.00000

 Dipole moment (field-independent basis, Debye):
    X=             -1.2915    Y=              1.5751    Z=             -1.1186  Tot=              2.3238
 Quadrupole moment (field-independent basis, Debye-Ang):
   XX=            -50.8802   YY=            -54.8582   ZZ=            -53.1365
   XY=              0.6261   XZ=             -4.4779   YZ=             -1.4366

  Exact polarizability:  79.544   1.115  72.949  -4.076  -1.206  71.055
 Approx polarizability: 109.667   2.413 105.400  -3.024  -1.298 110.407

                      1                      2                      3
                      A                      A                      A
 Frequencies --    177.4364               185.8309               199.9487
 Red. masses --      1.0708                 1.7123                 2.2335
 Frc consts  --      0.0199                 0.0348                 0.0526
 IR Inten    --      0.0660                 0.0102                 0.9732

                      4                      5                      6
                      A                      A                      A
 Frequencies --    209.1806               232.8473               325.2664
 Red. masses --      1.4497                 2.4559                 3.0722
 Frc consts  --      0.0374                 0.0785                 0.1915
 IR Inten    --      0.6287                 2.8771                 1.1548

                      7                      8                      9
                      A                      A                      A
 Frequencies --    337.9356               407.8886               550.3964
 Red. masses --      3.1031                 3.1445                 3.2826
 Frc consts  --      0.2088                 0.3082                 0.5859
 IR Inten    --      0.7969                 2.7487                 1.8168

                     10                     11                     12
                      A                      A                      A
 Frequencies --    589.4188               646.6042               705.7388
 Red. masses --      4.6014                 3.8091                 4.2576
 Frc consts  --      0.9419                 0.9383                 1.2494
 IR Inten    --      6.0753                 3.4194                 2.0495

                     13                     14                     15
                      A                      A                      A
 Frequencies --    753.9446               786.6883               861.4694
 Red. masses --      4.1685                 4.3605                 2.8069
 Frc consts  --      1.3961                 1.5900                 1.2273
 IR Inten    --     20.1770                 8.1952                15.0067

                     16                     17                     18
                      A                      A                      A
 Frequencies --    882.5743               922.0301               952.2525
 Red. masses --      2.4197                 2.4124                 1.8373
 Frc consts  --      1.1105                 1.2083                 0.9816
 IR Inten    --     23.1995                16.3354                 3.0087

                     19                     20                     21
                      A                      A                      A
 Frequencies --    966.0513               986.0246              1034.1362
 Red. masses --      1.5595                 1.5641                 3.3282
 Frc consts  --      0.8575                 0.8959                 2.0971
 IR Inten    --      4.7764                 1.6795                19.8585

                     22                     23                     24
                      A                      A                      A
 Frequencies --   1045.5461              1062.9379              1108.0680
 Red. masses --      2.1868                 4.0988                 1.7202
 Frc consts  --      1.4085                 2.7285                 1.2444
 IR Inten    --      8.7873                87.9599                 8.3408

                     25                     26                     27
                      A                      A                      A
 Frequencies --   1143.7999              1154.8545              1187.3409
 Red. masses --      2.3930                 2.1635                 1.3704
 Frc consts  --      1.8446                 1.7000                 1.1382
 IR Inten    --      5.6911                 9.1200                 1.2628

                     28                     29                     30
                      A                      A                      A
 Frequencies --   1201.0835              1228.6380              1242.8729
 Red. masses --      2.8241                 1.4749                 1.6182
 Frc consts  --      2.4004                 1.3118                 1.4728
 IR Inten    --     55.1323                 6.4593                 3.8247

                     31                     32                     33
                      A                      A                      A
 Frequencies --   1298.6075              1329.3557              1371.8275
 Red. masses --      1.7620                 2.7942                 1.4391
 Frc consts  --      1.7507                 2.9093                 1.5956
 IR Inten    --      7.1889                 3.9991                 0.4746

                     34                     35                     36
                      A                      A                      A
 Frequencies --   1414.1007              1419.4872              1460.1116
 Red. masses --      1.3328                 1.2700                 2.5456
 Frc consts  --      1.5703                 1.5077                 3.1975
 IR Inten    --      0.9468                 6.6562                 6.4089

                     37                     38                     39
                      A                      A                      A
 Frequencies --   1478.8819              1487.0547              1495.7403
 Red. masses --      1.1072                 1.0462                 1.0548
 Frc consts  --      1.4267                 1.3630                 1.3904
 IR Inten    --      2.0304                 4.7925                 3.1243

                     40                     41                     42
                      A                      A                      A
 Frequencies --   1499.2578              1510.4481              2975.5324
 Red. masses --      1.0950                 1.2512                 1.0697
 Frc consts  --      1.4501                 1.6818                 5.5803
 IR Inten    --      1.2840                 2.2724                72.1573

                     43                     44                     45
                      A                      A                      A
 Frequencies --   3022.8388              3037.5547              3081.9306
 Red. masses --      1.0362                 1.0352                 1.1006
 Frc consts  --      5.5784                 5.6275                 6.1590
 IR Inten    --     34.8960                23.0847                20.5261

                     46                     47                     48
                      A                      A                      A
 Frequencies --   3084.4505              3098.8796              3102.8506
 Red. masses --      1.0936                 1.0995                 1.0911
 Frc consts  --      6.1299                 6.2209                 6.1890
 IR Inten    --     23.5694                12.6763                43.5267

                     49                     50                     51
                      A                      A                      A
 Frequencies --   3104.7632              3113.8058              3161.5031
 Red. masses --      1.1012                 1.1007                 1.0934
 Frc consts  --      6.2545                 6.2876                 6.4388
 IR Inten    --     20.2995                16.3363                23.3834

 - Thermochemistry -
 -------------------
 Temperature   298.150 Kelvin.  Pressure   1.00000 Atm.
 Atom     1 has atomic number  6 and mass  12.00000

 Molecular mass:   126.06808 amu.
 Principal axes and moments of inertia in atomic units:
                           1         2         3
     Eigenvalues --   814.31717 917.478701161.53848
           X            0.99884  -0.01990  -0.04378
           Y            0.01748   0.99833  -0.05511
           Z            0.04480   0.05428   0.99752
 This molecule is an asymmetric top.
 Rotational symmetry number  1.
 Warning -- assumption of classical behavior for rotation
           may cause significant error
 Rotational temperatures (Kelvin)      0.10636     0.09440     0.07457
 Rotational constants (GHZ):           2.21626     1.96707     1.55375
 Zero-point vibrational energy     416526.5 (Joules/Mol)
                                   99.55221 (Kcal/Mol)
 Warning -- explicit consideration of  10 degrees of freedom as
           vibrations may cause significant error
 Vibrational temperatures:    255.29   267.37   287.68   300.96   335.01
          (Kelvin)            467.99   486.21   586.86   791.90   848.04
                              930.32  1015.40  1084.76  1131.87  1239.46
                             1269.83  1326.59  1370.08  1389.93  1418.67
                             1487.89  1504.31  1529.33  1594.26  1645.67
                             1661.58  1708.32  1728.09  1767.73  1788.21
                             1868.40  1912.64  1973.75  2034.57  2042.32
                             2100.77  2127.78  2139.54  2152.03  2157.09
                             2173.20  4281.12  4349.19  4370.36  4434.21
                             4437.83  4458.59  4464.30  4467.06  4480.07
                             4548.69

 Zero-point correction=                           0.158647 (Hartree/Particle)
 Thermal correction to Energy=                    0.166710
 Thermal correction to Enthalpy=                  0.167655
 Thermal correction to Gibbs Free Energy=         0.126599
 Sum of electronic and zero-point Energies=           -422.988040
 Sum of electronic and thermal Energies=              -422.979976
 Sum of electronic and thermal Enthalpies=            -422.979032
 Sum of electronic and thermal Free Energies=         -423.020088

                     E (Thermal)             CV                S
                      KCal/Mol        Cal/Mol-Kelvin    Cal/Mol-Kelvin
 Total                  104.612             31.556             86.410
 Electronic               0.000              0.000              0.000
 Translational            0.889              2.981             40.409
 Rotational               0.889              2.981             28.253
 Vibrational            102.835             25.595             17.748
 Vibration     1          0.628              1.870              2.355
 Vibration     2          0.632              1.859              2.269
 Vibration     3          0.638              1.840              2.134
 Vibration     4          0.642              1.827              2.051
 Vibration     5          0.654              1.791              1.857
 Vibration     6          0.709              1.625              1.283
 Vibration     7          0.718              1.600              1.222
 Vibration     8          0.772              1.453              0.934
 Vibration     9          0.906              1.139              0.543
 Vibration    10          0.947              1.054              0.468

 Optimization completed.
    -- Stationary point found.
 Normal termination of Gaussian 09 at Mon Jan 27 19:42:52 2020.
