 Gaussian 09, Revision D.01,
 Gaussian 09:  ES64L-G09RevD.01 24-Apr-2013

 -----------------------------
 # b3lyp 6-31G(2df,p) opt Freq
 -----------------------------

 -----
 titel
 -----
 Symbolic Z-matrix:
 Charge =  0 Multiplicity = 1

 SCF Done:  E(RB3LYP) =  -423.179622465     A.U. after   14 cycles
 Optimization completed.
    -- Stationary point found.
 Normal termination of Gaussian 09 at Tue Jan 28 13:49:56 2020.

 ----------------------------------------------------------------------
 #N Geom=AllCheck Guess=TCheck SCRF=Check GenChk RB3LYP/6-31G(2df,p) Fr
 eq
 ----------------------------------------------------------------------

 Structure from the checkpoint file:  "/scratch/puck/g09_3e3b51c2-d4c1-4003-9a2a-93f015ce2517/Gau-119831.chk"
 -----
 titel
 -----
 Charge =  0 Multiplicity = 1

                         Standard orientation:
 ---------------------------------------------------------------------
 Center     Atomic      Atomic             Coordinates (Angstroms)
 Number     Number       Type             X           Y           Z
 ---------------------------------------------------------------------
      1          6           0        3.025590   -0.260764   -0.231740
      2          8           0        1.859340   -0.168473    0.555966
      3          6           0        0.673941   -0.466031   -0.150304
      4          6           0        0.175015    0.704716   -1.079966
      5          6           0       -1.165033    1.043462   -0.386805
      6          6           0       -0.763524    0.977435    1.124147
      7          6           0       -0.501303   -0.541428    0.836285
      8          6           0       -1.697408   -0.378055   -0.127924
      9          8           0       -2.675000   -1.006662   -0.401881
     10          1           0        3.028585    0.461539   -1.061774
     11          1           0        3.874061   -0.044858    0.421617
     12          1           0        3.148691   -1.270088   -0.654274
     13          1           0        0.803111   -1.405586   -0.706835
     14          1           0        0.872390    1.546107   -1.040945
     15          1           0        0.049057    0.402102   -2.122663
     16          1           0       -1.780821    1.837154   -0.804556
     17          1           0        0.111310    1.556129    1.422059
     18          1           0       -1.601735    1.145530    1.801513
     19          1           0       -0.463032   -1.302969    1.611022
 ---------------------------------------------------------------------

 SCF Done:  E(RB3LYP) =  -423.179622465     A.U. after    1 cycles

 The electronic state is 1-A.
 Alpha  occ. eigenvalues --  -19.14782 -19.13710 -10.27000 -10.24542 -10.23083
 Alpha  occ. eigenvalues --  -10.20218 -10.20024 -10.19857 -10.19575  -1.04855
 Alpha  occ. eigenvalues --   -1.04147  -0.89518  -0.73561  -0.71936  -0.66921
 Alpha  occ. eigenvalues --   -0.62642  -0.56854  -0.52996  -0.51675  -0.49306
 Alpha  occ. eigenvalues --   -0.46323  -0.45064  -0.44333  -0.42688  -0.40895
 Alpha  occ. eigenvalues --   -0.38079  -0.37756  -0.36281  -0.35429  -0.34582
 Alpha  occ. eigenvalues --   -0.33229  -0.31260  -0.26103  -0.23731
 Alpha virt. eigenvalues --   -0.00507   0.08463   0.10710   0.11398   0.12323
 Alpha virt. eigenvalues --    0.13753   0.14199   0.14787   0.15308   0.16121
 Alpha virt. eigenvalues --    0.16795   0.17525   0.18737   0.19831   0.20926

 Mulliken charges:
               1
     1  C   -0.243117
     2  O   -0.248052
     3  C    0.143738
     4  C   -0.260650
     5  C   -0.144302
     6  C   -0.243468
     7  C   -0.171531
     8  C    0.427093
     9  O   -0.323117
    10  H    0.107852
    11  H    0.130825
    12  H    0.108556
    13  H    0.074870
    14  H    0.115039
    15  H    0.111370
    16  H    0.084695
    17  H    0.124294
    18  H    0.117275
    19  H    0.088632
 Sum of Mulliken charges =   0.00000

 Dipole moment (field-independent basis, Debye):
    X=              2.4923    Y=              1.3350    Z=             -0.3587  Tot=              2.8500
 Quadrupole moment (field-independent basis, Debye-Ang):
   XX=            -58.2410   YY=            -53.2239   ZZ=            -52.4814
   XY=             -4.8307   XZ=             -4.2629   YZ=             -0.5161

  Exact polarizability:  89.598   0.969  69.965   0.137  -0.079  68.145
 Approx polarizability: 121.096   7.739 108.049   4.551   2.053 104.171

                      1                      2                      3
                      A                      A                      A
 Frequencies --    100.4491               128.8715               168.0841
 Red. masses --      3.7179                 2.7762                 2.0423
 Frc consts  --      0.0221                 0.0272                 0.0340
 IR Inten    --      1.6717                 4.2383                 1.3102

                      4                      5                      6
                      A                      A                      A
 Frequencies --    206.5398               260.7415               355.2760
 Red. masses --      1.7786                 2.7957                 3.8073
 Frc consts  --      0.0447                 0.1120                 0.2831
 IR Inten    --      1.0044                 4.9301                 0.5722

                      7                      8                      9
                      A                      A                      A
 Frequencies --    429.5861               466.6578               502.5816
 Red. masses --      2.4174                 2.6818                 3.8251
 Frc consts  --      0.2628                 0.3441                 0.5693
 IR Inten    --      0.5037                 4.4881                 5.5455

                     10                     11                     12
                      A                      A                      A
 Frequencies --    634.5598               676.1007               781.0833
 Red. masses --      4.1321                 2.7973                 4.0831
 Frc consts  --      0.9803                 0.7534                 1.4677
 IR Inten    --      0.7635                 3.4029                 1.0232

                     13                     14                     15
                      A                      A                      A
 Frequencies --    786.2624               823.1622               860.9466
 Red. masses --      3.9142                 2.4798                 3.0514
 Frc consts  --      1.4257                 0.9900                 1.3326
 IR Inten    --      2.9892                 6.8754                 3.6694

                     16                     17                     18
                      A                      A                      A
 Frequencies --    935.8304               958.9984               976.5955
 Red. masses --      2.1446                 2.0648                 1.7017
 Frc consts  --      1.1066                 1.1188                 0.9562
 IR Inten    --      6.1040                 6.1627                 9.5384

                     19                     20                     21
                      A                      A                      A
 Frequencies --    997.3047              1017.2731              1033.4246
 Red. masses --      3.5163                 1.6393                 2.1200
 Frc consts  --      2.0606                 0.9995                 1.3340
 IR Inten    --      5.6896                 9.2403                23.2856

                     22                     23                     24
                      A                      A                      A
 Frequencies --   1055.1389              1089.5091              1120.7721
 Red. masses --      2.0626                 1.2945                 1.7521
 Frc consts  --      1.3530                 0.9054                 1.2967
 IR Inten    --      8.3444                 6.0352                14.7218

                     25                     26                     27
                      A                      A                      A
 Frequencies --   1128.4720              1172.7578              1183.4105
 Red. masses --      2.2233                 1.8665                 1.3115
 Frc consts  --      1.6682                 1.5125                 1.0821
 IR Inten    --     92.9479                58.1578                 5.8295

                     28                     29                     30
                      A                      A                      A
 Frequencies --   1198.0838              1215.0450              1227.5828
 Red. masses --      1.6829                 1.7526                 1.6915
 Frc consts  --      1.4233                 1.5245                 1.5019
 IR Inten    --      2.5403                 2.3574                33.7095

                     31                     32                     33
                      A                      A                      A
 Frequencies --   1249.4795              1254.7408              1313.6032
 Red. masses --      1.4602                 1.5720                 1.5055
 Frc consts  --      1.3431                 1.4582                 1.5306
 IR Inten    --     13.3059                 5.6398                 0.2256

                     34                     35                     36
                      A                      A                      A
 Frequencies --   1322.0562              1395.6962              1480.6313
 Red. masses --      1.5235                 1.2589                 1.1255
 Frc consts  --      1.5689                 1.4449                 1.4537
 IR Inten    --      3.4403                46.0310                 1.4379

                     37                     38                     39
                      A                      A                      A
 Frequencies --   1480.8949              1488.9622              1500.3922
 Red. masses --      1.0960                 1.0619                 1.1029
 Frc consts  --      1.4161                 1.3871                 1.4628
 IR Inten    --      1.4881                 4.6182                 3.9146

                     40                     41                     42
                      A                      A                      A
 Frequencies --   1510.0620              1903.0165              2977.2309
 Red. masses --      1.0642                12.1127                 1.0384
 Frc consts  --      1.4297                25.8449                 5.4232
 IR Inten    --      4.9496               332.5204                46.7111

                     43                     44                     45
                      A                      A                      A
 Frequencies --   2996.8359              3025.5463              3059.7280
 Red. masses --      1.0830                 1.1024                 1.0585
 Frc consts  --      5.7306                 5.9455                 5.8388
 IR Inten    --     53.9581                45.0914                26.8045

                     46                     47                     48
                      A                      A                      A
 Frequencies --   3085.0293              3110.2030              3117.9097
 Red. masses --      1.0555                 1.1074                 1.0964
 Frc consts  --      5.9187                 6.3114                 6.2799
 IR Inten    --     15.8937                17.2451                27.5305

                     49                     50                     51
                      A                      A                      A
 Frequencies --   3145.0035              3153.4775              3159.1621
 Red. masses --      1.0910                 1.1110                 1.0918
 Frc consts  --      6.3582                 6.5094                 6.4199
 IR Inten    --     25.2767                11.0794                14.6086

 - Thermochemistry -
 -------------------
 Temperature   298.150 Kelvin.  Pressure   1.00000 Atm.
 Atom     1 has atomic number  6 and mass  12.00000

 Molecular mass:   126.06808 amu.
 Principal axes and moments of inertia in atomic units:
                           1         2         3
     Eigenvalues --   482.658601614.620181638.33281
           X            0.99953  -0.02196  -0.02146
           Y            0.02090   0.99862  -0.04823
           Z            0.02249   0.04775   0.99861
 This molecule is an asymmetric top.
 Rotational symmetry number  1.
 Warning -- assumption of classical behavior for rotation
           may cause significant error
 Rotational temperatures (Kelvin)      0.17945     0.05364     0.05287
 Rotational constants (GHZ):           3.73917     1.11775     1.10157
 Zero-point vibrational energy     420013.4 (Joules/Mol)
                                  100.38562 (Kcal/Mol)
 Warning -- explicit consideration of   9 degrees of freedom as
           vibrations may cause significant error
 Vibrational temperatures:    144.52   185.42   241.84   297.16   375.15
          (Kelvin)            511.16   618.08   671.42   723.10   912.99
                              972.76  1123.80  1131.25  1184.35  1238.71
                             1346.45  1379.78  1405.10  1434.90  1463.63
                             1486.87  1518.11  1567.56  1612.54  1623.62
                             1687.33  1702.66  1723.77  1748.18  1766.22
                             1797.72  1805.29  1889.98  1902.14  2008.09
                             2130.30  2130.67  2142.28  2158.73  2172.64
                             2738.01  4283.57  4311.77  4353.08  4402.26
                             4438.66  4474.88  4485.97  4524.95  4537.15
                             4545.32

 Zero-point correction=                           0.159975 (Hartree/Particle)
 Thermal correction to Energy=                    0.168033
 Thermal correction to Enthalpy=                  0.168977
 Thermal correction to Gibbs Free Energy=         0.127250
 Sum of electronic and zero-point Energies=           -423.019648
 Sum of electronic and thermal Energies=              -423.011589
 Sum of electronic and thermal Enthalpies=            -423.010645
 Sum of electronic and thermal Free Energies=         -423.052373

                     E (Thermal)             CV                S
                      KCal/Mol        Cal/Mol-Kelvin    Cal/Mol-Kelvin
 Total                  105.442             30.846             87.823
 Electronic               0.000              0.000              0.000
 Translational            0.889              2.981             40.409
 Rotational               0.889              2.981             28.636
 Vibrational            103.665             24.884             18.778
 Vibration     1          0.604              1.949              3.446
 Vibration     2          0.611              1.924              2.963
 Vibration     3          0.625              1.882              2.457
 Vibration     4          0.641              1.831              2.074
 Vibration     5          0.669              1.745              1.657
 Vibration     6          0.731              1.564              1.143
 Vibration     7          0.791              1.406              0.860
 Vibration     8          0.824              1.324              0.747
 Vibration     9          0.858              1.244              0.652

 Optimization completed.
    -- Stationary point found.
 Normal termination of Gaussian 09 at Tue Jan 28 14:32:34 2020.
