 Gaussian 09, Revision D.01,
 Gaussian 09:  ES64L-G09RevD.01 24-Apr-2013

 -----------------------------
 # b3lyp 6-31G(2df,p) opt Freq
 -----------------------------

 -----
 titel
 -----
 Symbolic Z-matrix:
 Charge =  0 Multiplicity = 1

 SCF Done:  E(RB3LYP) =  -423.185470815     A.U. after   13 cycles
 Optimization completed.
    -- Stationary point found.
 Normal termination of Gaussian 09 at Mon Jan 27 11:18:49 2020.

 ----------------------------------------------------------------------
 #N Geom=AllCheck Guess=TCheck SCRF=Check GenChk RB3LYP/6-31G(2df,p) Fr
 eq
 ----------------------------------------------------------------------

 Structure from the checkpoint file:  "/scratch/puck/g09_8783c107-d969-4afb-ab30-ba583a564e6a/Gau-150492.chk"
 -----
 titel
 -----
 Charge =  0 Multiplicity = 1

                         Standard orientation:
 ---------------------------------------------------------------------
 Center     Atomic      Atomic             Coordinates (Angstroms)
 Number     Number       Type             X           Y           Z
 ---------------------------------------------------------------------
      1          6           0       -0.563453   -0.926017    1.213398
      2          6           0       -1.149810    0.446473    0.911967
      3          6           0       -1.421238    0.501702   -0.593696
      4          6           0       -0.837144   -0.770629   -1.197564
      5          6           0        0.092247   -1.364771   -0.108937
      6          8           0        1.442758   -0.913903   -0.249422
      7          6           0        1.715750    0.370854    0.238755
      8          8           0        0.937289    1.381623   -0.343670
      9          6           0       -0.416124    1.430861    0.022862
     10          1           0        0.132192   -0.959209    2.056665
     11          1           0       -1.384470   -1.614255    1.446975
     12          1           0       -1.849398    0.867724    1.626297
     13          1           0       -2.340843    0.904007   -1.004380
     14          1           0       -1.642657   -1.480008   -1.418964
     15          1           0       -0.276823   -0.595796   -2.120227
     16          1           0        0.162490   -2.451352   -0.194291
     17          1           0        1.612446    0.410693    1.333173
     18          1           0        2.750289    0.580220   -0.041781
     19          1           0       -0.724973    2.465369    0.140563
 ---------------------------------------------------------------------

 SCF Done:  E(RB3LYP) =  -423.185470814     A.U. after    1 cycles

 The electronic state is 1-A.
 Alpha  occ. eigenvalues --  -19.14462 -19.13727 -10.26797 -10.23456 -10.23343
 Alpha  occ. eigenvalues --  -10.19425 -10.18898 -10.18593 -10.18101  -1.06663
 Alpha  occ. eigenvalues --   -1.00442  -0.87763  -0.75632  -0.71847  -0.69720
 Alpha  occ. eigenvalues --   -0.58292  -0.56732  -0.55579  -0.53448  -0.50198
 Alpha  occ. eigenvalues --   -0.47516  -0.44939  -0.44011  -0.41979  -0.40977
 Alpha  occ. eigenvalues --   -0.37887  -0.35980  -0.35798  -0.34307  -0.33777
 Alpha  occ. eigenvalues --   -0.29956  -0.26980  -0.25751  -0.24313
 Alpha virt. eigenvalues --    0.07640   0.10353   0.12084   0.12585   0.13835
 Alpha virt. eigenvalues --    0.14712   0.15397   0.16300   0.17261   0.17366
 Alpha virt. eigenvalues --    0.17467   0.18474   0.20765   0.21114   0.22181

 Mulliken charges:
               1
     1  C   -0.265182
     2  C   -0.105933
     3  C   -0.088283
     4  C   -0.228828
     5  C    0.093867
     6  O   -0.259816
     7  C    0.011375
     8  O   -0.245938
     9  C    0.106446
    10  H    0.111121
    11  H    0.104476
    12  H    0.085120
    13  H    0.080806
    14  H    0.098641
    15  H    0.117132
    16  H    0.086461
    17  H    0.086269
    18  H    0.115119
    19  H    0.097146
 Sum of Mulliken charges =   0.00000

 Dipole moment (field-independent basis, Debye):
    X=             -1.6204    Y=             -0.3357    Z=              1.1723  Tot=              2.0280
 Quadrupole moment (field-independent basis, Debye-Ang):
   XX=            -52.1972   YY=            -53.2009   ZZ=            -52.7475
   XY=              0.4799   XZ=              1.5151   YZ=              0.7817

  Exact polarizability:  76.667   1.036  73.337   1.329   0.606  68.756
 Approx polarizability: 110.191   2.780 107.157   0.277  -0.357 104.470

                      1                      2                      3
                      A                      A                      A
 Frequencies --    171.2446               290.0680               355.1926
 Red. masses --      4.5102                 2.6481                 2.8778
 Frc consts  --      0.0779                 0.1313                 0.2139
 IR Inten    --      3.1431                 1.3521                 2.2175

                      4                      5                      6
                      A                      A                      A
 Frequencies --    388.1373               446.6074               498.8164
 Red. masses --      2.5823                 2.4754                 2.9337
 Frc consts  --      0.2292                 0.2909                 0.4301
 IR Inten    --      1.5460                 3.0661                 4.3937

                      7                      8                      9
                      A                      A                      A
 Frequencies --    525.0279               646.2258               716.9139
 Red. masses --      4.5317                 5.2772                 4.8300
 Frc consts  --      0.7360                 1.2984                 1.4626
 IR Inten    --      4.2500                 7.9860                 3.1852

                     10                     11                     12
                      A                      A                      A
 Frequencies --    753.1524               764.2908               799.1268
 Red. masses --      3.1058                 2.3386                 2.8400
 Frc consts  --      1.0380                 0.8049                 1.0686
 IR Inten    --      8.0560                13.8147                 3.4076

                     13                     14                     15
                      A                      A                      A
 Frequencies --    805.9062               878.2283               897.9994
 Red. masses --      2.2846                 1.7507                 3.3713
 Frc consts  --      0.8743                 0.7956                 1.6018
 IR Inten    --      2.1894                 0.6138                 7.6708

                     16                     17                     18
                      A                      A                      A
 Frequencies --    930.9787               981.5960               997.9377
 Red. masses --      2.8697                 2.3060                 2.0611
 Frc consts  --      1.4654                 1.3091                 1.2094
 IR Inten    --     15.9379                16.2647                 2.0351

                     19                     20                     21
                      A                      A                      A
 Frequencies --   1034.2190              1047.4775              1052.7034
 Red. masses --      3.0437                 1.3056                 1.8561
 Frc consts  --      1.9182                 0.8440                 1.2119
 IR Inten    --     78.1500                 8.2603                 7.1349

                     22                     23                     24
                      A                      A                      A
 Frequencies --   1086.0599              1099.7230              1112.3205
 Red. masses --      1.9989                 1.7560                 1.5706
 Frc consts  --      1.3892                 1.2512                 1.1449
 IR Inten    --      7.6896                36.0755                34.8381

                     25                     26                     27
                      A                      A                      A
 Frequencies --   1116.1686              1181.0269              1188.5252
 Red. masses --      2.3436                 1.4678                 1.6331
 Frc consts  --      1.7203                 1.2062                 1.3592
 IR Inten    --     47.3444                 7.9845                10.0011

                     28                     29                     30
                      A                      A                      A
 Frequencies --   1224.6510              1240.5829              1262.6402
 Red. masses --      1.5864                 1.8219                 1.7898
 Frc consts  --      1.4018                 1.6521                 1.6812
 IR Inten    --     35.3822                 7.6013                87.1179

                     31                     32                     33
                      A                      A                      A
 Frequencies --   1311.6680              1315.3431              1319.4520
 Red. masses --      2.0757                 1.1707                 1.2990
 Frc consts  --      2.1040                 1.1933                 1.3325
 IR Inten    --     15.3548                 1.9675                 2.4305

                     34                     35                     36
                      A                      A                      A
 Frequencies --   1352.1618              1368.1946              1393.5685
 Red. masses --      1.6630                 1.3113                 1.2318
 Frc consts  --      1.7915                 1.4463                 1.4094
 IR Inten    --      0.9388                 4.6842                 9.3502

                     37                     38                     39
                      A                      A                      A
 Frequencies --   1421.5703              1448.3702              1471.3957
 Red. masses --      1.7613                 1.3037                 1.0963
 Frc consts  --      2.0971                 1.6113                 1.3985
 IR Inten    --     10.1930                 7.3361                 3.7169

                     40                     41                     42
                      A                      A                      A
 Frequencies --   1492.2596              1520.5644              2991.8285
 Red. masses --      1.1199                 1.0898                 1.0676
 Frc consts  --      1.4694                 1.4846                 5.6303
 IR Inten    --      6.4577                 2.3833                61.3983

                     43                     44                     45
                      A                      A                      A
 Frequencies --   3037.3578              3043.0050              3087.9971
 Red. masses --      1.0652                 1.0640                 1.0880
 Frc consts  --      5.7898                 5.8051                 6.1125
 IR Inten    --     26.4459                23.8172                47.0565

                     46                     47                     48
                      A                      A                      A
 Frequencies --   3088.2639              3098.9278              3108.7727
 Red. masses --      1.0967                 1.1007                 1.0963
 Frc consts  --      6.1628                 6.2278                 6.2426
 IR Inten    --     28.2196                17.8896                33.7868

                     49                     50                     51
                      A                      A                      A
 Frequencies --   3147.4400              3158.7256              3170.9244
 Red. masses --      1.0882                 1.0883                 1.0935
 Frc consts  --      6.3517                 6.3977                 6.4779
 IR Inten    --     12.4445                16.0232                31.6984

 - Thermochemistry -
 -------------------
 Temperature   298.150 Kelvin.  Pressure   1.00000 Atm.
 Atom     1 has atomic number  6 and mass  12.00000

 Molecular mass:   126.06808 amu.
 Principal axes and moments of inertia in atomic units:
                           1         2         3
     Eigenvalues --   738.47689 831.589291061.75429
           X            0.99882   0.04092   0.02624
           Y           -0.04130   0.99905   0.01392
           Z           -0.02564  -0.01499   0.99956
 This molecule is an asymmetric top.
 Rotational symmetry number  1.
 Warning -- assumption of classical behavior for rotation
           may cause significant error
 Rotational temperatures (Kelvin)      0.11729     0.10415     0.08158
 Rotational constants (GHZ):           2.44387     2.17023     1.69977
 Zero-point vibrational energy     429706.6 (Joules/Mol)
                                  102.70235 (Kcal/Mol)
 Warning -- explicit consideration of   7 degrees of freedom as
           vibrations may cause significant error
 Vibrational temperatures:    246.38   417.34   511.04   558.44   642.57
          (Kelvin)            717.68   755.40   929.77  1031.48  1083.62
                             1099.64  1149.76  1159.52  1263.57  1292.02
                             1339.47  1412.30  1435.81  1488.01  1507.08
                             1514.60  1562.60  1582.25  1600.38  1605.92
                             1699.23  1710.02  1762.00  1784.92  1816.66
                             1887.20  1892.48  1898.39  1945.46  1968.52
                             2005.03  2045.32  2083.88  2117.01  2147.03
                             2187.75  4304.57  4370.07  4378.20  4442.93
                             4443.32  4458.66  4472.82  4528.46  4544.70
                             4562.25

 Zero-point correction=                           0.163667 (Hartree/Particle)
 Thermal correction to Energy=                    0.170086
 Thermal correction to Enthalpy=                  0.171030
 Thermal correction to Gibbs Free Energy=         0.133238
 Sum of electronic and zero-point Energies=           -423.021804
 Sum of electronic and thermal Energies=              -423.015385
 Sum of electronic and thermal Enthalpies=            -423.014441
 Sum of electronic and thermal Free Energies=         -423.052233

                     E (Thermal)             CV                S
                      KCal/Mol        Cal/Mol-Kelvin    Cal/Mol-Kelvin
 Total                  106.730             27.404             79.539
 Electronic               0.000              0.000              0.000
 Translational            0.889              2.981             40.409
 Rotational               0.889              2.981             27.969
 Vibrational            104.953             21.442             11.162
 Vibration     1          0.626              1.878              2.422
 Vibration     2          0.686              1.692              1.474
 Vibration     3          0.731              1.565              1.143
 Vibration     4          0.756              1.496              1.007
 Vibration     5          0.806              1.368              0.806
 Vibration     6          0.854              1.253              0.661
 Vibration     7          0.880              1.195              0.598

 Optimization completed.
    -- Stationary point found.
 Normal termination of Gaussian 09 at Mon Jan 27 12:09:41 2020.
