 Gaussian 09, Revision D.01,
 Gaussian 09:  ES64L-G09RevD.01 24-Apr-2013

 -----------------------------
 # b3lyp 6-31G(2df,p) opt Freq
 -----------------------------

 -----
 titel
 -----
 Symbolic Z-matrix:
 Charge =  0 Multiplicity = 1

 SCF Done:  E(RB3LYP) =  -423.189427812     A.U. after   14 cycles
 SCF Done:  E(RB3LYP) =  -423.189427795     A.U. after    7 cycles
 SCF Done:  E(RB3LYP) =  -423.189428136     A.U. after    7 cycles
 Optimization completed.
    -- Stationary point found.
 Normal termination of Gaussian 09 at Mon Jan 27 13:53:21 2020.

 ----------------------------------------------------------------------
 #N Geom=AllCheck Guess=TCheck SCRF=Check GenChk RB3LYP/6-31G(2df,p) Fr
 eq
 ----------------------------------------------------------------------

 Structure from the checkpoint file:  "/scratch/puck/g09_1718a59c-302f-470e-b73e-0318a5b86286/Gau-157529.chk"
 -----
 titel
 -----
 Charge =  0 Multiplicity = 1

                         Standard orientation:
 ---------------------------------------------------------------------
 Center     Atomic      Atomic             Coordinates (Angstroms)
 Number     Number       Type             X           Y           Z
 ---------------------------------------------------------------------
      1          8           0        2.499341    0.000371   -0.756089
      2          6           0        2.286132   -0.000363    0.426029
      3          8           0        1.080983   -0.000632    1.011097
      4          6           0       -0.043576    0.000043    0.126624
      5          6           0       -0.332888    1.316225   -0.628205
      6          6           0       -1.788620    1.307685   -0.062982
      7          6           0       -1.487940   -0.000109    0.721247
      8          6           0       -1.788599   -1.307811   -0.063032
      9          6           0       -0.333295   -1.315452   -0.629377
     10          1           0        3.061584   -0.000820    1.208390
     11          1           0        0.265711    2.146145   -0.246948
     12          1           0       -0.213690    1.271769   -1.712468
     13          1           0       -2.010142    2.165398    0.575736
     14          1           0       -2.585207    1.220787   -0.806432
     15          1           0       -1.683999   -0.000051    1.793222
     16          1           0       -2.008972   -2.165760    0.575777
     17          1           0       -2.585920   -1.221335   -0.805744
     18          1           0        0.265839   -2.145708   -0.249716
     19          1           0       -0.215083   -1.269629   -1.713695
 ---------------------------------------------------------------------

 SCF Done:  E(RB3LYP) =  -423.189428136     A.U. after    1 cycles

 The electronic state is 1-A.
 Alpha  occ. eigenvalues --  -19.18702 -19.13146 -10.30622 -10.24374 -10.18920
 Alpha  occ. eigenvalues --  -10.18593 -10.18592 -10.18406 -10.18405  -1.10410
 Alpha  occ. eigenvalues --   -1.01941  -0.87497  -0.75720  -0.69869  -0.65865
 Alpha  occ. eigenvalues --   -0.60541  -0.59689  -0.51954  -0.51259  -0.48371
 Alpha  occ. eigenvalues --   -0.47834  -0.45565  -0.43787  -0.42324  -0.41652
 Alpha  occ. eigenvalues --   -0.38705  -0.35881  -0.34097  -0.33823  -0.32835
 Alpha  occ. eigenvalues --   -0.31266  -0.29166  -0.27556  -0.26878
 Alpha virt. eigenvalues --    0.00893   0.07226   0.08769   0.10703   0.12020
 Alpha virt. eigenvalues --    0.12989   0.13904   0.14231   0.15990   0.17238
 Alpha virt. eigenvalues --    0.17580   0.19619   0.21281   0.21604   0.23188

 Mulliken charges:
               1
     1  O   -0.309579
     2  C    0.150384
     3  O   -0.264165
     4  C    0.482267
     5  C   -0.275880
     6  C   -0.228151
     7  C   -0.093682
     8  C   -0.228126
     9  C   -0.275876
    10  H    0.107514
    11  H    0.111475
    12  H    0.111222
    13  H    0.106493
    14  H    0.101474
    15  H    0.073976
    16  H    0.106482
    17  H    0.101463
    18  H    0.111498
    19  H    0.111210
 Sum of Mulliken charges =   0.00000

 Dipole moment (field-independent basis, Debye):
    X=             -1.5401    Y=             -0.0005    Z=              1.1436  Tot=              1.9183
 Quadrupole moment (field-independent basis, Debye-Ang):
   XX=            -54.8301   YY=            -51.3448   ZZ=            -54.1558
   XY=             -0.0035   XZ=              4.9395   YZ=              0.0018

  Exact polarizability:  86.260   0.000  70.463  -0.143  -0.003  68.487
 Approx polarizability: 113.123   0.002  97.144  -4.343  -0.011 112.955

                      1                      2                      3
                      A                      A                      A
 Frequencies --     45.8679                67.8382               154.1075
 Red. masses --      1.9236                 6.6753                 4.6233
 Frc consts  --      0.0024                 0.0181                 0.0647
 IR Inten    --      0.0308                 1.3007                 3.7870

                      4                      5                      6
                      A                      A                      A
 Frequencies --    246.0984               250.1956               348.6858
 Red. masses --      2.3356                 2.6245                 2.5463
 Frc consts  --      0.0833                 0.0968                 0.1824
 IR Inten    --      7.4516                 4.5037                 0.1951

                      7                      8                      9
                      A                      A                      A
 Frequencies --    397.2661               449.3973               580.1759
 Red. masses --      2.2529                 3.9563                 4.6004
 Frc consts  --      0.2095                 0.4708                 0.9123
 IR Inten    --      2.0121                13.8342                 1.2724

                     10                     11                     12
                      A                      A                      A
 Frequencies --    621.4435               731.9496               750.8039
 Red. masses --      3.2111                 1.3683                 1.1294
 Frc consts  --      0.7306                 0.4319                 0.3751
 IR Inten    --      0.8696                 3.5387                 1.1097

                     13                     14                     15
                      A                      A                      A
 Frequencies --    792.1465               832.9280               879.8786
 Red. masses --      4.0526                 2.4351                 2.9747
 Frc consts  --      1.4983                 0.9953                 1.3569
 IR Inten    --      2.4764                 8.4475                 2.5068

                     16                     17                     18
                      A                      A                      A
 Frequencies --    898.9537               928.9082               952.6325
 Red. masses --      1.7178                 2.4151                 2.9492
 Frc consts  --      0.8179                 1.2278                 1.5769
 IR Inten    --      0.1753                 0.0641                 3.6081

                     19                     20                     21
                      A                      A                      A
 Frequencies --    964.3459              1018.5663              1031.8499
 Red. masses --      2.3919                 1.2569                 2.0468
 Frc consts  --      1.3106                 0.7683                 1.2840
 IR Inten    --      9.3027                 0.9633                 0.3029

                     22                     23                     24
                      A                      A                      A
 Frequencies --   1045.4570              1099.1031              1137.2805
 Red. masses --      1.6376                 2.3166                 2.5546
 Frc consts  --      1.0546                 1.6488                 1.9467
 IR Inten    --      0.0987                 6.1534                 1.3224

                     25                     26                     27
                      A                      A                      A
 Frequencies --   1173.1162              1188.7083              1201.7785
 Red. masses --      1.8025                 2.0069                 7.4313
 Frc consts  --      1.4615                 1.6708                 6.3236
 IR Inten    --      7.5944                 4.9876               379.3808

                     28                     29                     30
                      A                      A                      A
 Frequencies --   1219.1987              1231.7406              1233.9903
 Red. masses --      1.4826                 1.5160                 1.2597
 Frc consts  --      1.2984                 1.3551                 1.1302
 IR Inten    --     18.1635                 2.3781                 0.7353

                     31                     32                     33
                      A                      A                      A
 Frequencies --   1244.6938              1276.7418              1287.3688
 Red. masses --      1.2682                 1.8023                 1.5668
 Frc consts  --      1.1576                 1.7309                 1.5299
 IR Inten    --      2.8090                 5.1844                 4.2595

                     34                     35                     36
                      A                      A                      A
 Frequencies --   1298.5077              1307.2969              1408.9107
 Red. masses --      1.5169                 1.7193                 1.1646
 Frc consts  --      1.5069                 1.7312                 1.3621
 IR Inten    --      0.0760                31.4381                 1.5147

                     37                     38                     39
                      A                      A                      A
 Frequencies --   1466.7148              1477.9203              1482.7811
 Red. masses --      1.0842                 1.0864                 1.1103
 Frc consts  --      1.3742                 1.3981                 1.4383
 IR Inten    --      1.2789                 0.9133                 2.2647

                     40                     41                     42
                      A                      A                      A
 Frequencies --   1500.0372              1813.8631              3022.6895
 Red. masses --      1.1184                 9.6742                 1.0900
 Frc consts  --      1.4827                18.7531                 5.8679
 IR Inten    --      3.3525               233.6613                81.3296

                     43                     44                     45
                      A                      A                      A
 Frequencies --   3060.5931              3061.8851              3073.1082
 Red. masses --      1.0586                 1.0581                 1.0596
 Frc consts  --      5.8423                 5.8447                 5.8959
 IR Inten    --     16.5715                60.6636                25.8165

                     46                     47                     48
                      A                      A                      A
 Frequencies --   3074.7324              3103.6721              3106.3078
 Red. masses --      1.0600                 1.1025                 1.1084
 Frc consts  --      5.9043                 6.2572                 6.3013
 IR Inten    --     19.4574                 5.0347                 8.8166

                     49                     50                     51
                      A                      A                      A
 Frequencies --   3118.1903              3129.2245              3133.6519
 Red. masses --      1.0961                 1.1080                 1.1071
 Frc consts  --      6.2790                 6.3925                 6.4055
 IR Inten    --     17.2044                10.8083                49.2670

 - Thermochemistry -
 -------------------
 Temperature   298.150 Kelvin.  Pressure   1.00000 Atm.
 Atom     1 has atomic number  8 and mass  15.99491

 Molecular mass:   126.06808 amu.
 Principal axes and moments of inertia in atomic units:
                           1         2         3
     Eigenvalues --   585.524341347.917001530.84407
           X            0.99993   0.00000   0.01206
           Y            0.00000   1.00000   0.00004
           Z           -0.01206  -0.00004   0.99993
 This molecule is an asymmetric top.
 Rotational symmetry number  1.
 Warning -- assumption of classical behavior for rotation
           may cause significant error
 Rotational temperatures (Kelvin)      0.14793     0.06426     0.05658
 Rotational constants (GHZ):           3.08227     1.33891     1.17892
 Zero-point vibrational energy     418234.2 (Joules/Mol)
                                   99.96038 (Kcal/Mol)
 Warning -- explicit consideration of   9 degrees of freedom as
           vibrations may cause significant error
 Vibrational temperatures:     65.99    97.60   221.73   354.08   359.98
          (Kelvin)            501.68   571.58   646.58   834.74   894.12
                             1053.11  1080.24  1139.72  1198.40  1265.95
                             1293.39  1336.49  1370.62  1387.48  1465.49
                             1484.60  1504.18  1581.36  1636.29  1687.85
                             1710.28  1729.09  1754.15  1772.20  1775.43
                             1790.83  1836.94  1852.23  1868.26  1880.91
                             2027.11  2110.27  2126.40  2133.39  2158.22
                             2609.74  4348.97  4403.51  4405.36  4421.51
                             4423.85  4465.49  4469.28  4486.37  4502.25
                             4508.62

 Zero-point correction=                           0.159297 (Hartree/Particle)
 Thermal correction to Energy=                    0.167568
 Thermal correction to Enthalpy=                  0.168512
 Thermal correction to Gibbs Free Energy=         0.125503
 Sum of electronic and zero-point Energies=           -423.030131
 Sum of electronic and thermal Energies=              -423.021860
 Sum of electronic and thermal Enthalpies=            -423.020916
 Sum of electronic and thermal Free Energies=         -423.063925

                     E (Thermal)             CV                S
                      KCal/Mol        Cal/Mol-Kelvin    Cal/Mol-Kelvin
 Total                  105.151             30.919             90.521
 Electronic               0.000              0.000              0.000
 Translational            0.889              2.981             40.409
 Rotational               0.889              2.981             28.582
 Vibrational            103.373             24.957             21.531
 Vibration     1          0.595              1.979              4.988
 Vibration     2          0.598              1.970              4.215
 Vibration     3          0.620              1.898              2.621
 Vibration     4          0.661              1.769              1.758
 Vibration     5          0.663              1.762              1.729
 Vibration     6          0.726              1.578              1.172
 Vibration     7          0.764              1.476              0.973
 Vibration     8          0.808              1.362              0.798
 Vibration     9          0.937              1.074              0.485

 Normal termination of Gaussian 09 at Mon Jan 27 14:36:15 2020.
