 Gaussian 09, Revision D.01,
 Gaussian 09:  ES64L-G09RevD.01 24-Apr-2013

 -----------------------------
 # b3lyp 6-31G(2df,p) opt Freq
 -----------------------------

 -----
 titel
 -----
 Symbolic Z-matrix:
 Charge =  0 Multiplicity = 1

 SCF Done:  E(RB3LYP) =  -423.157905003     A.U. after   15 cycles
 Optimization completed.
    -- Stationary point found.
 Normal termination of Gaussian 09 at Mon Jan 27 15:36:04 2020.

 ----------------------------------------------------------------------
 #N Geom=AllCheck Guess=TCheck SCRF=Check GenChk RB3LYP/6-31G(2df,p) Fr
 eq
 ----------------------------------------------------------------------

 Structure from the checkpoint file:  "/scratch/puck/g09_3eae5e61-b06c-4247-8c2e-d6a92c1973d2/Gau-8673.chk"
 -----
 titel
 -----
 Charge =  0 Multiplicity = 1

                         Standard orientation:
 ---------------------------------------------------------------------
 Center     Atomic      Atomic             Coordinates (Angstroms)
 Number     Number       Type             X           Y           Z
 ---------------------------------------------------------------------
      1          6           0       -1.961720   -1.054765   -0.385347
      2          6           0       -1.130424    0.230895   -0.490094
      3          6           0       -1.838807    1.407886    0.190618
      4          6           0        0.289601    0.019896    0.122199
      5          8           0        0.190667   -0.305819    1.487333
      6          6           0        1.006279   -1.125359   -0.613145
      7          8           0        1.428444   -2.085494   -0.021711
      8          6           0        1.143593    1.199497   -0.098632
      9          6           0        1.872838    2.128865   -0.323603
     10          1           0       -2.061096   -1.357383    0.660331
     11          1           0       -2.963359   -0.890268   -0.792688
     12          1           0       -1.513729   -1.888430   -0.936838
     13          1           0       -0.978481    0.477650   -1.549426
     14          1           0       -1.975710    1.205099    1.256525
     15          1           0       -1.264495    2.332382    0.089526
     16          1           0       -2.824098    1.565822   -0.258456
     17          1           0        0.709284   -1.119647    1.598705
     18          1           0        1.122436   -0.998651   -1.706503
     19          1           0        2.508189    2.962443   -0.498134
 ---------------------------------------------------------------------

 SCF Done:  E(RB3LYP) =  -423.157905003     A.U. after    1 cycles

 The electronic state is 1-A.
 Alpha  occ. eigenvalues --  -19.16934 -19.14508 -10.29157 -10.27239 -10.20520
 Alpha  occ. eigenvalues --  -10.19448 -10.19021 -10.17987 -10.17438  -1.08195
 Alpha  occ. eigenvalues --   -1.02932  -0.82395  -0.76759  -0.71410  -0.68925
 Alpha  occ. eigenvalues --   -0.61055  -0.58394  -0.54685  -0.53341  -0.50294
 Alpha  occ. eigenvalues --   -0.47621  -0.44998  -0.44735  -0.40408  -0.39836
 Alpha  occ. eigenvalues --   -0.38503  -0.37630  -0.35804  -0.34624  -0.34007
 Alpha  occ. eigenvalues --   -0.30581  -0.29043  -0.28015  -0.26548
 Alpha virt. eigenvalues --   -0.04585   0.02936   0.05421   0.08926   0.11282
 Alpha virt. eigenvalues --    0.11684   0.13741   0.14649   0.15095   0.15691
 Alpha virt. eigenvalues --    0.17115   0.17864   0.19120   0.20193   0.22563

 Mulliken charges:
               1
     1  C   -0.416249
     2  C    0.013502
     3  C   -0.403035
     4  C    0.088648
     5  O   -0.452101
     6  C    0.121944
     7  O   -0.266881
     8  C    0.319152
     9  C   -0.449061
    10  H    0.139008
    11  H    0.115929
    12  H    0.116381
    13  H    0.081627
    14  H    0.139044
    15  H    0.127632
    16  H    0.111155
    17  H    0.296052
    18  H    0.112874
    19  H    0.204378
 Sum of Mulliken charges =   0.00000

 Dipole moment (field-independent basis, Debye):
    X=             -0.4692    Y=              1.0078    Z=             -1.8323  Tot=              2.1432
 Quadrupole moment (field-independent basis, Debye-Ang):
   XX=            -51.8854   YY=            -54.0392   ZZ=            -53.6892
   XY=              4.7121   XZ=             -0.4827   YZ=             -1.1784

  Exact polarizability:  81.600   7.916  89.105  -2.135  -3.547  63.988
 Approx polarizability: 112.735  13.995 136.580  -3.959 -12.332 101.062

                      1                      2                      3
                      A                      A                      A
 Frequencies --     79.1762                97.7086               139.7427
 Red. masses --      2.7533                 6.7998                 3.9074
 Frc consts  --      0.0102                 0.0382                 0.0450
 IR Inten    --      0.1889                 0.2098                 0.3655

                      4                      5                      6
                      A                      A                      A
 Frequencies --    175.0301               209.5167               228.6931
 Red. masses --      3.1707                 1.1015                 1.4455
 Frc consts  --      0.0572                 0.0285                 0.0445
 IR Inten    --      1.0156                 0.1132                 2.8201

                      7                      8                      9
                      A                      A                      A
 Frequencies --    257.0612               287.9665               316.9297
 Red. masses --      1.6724                 3.2085                 4.2486
 Frc consts  --      0.0651                 0.1568                 0.2514
 IR Inten    --      1.9849                 4.4674                13.6128

                     10                     11                     12
                      A                      A                      A
 Frequencies --    351.8600               404.3200               440.3371
 Red. masses --      3.1191                 2.7347                 1.4748
 Frc consts  --      0.2275                 0.2634                 0.1685
 IR Inten    --      6.9839                 2.9178                54.5469

                     13                     14                     15
                      A                      A                      A
 Frequencies --    484.5359               507.6768               548.4692
 Red. masses --      4.7133                 2.7650                 4.6228
 Frc consts  --      0.6520                 0.4199                 0.8193
 IR Inten    --      3.2720                15.7801                 3.1681

                     16                     17                     18
                      A                      A                      A
 Frequencies --    634.0293               639.9318               673.2570
 Red. masses --      1.4984                 2.0581                 1.2580
 Frc consts  --      0.3549                 0.4966                 0.3360
 IR Inten    --     20.0257                31.0258                36.3653

                     19                     20                     21
                      A                      A                      A
 Frequencies --    818.5830               868.8652               930.4439
 Red. masses --      4.9636                 2.9191                 1.2020
 Frc consts  --      1.9596                 1.2984                 0.6131
 IR Inten    --     30.6671                 9.7450                 2.8363

                     22                     23                     24
                      A                      A                      A
 Frequencies --    948.0501               961.5553              1003.9590
 Red. masses --      2.0213                 1.5103                 3.1856
 Frc consts  --      1.0704                 0.8227                 1.8918
 IR Inten    --      2.2888                 4.9735                28.9932

                     25                     26                     27
                      A                      A                      A
 Frequencies --   1050.8322              1085.5181              1157.0943
 Red. masses --      1.8224                 2.9009                 2.4025
 Frc consts  --      1.1857                 2.0140                 1.8952
 IR Inten    --     40.7279                13.9013                12.0246

                     28                     29                     30
                      A                      A                      A
 Frequencies --   1199.8307              1207.1479              1340.2799
 Red. masses --      2.0037                 3.8247                 1.3659
 Frc consts  --      1.6995                 3.2837                 1.4456
 IR Inten    --      2.4627                36.5174                15.4096

                     31                     32                     33
                      A                      A                      A
 Frequencies --   1344.6417              1383.8970              1396.9613
 Red. masses --      1.3698                 1.2212                 1.2388
 Frc consts  --      1.4592                 1.3780                 1.4243
 IR Inten    --      4.8227                50.5358                 4.5799

                     34                     35                     36
                      A                      A                      A
 Frequencies --   1414.9967              1421.9413              1484.9473
 Red. masses --      1.2811                 1.2658                 1.0406
 Frc consts  --      1.5113                 1.5079                 1.3519
 IR Inten    --     25.4544                29.3647                 0.9621

                     37                     38                     39
                      A                      A                      A
 Frequencies --   1493.4449              1502.7722              1514.3697
 Red. masses --      1.0490                 1.0444                 1.0557
 Frc consts  --      1.3785                 1.3897                 1.4264
 IR Inten    --      1.2147                 7.6662                 4.0301

                     40                     41                     42
                      A                      A                      A
 Frequencies --   1818.2045              2222.7339              2956.4444
 Red. masses --     10.3709                 5.9064                 1.0878
 Frc consts  --     20.2001                17.1930                 5.6018
 IR Inten    --    151.4000                 2.8734                47.6084

                     43                     44                     45
                      A                      A                      A
 Frequencies --   3019.6251              3038.1092              3044.6623
 Red. masses --      1.0826                 1.0371                 1.0355
 Frc consts  --      5.8159                 5.6401                 5.6557
 IR Inten    --     22.4889                23.5427                15.4851

                     46                     47                     48
                      A                      A                      A
 Frequencies --   3102.4187              3113.8577              3125.0981
 Red. masses --      1.0993                 1.1011                 1.1018
 Frc consts  --      6.2341                 6.2902                 6.3401
 IR Inten    --     26.9270                18.9707                 8.8869

                     49                     50                     51
                      A                      A                      A
 Frequencies --   3127.7377              3497.8990              3675.6537
 Red. masses --      1.1011                 1.1620                 1.0648
 Frc consts  --      6.3465                 8.3764                 8.4762
 IR Inten    --     24.2200                67.1042                82.4348

 - Thermochemistry -
 -------------------
 Temperature   298.150 Kelvin.  Pressure   1.00000 Atm.
 Atom     1 has atomic number  6 and mass  12.00000

 Molecular mass:   126.06808 amu.
 Principal axes and moments of inertia in atomic units:
                           1         2         3
     Eigenvalues --  1001.516631080.396881665.37159
           X            0.98792   0.15497   0.00103
           Y           -0.15498   0.98791   0.00337
           Z           -0.00050  -0.00349   0.99999
 This molecule is an asymmetric top.
 Rotational symmetry number  1.
 Warning -- assumption of classical behavior for rotation
           may cause significant error
 Rotational temperatures (Kelvin)      0.08648     0.08017     0.05201
 Rotational constants (GHZ):           1.80201     1.67044     1.08369
 Zero-point vibrational energy     405227.9 (Joules/Mol)
                                   96.85180 (Kcal/Mol)
 Warning -- explicit consideration of  15 degrees of freedom as
           vibrations may cause significant error
 Vibrational temperatures:    113.92   140.58   201.06   251.83   301.45
          (Kelvin)            329.04   369.85   414.32   455.99   506.25
                              581.73   633.55   697.14   730.43   789.12
                              912.23   920.72   968.67  1177.76  1250.10
                             1338.70  1364.03  1383.46  1444.47  1511.91
                             1561.82  1664.80  1726.29  1736.81  1928.36
                             1934.64  1991.12  2009.91  2035.86  2045.85
                             2136.51  2148.73  2162.15  2178.84  2615.99
                             3198.01  4253.66  4344.56  4371.16  4380.58
                             4463.68  4480.14  4496.31  4500.11  5032.69
                             5288.44

 Zero-point correction=                           0.154343 (Hartree/Particle)
 Thermal correction to Energy=                    0.164799
 Thermal correction to Enthalpy=                  0.165743
 Thermal correction to Gibbs Free Energy=         0.119378
 Sum of electronic and zero-point Energies=           -423.003562
 Sum of electronic and thermal Energies=              -422.993106
 Sum of electronic and thermal Enthalpies=            -422.992162
 Sum of electronic and thermal Free Energies=         -423.038527

                     E (Thermal)             CV                S
                      KCal/Mol        Cal/Mol-Kelvin    Cal/Mol-Kelvin
 Total                  103.413             38.358             97.583
 Electronic               0.000              0.000              0.000
 Translational            0.889              2.981             40.409
 Rotational               0.889              2.981             28.979
 Vibrational            101.635             32.396             28.196
 Vibration     1          0.600              1.963              3.911
 Vibration     2          0.603              1.951              3.500
 Vibration     3          0.615              1.914              2.807
 Vibration     4          0.627              1.873              2.381
 Vibration     5          0.642              1.826              2.048
 Vibration     6          0.651              1.797              1.889
 Vibration     7          0.667              1.751              1.682
 Vibration     8          0.685              1.696              1.486
 Vibration     9          0.704              1.641              1.326
 Vibration    10          0.728              1.571              1.158
 Vibration    11          0.770              1.461              0.947
 Vibration    12          0.800              1.382              0.826
 Vibration    13          0.841              1.284              0.698
 Vibration    14          0.863              1.233              0.639
 Vibration    15          0.904              1.143              0.547

 Optimization completed.
    -- Stationary point found.
 Normal termination of Gaussian 09 at Mon Jan 27 17:23:33 2020.
