 Gaussian 09, Revision D.01,
 Gaussian 09:  ES64L-G09RevD.01 24-Apr-2013

 -----------------------------
 # b3lyp 6-31G(2df,p) opt Freq
 -----------------------------

 -----
 titel
 -----
 Symbolic Z-matrix:
 Charge =  0 Multiplicity = 1

 SCF Done:  E(RB3LYP) =  -423.171006247     A.U. after   14 cycles
 Optimization completed.
    -- Stationary point found.
 Normal termination of Gaussian 09 at Mon Jan 27 22:57:25 2020.

 ----------------------------------------------------------------------
 #N Geom=AllCheck Guess=TCheck SCRF=Check GenChk RB3LYP/6-31G(2df,p) Fr
 eq
 ----------------------------------------------------------------------

 Structure from the checkpoint file:  "/scratch/puck/g09_6678fa9c-9761-4a1d-ad6e-1c56f74220ce/Gau-191711.chk"
 -----
 titel
 -----
 Charge =  0 Multiplicity = 1

                         Standard orientation:
 ---------------------------------------------------------------------
 Center     Atomic      Atomic             Coordinates (Angstroms)
 Number     Number       Type             X           Y           Z
 ---------------------------------------------------------------------
      1          6           0       -2.460668   -0.836220   -0.060082
      2          6           0       -0.983971   -0.577363   -0.046262
      3          6           0       -0.045301   -1.467092    0.292039
      4          6           0        1.393750   -1.010934    0.203686
      5          6           0        1.561742    0.323783    0.972017
      6          6           0        1.028243    0.885370   -0.363833
      7          8           0        1.570147   -0.274214   -1.051839
      8          6           0       -0.507613    0.814501   -0.456414
      9          8           0       -1.130908    1.847371    0.304469
     10          1           0       -2.859056   -0.761507   -1.080455
     11          1           0       -2.698525   -1.830602    0.326658
     12          1           0       -2.994237   -0.086839    0.534102
     13          1           0       -0.285151   -2.476887    0.611677
     14          1           0        2.130274   -1.807055    0.325440
     15          1           0        0.990896    0.461881    1.893106
     16          1           0        2.608453    0.592213    1.123323
     17          1           0        1.417887    1.833219   -0.742820
     18          1           0       -0.806103    1.015867   -1.492821
     19          1           0       -0.935449    1.682194    1.233844
 ---------------------------------------------------------------------

 SCF Done:  E(RB3LYP) =  -423.171006247     A.U. after    1 cycles

 The electronic state is 1-A.
 Alpha  occ. eigenvalues --  -19.14282 -19.13039 -10.23978 -10.23430 -10.23398
 Alpha  occ. eigenvalues --  -10.19200 -10.19177 -10.18123 -10.18064  -1.04326
 Alpha  occ. eigenvalues --   -1.02021  -0.81245  -0.74712  -0.73132  -0.69210
 Alpha  occ. eigenvalues --   -0.62090  -0.57953  -0.53865  -0.49668  -0.48968
 Alpha  occ. eigenvalues --   -0.45879  -0.44524  -0.42903  -0.41950  -0.40704
 Alpha  occ. eigenvalues --   -0.39788  -0.37244  -0.36443  -0.35003  -0.32248
 Alpha  occ. eigenvalues --   -0.30934  -0.28579  -0.25121  -0.23035
 Alpha virt. eigenvalues --    0.00030   0.06953   0.09648   0.10656   0.12161
 Alpha virt. eigenvalues --    0.13353   0.13592   0.15945   0.16319   0.16963
 Alpha virt. eigenvalues --    0.18032   0.19057   0.20372   0.21153   0.22669

 Mulliken charges:
               1
     1  C   -0.478408
     2  C    0.271606
     3  C   -0.169467
     4  C    0.052451
     5  C   -0.254564
     6  C    0.054253
     7  O   -0.292393
     8  C    0.039295
     9  O   -0.433295
    10  H    0.129888
    11  H    0.118911
    12  H    0.133057
    13  H    0.088944
    14  H    0.077120
    15  H    0.087773
    16  H    0.111969
    17  H    0.082014
    18  H    0.099865
    19  H    0.280982
 Sum of Mulliken charges =   0.00000

 Dipole moment (field-independent basis, Debye):
    X=             -0.1322    Y=             -0.6879    Z=              2.0207  Tot=              2.1387
 Quadrupole moment (field-independent basis, Debye-Ang):
   XX=            -53.7943   YY=            -53.7403   ZZ=            -52.6881
   XY=              2.6328   XZ=              2.6783   YZ=             -0.5031

  Exact polarizability:  87.655  -2.587  77.948   4.317  -3.789  62.189
 Approx polarizability: 121.130 -14.451 119.291   4.927  -6.718 100.390

                      1                      2                      3
                      A                      A                      A
 Frequencies --    119.9763               176.0878               219.8795
 Red. masses --      3.2527                 1.0928                 3.2342
 Frc consts  --      0.0276                 0.0200                 0.0921
 IR Inten    --      1.5195                 0.0189                 0.5940

                      4                      5                      6
                      A                      A                      A
 Frequencies --    252.0849               316.0367               361.8040
 Red. masses --      3.0624                 1.3371                 1.9357
 Frc consts  --      0.1147                 0.0787                 0.1493
 IR Inten    --      0.2081                48.1303                46.2950

                      7                      8                      9
                      A                      A                      A
 Frequencies --    399.1363               427.0089               472.0112
 Red. masses --      3.4888                 3.5888                 4.0895
 Frc consts  --      0.3275                 0.3855                 0.5368
 IR Inten    --      6.0086                 3.1908                 0.6492

                     10                     11                     12
                      A                      A                      A
 Frequencies --    539.7050               615.1982               653.1531
 Red. masses --      4.1989                 2.7280                 4.3686
 Frc consts  --      0.7206                 0.6083                 1.0980
 IR Inten    --      1.1279                 5.4908                 4.8885

                     13                     14                     15
                      A                      A                      A
 Frequencies --    777.7295               832.8678               848.2913
 Red. masses --      3.2327                 1.7123                 2.6175
 Frc consts  --      1.1520                 0.6998                 1.1098
 IR Inten    --     15.9805                 9.2163                 6.2961

                     16                     17                     18
                      A                      A                      A
 Frequencies --    868.3170               912.6042               934.6029
 Red. masses --      2.0060                 5.1917                 2.6956
 Frc consts  --      0.8911                 2.5476                 1.3873
 IR Inten    --     21.3195                24.9970                 9.3287

                     19                     20                     21
                      A                      A                      A
 Frequencies --    969.3075               987.2327              1039.7872
 Red. masses --      2.6821                 2.1994                 1.7572
 Frc consts  --      1.4847                 1.2630                 1.1193
 IR Inten    --     16.4359                 4.3434                38.0600

                     22                     23                     24
                      A                      A                      A
 Frequencies --   1054.2786              1068.1895              1077.1542
 Red. masses --      1.8564                 2.1971                 1.6513
 Frc consts  --      1.2157                 1.4770                 1.1289
 IR Inten    --     36.0742                33.8515                 7.8915

                     25                     26                     27
                      A                      A                      A
 Frequencies --   1090.8301              1104.2995              1193.5586
 Red. masses --      2.1359                 1.5022                 1.4958
 Frc consts  --      1.4974                 1.0793                 1.2555
 IR Inten    --     22.4925                 2.6524                11.2099

                     28                     29                     30
                      A                      A                      A
 Frequencies --   1201.6595              1245.0508              1247.3493
 Red. masses --      2.4928                 1.3663                 1.3071
 Frc consts  --      2.1208                 1.2479                 1.1982
 IR Inten    --      1.8808                 2.8098                 5.8075

                     31                     32                     33
                      A                      A                      A
 Frequencies --   1293.9057              1313.4489              1324.9836
 Red. masses --      1.4063                 1.6703                 1.4695
 Frc consts  --      1.3872                 1.6977                 1.5200
 IR Inten    --      4.6686                 0.2567                 2.9388

                     34                     35                     36
                      A                      A                      A
 Frequencies --   1350.5414              1375.8829              1405.5157
 Red. masses --      1.7038                 1.5586                 1.2912
 Frc consts  --      1.8310                 1.7384                 1.5028
 IR Inten    --     12.2270                 1.2244                31.8696

                     37                     38                     39
                      A                      A                      A
 Frequencies --   1412.7864              1472.8855              1484.8379
 Red. masses --      1.2597                 1.0458                 1.1206
 Frc consts  --      1.4814                 1.3368                 1.4556
 IR Inten    --     26.9157                 5.8043                 4.0225

                     40                     41                     42
                      A                      A                      A
 Frequencies --   1491.1070              1714.3046              3022.0640
 Red. masses --      1.0707                 7.1140                 1.0410
 Frc consts  --      1.4026                12.3179                 5.6018
 IR Inten    --     10.2757                 8.5260                22.0944

                     43                     44                     45
                      A                      A                      A
 Frequencies --   3036.7168              3066.3670              3078.1730
 Red. masses --      1.0832                 1.0584                 1.0930
 Frc consts  --      5.8854                 5.8634                 6.1016
 IR Inten    --     24.5499                31.5822                14.9762

                     46                     47                     48
                      A                      A                      A
 Frequencies --   3086.2668              3098.1314              3117.4358
 Red. masses --      1.0886                 1.0902                 1.1017
 Frc consts  --      6.1090                 6.1652                 6.3081
 IR Inten    --     53.0657                40.1657                16.5874

                     49                     50                     51
                      A                      A                      A
 Frequencies --   3132.3139              3170.7260              3797.2691
 Red. masses --      1.1081                 1.0925                 1.0658
 Frc consts  --      6.4054                 6.4713                 9.0544
 IR Inten    --     31.8615                19.2759                10.4674

 - Thermochemistry -
 -------------------
 Temperature   298.150 Kelvin.  Pressure   1.00000 Atm.
 Atom     1 has atomic number  6 and mass  12.00000

 Molecular mass:   126.06808 amu.
 Principal axes and moments of inertia in atomic units:
                           1         2         3
     Eigenvalues --   689.532991074.618901426.40753
           X            0.99793   0.06008   0.02301
           Y           -0.05985   0.99815  -0.01067
           Z           -0.02361   0.00927   0.99968
 This molecule is an asymmetric top.
 Rotational symmetry number  1.
 Warning -- assumption of classical behavior for rotation
           may cause significant error
 Rotational temperatures (Kelvin)      0.12561     0.08060     0.06072
 Rotational constants (GHZ):           2.61734     1.67942     1.26524
 Zero-point vibrational energy     420193.4 (Joules/Mol)
                                  100.42864 (Kcal/Mol)
 Warning -- explicit consideration of  11 degrees of freedom as
           vibrations may cause significant error
 Vibrational temperatures:    172.62   253.35   316.36   362.69   454.71
          (Kelvin)            520.55   574.27   614.37   679.12   776.51
                              885.13   939.74  1118.98  1198.31  1220.50
                             1249.31  1313.03  1344.68  1394.62  1420.41
                             1496.02  1516.87  1536.88  1549.78  1569.46
                             1588.84  1717.26  1728.92  1791.35  1794.66
                             1861.64  1889.76  1906.35  1943.13  1979.59
                             2022.22  2032.68  2119.15  2136.35  2145.37
                             2466.50  4348.07  4369.15  4411.81  4428.80
                             4440.44  4457.51  4485.29  4506.70  4561.96
                             5463.42

 Zero-point correction=                           0.160043 (Hartree/Particle)
 Thermal correction to Energy=                    0.168026
 Thermal correction to Enthalpy=                  0.168970
 Thermal correction to Gibbs Free Energy=         0.127948
 Sum of electronic and zero-point Energies=           -423.010963
 Sum of electronic and thermal Energies=              -423.002980
 Sum of electronic and thermal Enthalpies=            -423.002036
 Sum of electronic and thermal Free Energies=         -423.043058

                     E (Thermal)             CV                S
                      KCal/Mol        Cal/Mol-Kelvin    Cal/Mol-Kelvin
 Total                  105.438             31.700             86.338
 Electronic               0.000              0.000              0.000
 Translational            0.889              2.981             40.409
 Rotational               0.889              2.981             28.449
 Vibrational            103.661             25.738             17.481
 Vibration     1          0.609              1.933              3.101
 Vibration     2          0.628              1.872              2.369
 Vibration     3          0.647              1.811              1.960
 Vibration     4          0.664              1.759              1.716
 Vibration     5          0.703              1.643              1.331
 Vibration     6          0.736              1.551              1.114
 Vibration     7          0.765              1.472              0.966
 Vibration     8          0.789              1.411              0.868
 Vibration     9          0.829              1.312              0.732
 Vibration    10          0.895              1.162              0.566
 Vibration    11          0.975              1.000              0.424

 Normal termination of Gaussian 09 at Mon Jan 27 23:43:12 2020.
