 Gaussian 09, Revision D.01,
 Gaussian 09:  ES64L-G09RevD.01 24-Apr-2013

 -----------------------------
 # b3lyp 6-31G(2df,p) opt Freq
 -----------------------------

 -----
 titel
 -----
 Symbolic Z-matrix:
 Charge =  0 Multiplicity = 1

 SCF Done:  E(RB3LYP) =  -423.166929006     A.U. after   14 cycles
 SCF Done:  E(RB3LYP) =  -423.166929070     A.U. after    6 cycles
 SCF Done:  E(RB3LYP) =  -423.166929103     A.U. after    6 cycles
 Optimization completed.
    -- Stationary point found.
 Normal termination of Gaussian 09 at Tue Jan 28 13:32:16 2020.

 ----------------------------------------------------------------------
 #N Geom=AllCheck Guess=TCheck SCRF=Check GenChk RB3LYP/6-31G(2df,p) Fr
 eq
 ----------------------------------------------------------------------

 Structure from the checkpoint file:  "/scratch/puck/g09_3868c7cb-18c1-486e-85b3-88c9e3c89170/Gau-7908.chk"
 -----
 titel
 -----
 Charge =  0 Multiplicity = 1

                         Standard orientation:
 ---------------------------------------------------------------------
 Center     Atomic      Atomic             Coordinates (Angstroms)
 Number     Number       Type             X           Y           Z
 ---------------------------------------------------------------------
      1          6           0       -2.829947    0.094139    0.033860
      2          8           0       -1.738673   -0.676061   -0.422344
      3          6           0       -0.615237   -0.626356    0.417724
      4          6           0        0.434100   -1.722449    0.074228
      5          6           0        1.497987   -0.613479   -0.031439
      6          8           0        2.690695   -0.599404   -0.162688
      7          6           0        0.458008    0.454470    0.133524
      8          6           0        0.666613    1.846893    0.676997
      9          6           0        0.353179    1.664700   -0.772851
     10          1           0       -2.596435    1.167813    0.084104
     11          1           0       -3.646896   -0.051644   -0.676753
     12          1           0       -3.163684   -0.230625    1.031413
     13          1           0       -0.924444   -0.644911    1.472593
     14          1           0        0.612413   -2.503777    0.816030
     15          1           0        0.221494   -2.184180   -0.894857
     16          1           0       -0.104949    2.243274    1.329059
     17          1           0        1.682860    2.106345    0.956023
     18          1           0       -0.636786    1.917889   -1.134707
     19          1           0        1.152031    1.796023   -1.494900
 ---------------------------------------------------------------------

 SCF Done:  E(RB3LYP) =  -423.166929103     A.U. after    1 cycles

 The electronic state is 1-A.
 Alpha  occ. eigenvalues --  -19.15041 -19.12895 -10.26335 -10.24533 -10.23394
 Alpha  occ. eigenvalues --  -10.20422 -10.20250 -10.20031 -10.18902  -1.04499
 Alpha  occ. eigenvalues --   -1.03681  -0.88023  -0.81078  -0.70030  -0.63511
 Alpha  occ. eigenvalues --   -0.61652  -0.60562  -0.51666  -0.50595  -0.50445
 Alpha  occ. eigenvalues --   -0.47695  -0.45217  -0.43874  -0.42275  -0.41951
 Alpha  occ. eigenvalues --   -0.38603  -0.37909  -0.36495  -0.35704  -0.33937
 Alpha  occ. eigenvalues --   -0.31222  -0.29213  -0.26161  -0.23531
 Alpha virt. eigenvalues --   -0.01928   0.07035   0.09359   0.10523   0.12651
 Alpha virt. eigenvalues --    0.12839   0.13451   0.14476   0.16498   0.17046
 Alpha virt. eigenvalues --    0.17903   0.18617   0.19438   0.20125   0.21951

 Mulliken charges:
               1
     1  C   -0.244660
     2  O   -0.234560
     3  C    0.024337
     4  C   -0.391678
     5  C    0.346483
     6  O   -0.317853
     7  C    0.220768
     8  C   -0.324037
     9  C   -0.300399
    10  H    0.105480
    11  H    0.132394
    12  H    0.110125
    13  H    0.072909
    14  H    0.129382
    15  H    0.145737
    16  H    0.120989
    17  H    0.136416
    18  H    0.130569
    19  H    0.137599
 Sum of Mulliken charges =   0.00000

 Dipole moment (field-independent basis, Debye):
    X=             -2.9621    Y=              1.1121    Z=              1.0249  Tot=              3.3258
 Quadrupole moment (field-independent basis, Debye-Ang):
   XX=            -59.6456   YY=            -51.5083   ZZ=            -51.7091
   XY=              0.2769   XZ=             -0.5485   YZ=             -0.9719

  Exact polarizability:  86.774  -1.644  82.470  -0.622  -0.713  63.359
 Approx polarizability: 121.846  -3.924 115.653  -0.805   0.098  98.429

                      1                      2                      3
                      A                      A                      A
 Frequencies --     54.5713               104.0224               147.1003
 Red. masses --      3.5408                 2.7172                 1.9209
 Frc consts  --      0.0062                 0.0173                 0.0245
 IR Inten    --      2.3778                 1.7002                 1.4325

                      4                      5                      6
                      A                      A                      A
 Frequencies --    186.5776               199.7506               216.8767
 Red. masses --      1.8324                 2.8461                 2.2539
 Frc consts  --      0.0376                 0.0669                 0.0625
 IR Inten    --      1.4348                 0.4270                 2.0170

                      7                      8                      9
                      A                      A                      A
 Frequencies --    268.8978               365.9441               446.2765
 Red. masses --      2.8885                 4.0036                 4.0106
 Frc consts  --      0.1231                 0.3159                 0.4706
 IR Inten    --      6.8573                 2.5984                 3.3732

                     10                     11                     12
                      A                      A                      A
 Frequencies --    501.6580               572.8058               614.8652
 Red. masses --      1.9572                 2.9737                 4.2716
 Frc consts  --      0.2902                 0.5749                 0.9515
 IR Inten    --      1.0136                 0.6552                 0.1692

                     13                     14                     15
                      A                      A                      A
 Frequencies --    702.5526               767.6011               800.1161
 Red. masses --      3.0825                 1.4264                 1.6495
 Frc consts  --      0.8964                 0.4952                 0.6222
 IR Inten    --      1.0660                 0.9854                 0.0976

                     16                     17                     18
                      A                      A                      A
 Frequencies --    839.4790               909.4956               949.5275
 Red. masses --      2.6318                 1.7646                 1.7141
 Frc consts  --      1.0928                 0.8600                 0.9105
 IR Inten    --      7.8454                 3.3149                 6.9001

                     19                     20                     21
                      A                      A                      A
 Frequencies --    979.9841              1013.7465              1043.0597
 Red. masses --      4.1022                 3.2761                 1.9619
 Frc consts  --      2.3211                 1.9837                 1.2576
 IR Inten    --      7.3519                19.0173                 6.6030

                     22                     23                     24
                      A                      A                      A
 Frequencies --   1046.3120              1068.2505              1081.5190
 Red. masses --      2.2525                 2.0760                 1.4901
 Frc consts  --      1.4529                 1.3958                 1.0269
 IR Inten    --     37.7934                62.9073                 2.0407

                     25                     26                     27
                      A                      A                      A
 Frequencies --   1129.3091              1155.1331              1180.3673
 Red. masses --      1.5389                 3.1325                 1.5156
 Frc consts  --      1.1563                 2.4626                 1.2442
 IR Inten    --     10.6005               125.2837                11.1147

                     28                     29                     30
                      A                      A                      A
 Frequencies --   1184.8753              1195.6891              1235.5424
 Red. masses --      1.4101                 1.3049                 1.6920
 Frc consts  --      1.1664                 1.0991                 1.5218
 IR Inten    --      1.7352                 0.3265                30.8021

                     31                     32                     33
                      A                      A                      A
 Frequencies --   1246.8155              1263.3215              1361.9541
 Red. masses --      1.7640                 1.8010                 3.2179
 Frc consts  --      1.6156                 1.6935                 3.5168
 IR Inten    --     36.7801                22.0063                70.8303

                     34                     35                     36
                      A                      A                      A
 Frequencies --   1386.3745              1430.0560              1458.3181
 Red. masses --      1.2689                 1.1373                 1.0877
 Frc consts  --      1.4370                 1.3704                 1.3629
 IR Inten    --     50.1860                 6.2311                 2.9695

                     37                     38                     39
                      A                      A                      A
 Frequencies --   1481.2586              1484.8157              1494.2827
 Red. masses --      1.1168                 1.2321                 1.1785
 Frc consts  --      1.4437                 1.6005                 1.5503
 IR Inten    --      4.6096                 6.0606                 1.3538

                     40                     41                     42
                      A                      A                      A
 Frequencies --   1510.8882              1879.8605              2978.3388
 Red. masses --      1.0798                12.5477                 1.0384
 Frc consts  --      1.4524                26.1256                 5.4273
 IR Inten    --      4.4214               259.5999                40.8510

                     43                     44                     45
                      A                      A                      A
 Frequencies --   2999.7311              3026.7301              3066.0442
 Red. masses --      1.0825                 1.1028                 1.0592
 Frc consts  --      5.7390                 5.9526                 5.8663
 IR Inten    --     52.7198                49.6032                 4.2349

                     46                     47                     48
                      A                      A                      A
 Frequencies --   3117.6906              3126.8540              3127.6739
 Red. masses --      1.0965                 1.0557                 1.1025
 Frc consts  --      6.2798                 6.0815                 6.3544
 IR Inten    --     27.5871                11.5768                 8.1222

                     49                     50                     51
                      A                      A                      A
 Frequencies --   3138.2347              3212.3894              3230.7276
 Red. masses --      1.0541                 1.1183                 1.1164
 Frc consts  --      6.1164                 6.7991                 6.8657
 IR Inten    --      9.4580                 0.9872                 6.3656

 - Thermochemistry -
 -------------------
 Temperature   298.150 Kelvin.  Pressure   1.00000 Atm.
 Atom     1 has atomic number  6 and mass  12.00000

 Molecular mass:   126.06808 amu.
 Principal axes and moments of inertia in atomic units:
                           1         2         3
     Eigenvalues --   692.080791317.251211796.73893
           X            0.99998   0.00225  -0.00542
           Y           -0.00229   0.99997  -0.00715
           Z            0.00541   0.00716   0.99996
 This molecule is an asymmetric top.
 Rotational symmetry number  1.
 Warning -- assumption of classical behavior for rotation
           may cause significant error
 Rotational temperatures (Kelvin)      0.12515     0.06575     0.04821
 Rotational constants (GHZ):           2.60770     1.37008     1.00445
 Zero-point vibrational energy     412617.5 (Joules/Mol)
                                   98.61796 (Kcal/Mol)
 Warning -- explicit consideration of  12 degrees of freedom as
           vibrations may cause significant error
 Vibrational temperatures:     78.52   149.66   211.64   268.44   287.40
          (Kelvin)            312.04   386.88   526.51   642.09   721.77
                              824.14   884.65  1010.82  1104.41  1151.19
                             1207.82  1308.56  1366.16  1409.98  1458.55
                             1500.73  1505.41  1536.97  1556.06  1624.82
                             1661.98  1698.28  1704.77  1720.33  1777.67
                             1793.89  1817.64  1959.55  1994.68  2057.53
                             2098.19  2131.20  2136.32  2149.94  2173.83
                             2704.70  4285.16  4315.94  4354.78  4411.35
                             4485.66  4498.84  4500.02  4515.21  4621.91
                             4648.29

 Zero-point correction=                           0.157158 (Hartree/Particle)
 Thermal correction to Energy=                    0.166312
 Thermal correction to Enthalpy=                  0.167256
 Thermal correction to Gibbs Free Energy=         0.122781
 Sum of electronic and zero-point Energies=           -423.009771
 Sum of electronic and thermal Energies=              -423.000617
 Sum of electronic and thermal Enthalpies=            -422.999673
 Sum of electronic and thermal Free Energies=         -423.044148

                     E (Thermal)             CV                S
                      KCal/Mol        Cal/Mol-Kelvin    Cal/Mol-Kelvin
 Total                  104.363             33.401             93.606
 Electronic               0.000              0.000              0.000
 Translational            0.889              2.981             40.409
 Rotational               0.889              2.981             28.884
 Vibrational            102.585             27.439             24.313
 Vibration     1          0.596              1.976              4.644
 Vibration     2          0.605              1.946              3.378
 Vibration     3          0.617              1.906              2.709
 Vibration     4          0.632              1.858              2.262
 Vibration     5          0.638              1.840              2.135
 Vibration     6          0.646              1.815              1.985
 Vibration     7          0.673              1.730              1.603
 Vibration     8          0.739              1.542              1.097
 Vibration     9          0.806              1.369              0.807
 Vibration    10          0.857              1.246              0.654
 Vibration    11          0.929              1.090              0.499
 Vibration    12          0.974              1.000              0.425

 Optimization completed.
    -- Stationary point found.
 Normal termination of Gaussian 09 at Tue Jan 28 14:20:06 2020.
