 Gaussian 09, Revision D.01,
 Gaussian 09:  ES64L-G09RevD.01 24-Apr-2013

 -----------------------------
 # b3lyp 6-31G(2df,p) opt Freq
 -----------------------------

 -----
 titel
 -----
 Symbolic Z-matrix:
 Charge =  0 Multiplicity = 1

 SCF Done:  E(RB3LYP) =  -423.230457534     A.U. after   14 cycles
 Optimization completed.
    -- Stationary point found.
 Normal termination of Gaussian 09 at Tue Jan 28 12:09:05 2020.

 ----------------------------------------------------------------------
 #N Geom=AllCheck Guess=TCheck SCRF=Check GenChk RB3LYP/6-31G(2df,p) Fr
 eq
 ----------------------------------------------------------------------

 Structure from the checkpoint file:  "/scratch/puck/g09_59d537c3-7fbb-4a67-9369-53eb4faf6cba/Gau-18864.chk"
 -----
 titel
 -----
 Charge =  0 Multiplicity = 1

                         Standard orientation:
 ---------------------------------------------------------------------
 Center     Atomic      Atomic             Coordinates (Angstroms)
 Number     Number       Type             X           Y           Z
 ---------------------------------------------------------------------
      1          6           0       -0.692121    2.166899    0.025506
      2          6           0       -0.480004    0.687007    0.065596
      3          6           0        0.648378   -0.032734    0.215159
      4          6           0        2.049391    0.479439    0.382075
      5          8           0        2.969934   -0.160058   -0.497161
      6          6           0        0.399244   -1.527985    0.200321
      7          6           0       -1.121764   -1.667757    0.024452
      8          6           0       -1.642718   -0.229829   -0.071854
      9          8           0       -2.793392    0.107454   -0.239795
     10          1           0        0.235158    2.725016   -0.123970
     11          1           0       -1.394618    2.418787   -0.774954
     12          1           0       -1.151063    2.518413    0.957024
     13          1           0        2.086550    1.572162    0.277629
     14          1           0        2.406545    0.240393    1.392120
     15          1           0        2.721870    0.074766   -1.397587
     16          1           0        0.970363   -2.002555   -0.604088
     17          1           0        0.762807   -1.984871    1.129517
     18          1           0       -1.407173   -2.220930   -0.875034
     19          1           0       -1.605218   -2.170591    0.867461
 ---------------------------------------------------------------------

 SCF Done:  E(RB3LYP) =  -423.230457534     A.U. after    1 cycles

 The electronic state is 1-A.
 Alpha  occ. eigenvalues --  -19.14989 -19.11710 -10.25595 -10.24407 -10.20855
 Alpha  occ. eigenvalues --  -10.19564 -10.19489 -10.18833 -10.18681  -1.02963
 Alpha  occ. eigenvalues --   -1.02690  -0.85544  -0.76262  -0.73186  -0.66771
 Alpha  occ. eigenvalues --   -0.65651  -0.56702  -0.50596  -0.49963  -0.47765
 Alpha  occ. eigenvalues --   -0.47482  -0.44366  -0.43976  -0.41781  -0.39649
 Alpha  occ. eigenvalues --   -0.38677  -0.38294  -0.37170  -0.35929  -0.34571
 Alpha  occ. eigenvalues --   -0.34339  -0.28614  -0.25725  -0.23575
 Alpha virt. eigenvalues --   -0.04189   0.05521   0.07125   0.09872   0.10036
 Alpha virt. eigenvalues --    0.13444   0.14443   0.14663   0.16167   0.17121
 Alpha virt. eigenvalues --    0.17316   0.19375   0.21021   0.22206   0.22948

 Mulliken charges:
               1
     1  C   -0.503008
     2  C    0.096224
     3  C    0.177896
     4  C   -0.167225
     5  O   -0.407311
     6  C   -0.298138
     7  C   -0.343923
     8  C    0.347838
     9  O   -0.331766
    10  H    0.119297
    11  H    0.147259
    12  H    0.142564
    13  H    0.101649
    14  H    0.126061
    15  H    0.287005
    16  H    0.123706
    17  H    0.116264
    18  H    0.132017
    19  H    0.133590
 Sum of Mulliken charges =   0.00000

 Dipole moment (field-independent basis, Debye):
    X=              2.2000    Y=              0.1389    Z=             -0.0405  Tot=              2.2047
 Quadrupole moment (field-independent basis, Debye-Ang):
   XX=            -68.7961   YY=            -49.6785   ZZ=            -48.9623
   XY=              3.3271   XZ=             -2.2710   YZ=             -0.3701

  Exact polarizability:  99.571  -5.751  84.456   3.391  -0.615  57.769
 Approx polarizability: 159.995 -19.234 116.531   8.009  -2.257  90.937

                      1                      2                      3
                      A                      A                      A
 Frequencies --     49.5959                67.5907                95.4917
 Red. masses --      1.9452                 1.7300                 1.8280
 Frc consts  --      0.0028                 0.0047                 0.0098
 IR Inten    --      2.8918                 5.0077                 0.8987

                      4                      5                      6
                      A                      A                      A
 Frequencies --    119.4410               220.2402               261.7786
 Red. masses --      2.5170                 3.3679                 2.3788
 Frc consts  --      0.0212                 0.0963                 0.0960
 IR Inten    --      0.1894                 3.6649                 0.9616

                      7                      8                      9
                      A                      A                      A
 Frequencies --    281.2555               323.4673               373.9780
 Red. masses --      2.8421                 1.7048                 2.1180
 Frc consts  --      0.1325                 0.1051                 0.1745
 IR Inten    --     17.0499                55.6235                53.2687

                     10                     11                     12
                      A                      A                      A
 Frequencies --    478.0014               528.8496               594.5852
 Red. masses --      3.2869                 4.3751                 2.3063
 Frc consts  --      0.4425                 0.7209                 0.4804
 IR Inten    --      5.4328                 6.5362                 2.2526

                     13                     14                     15
                      A                      A                      A
 Frequencies --    617.0273               663.8397               707.3967
 Red. masses --      3.1458                 4.8096                 4.2958
 Frc consts  --      0.7056                 1.2488                 1.2665
 IR Inten    --      4.9743                 1.0024                 2.3074

                     16                     17                     18
                      A                      A                      A
 Frequencies --    830.2545               861.9244               931.7852
 Red. masses --      1.5425                 2.3984                 1.6172
 Frc consts  --      0.6265                 1.0498                 0.8273
 IR Inten    --      4.5319                 6.9866                 5.3457

                     19                     20                     21
                      A                      A                      A
 Frequencies --   1001.1747              1013.0133              1034.0515
 Red. masses --      2.0923                 2.0127                 4.8737
 Frc consts  --      1.2357                 1.2169                 3.0704
 IR Inten    --      3.7483                12.7550                90.3170

                     22                     23                     24
                      A                      A                      A
 Frequencies --   1060.1205              1066.4322              1109.4928
 Red. masses --      2.3738                 2.3263                 2.2426
 Frc consts  --      1.5718                 1.5588                 1.6265
 IR Inten    --     23.1829                20.0924                 7.6894

                     25                     26                     27
                      A                      A                      A
 Frequencies --   1145.0149              1161.5477              1211.0148
 Red. masses --      1.2451                 2.4009                 1.2754
 Frc consts  --      0.9618                 1.9085                 1.1020
 IR Inten    --      7.3091                42.8081                 6.7151

                     28                     29                     30
                      A                      A                      A
 Frequencies --   1232.2841              1266.5423              1310.9860
 Red. masses --      1.1979                 1.5905                 2.2046
 Frc consts  --      1.0717                 1.5032                 2.2325
 IR Inten    --      1.2448                 0.4977                30.0712

                     31                     32                     33
                      A                      A                      A
 Frequencies --   1347.4444              1377.2270              1409.8981
 Red. masses --      2.9495                 1.2770                 1.2566
 Frc consts  --      3.1551                 1.4270                 1.4717
 IR Inten    --     28.5522                 2.6619                55.2930

                     34                     35                     36
                      A                      A                      A
 Frequencies --   1414.1784              1452.9011              1472.0959
 Red. masses --      1.3110                 1.0767                 1.0479
 Frc consts  --      1.5447                 1.3391                 1.3379
 IR Inten    --      3.8127                 3.0009                 6.2356

                     37                     38                     39
                      A                      A                      A
 Frequencies --   1481.6390              1486.7657              1495.5431
 Red. masses --      1.0694                 1.0927                 1.0760
 Frc consts  --      1.3832                 1.4232                 1.4179
 IR Inten    --      2.0219                 5.8595                 5.2684

                     40                     41                     42
                      A                      A                      A
 Frequencies --   1705.7086              1804.7070              3009.9895
 Red. masses --      8.1755                12.6687                 1.0589
 Frc consts  --     14.0144                24.3105                 5.6525
 IR Inten    --     28.8434               264.5344                35.8808

                     43                     44                     45
                      A                      A                      A
 Frequencies --   3031.7571              3037.0862              3050.8539
 Red. masses --      1.0677                 1.0385                 1.1021
 Frc consts  --      5.7821                 5.6436                 6.0437
 IR Inten    --     21.7285                18.0820                28.7539

                     46                     47                     48
                      A                      A                      A
 Frequencies --   3064.2367              3071.0567              3091.5379
 Red. masses --      1.0628                 1.0928                 1.0958
 Frc consts  --      5.8793                 6.0724                 6.1706
 IR Inten    --     11.1461                 7.0480                10.6798

                     49                     50                     51
                      A                      A                      A
 Frequencies --   3104.2217              3123.6565              3810.5438
 Red. masses --      1.1024                 1.1018                 1.0664
 Frc consts  --      6.2587                 6.3343                 9.1230
 IR Inten    --     10.1388                14.0350                19.8335

 - Thermochemistry -
 -------------------
 Temperature   298.150 Kelvin.  Pressure   1.00000 Atm.
 Atom     1 has atomic number  6 and mass  12.00000

 Molecular mass:   126.06808 amu.
 Principal axes and moments of inertia in atomic units:
                           1         2         3
     Eigenvalues --   656.902731509.973202048.94753
           X            0.99998   0.00670   0.00053
           Y           -0.00670   0.99998  -0.00065
           Z           -0.00054   0.00064   1.00000
 This molecule is an asymmetric top.
 Rotational symmetry number  1.
 Warning -- assumption of classical behavior for rotation
           may cause significant error
 Rotational temperatures (Kelvin)      0.13185     0.05736     0.04227
 Rotational constants (GHZ):           2.74735     1.19521     0.88081
 Zero-point vibrational energy     415470.4 (Joules/Mol)
                                   99.29981 (Kcal/Mol)
 Warning -- explicit consideration of  13 degrees of freedom as
           vibrations may cause significant error
 Vibrational temperatures:     71.36    97.25   137.39   171.85   316.88
          (Kelvin)            376.64   404.66   465.40   538.07   687.74
                              760.90   855.47   887.76   955.12  1017.78
                             1194.55  1240.12  1340.63  1440.47  1457.50
                             1487.77  1525.28  1534.36  1596.31  1647.42
                             1671.21  1742.38  1772.98  1822.27  1886.21
                             1938.67  1981.52  2028.53  2034.68  2090.40
                             2118.02  2131.75  2139.12  2151.75  2454.13
                             2596.57  4330.70  4362.02  4369.68  4389.49
                             4408.75  4418.56  4448.03  4466.28  4494.24
                             5482.52

 Zero-point correction=                           0.158244 (Hartree/Particle)
 Thermal correction to Energy=                    0.167842
 Thermal correction to Enthalpy=                  0.168787
 Thermal correction to Gibbs Free Energy=         0.122765
 Sum of electronic and zero-point Energies=           -423.072213
 Sum of electronic and thermal Energies=              -423.062615
 Sum of electronic and thermal Enthalpies=            -423.061671
 Sum of electronic and thermal Free Energies=         -423.107693

                     E (Thermal)             CV                S
                      KCal/Mol        Cal/Mol-Kelvin    Cal/Mol-Kelvin
 Total                  105.323             34.119             96.861
 Electronic               0.000              0.000              0.000
 Translational            0.889              2.981             40.409
 Rotational               0.889              2.981             29.098
 Vibrational            103.545             28.157             27.354
 Vibration     1          0.595              1.978              4.833
 Vibration     2          0.598              1.970              4.222
 Vibration     3          0.603              1.952              3.544
 Vibration     4          0.609              1.933              3.109
 Vibration     5          0.647              1.810              1.957
 Vibration     6          0.669              1.743              1.650
 Vibration     7          0.681              1.708              1.526
 Vibration     8          0.708              1.628              1.293
 Vibration     9          0.745              1.526              1.063
 Vibration    10          0.835              1.299              0.715
 Vibration    11          0.884              1.186              0.590
 Vibration    12          0.952              1.043              0.459
 Vibration    13          0.977              0.996              0.421

 Normal termination of Gaussian 09 at Tue Jan 28 12:56:26 2020.
