 Gaussian 09, Revision D.01,
 Gaussian 09:  ES64L-G09RevD.01 24-Apr-2013

 -----------------------------
 # b3lyp 6-31G(2df,p) opt Freq
 -----------------------------

 -----
 titel
 -----
 Symbolic Z-matrix:
 Charge =  0 Multiplicity = 1

 SCF Done:  E(RB3LYP) =  -423.227340037     A.U. after   14 cycles
 Optimization completed.
    -- Stationary point found.
 Normal termination of Gaussian 09 at Tue Jan 28 12:35:43 2020.

 ----------------------------------------------------------------------
 #N Geom=AllCheck Guess=TCheck SCRF=Check GenChk RB3LYP/6-31G(2df,p) Fr
 eq
 ----------------------------------------------------------------------

 Structure from the checkpoint file:  "/scratch/puck/g09_d7086798-7fb8-49c7-a241-cfa163274f21/Gau-141948.chk"
 -----
 titel
 -----
 Charge =  0 Multiplicity = 1

                         Standard orientation:
 ---------------------------------------------------------------------
 Center     Atomic      Atomic             Coordinates (Angstroms)
 Number     Number       Type             X           Y           Z
 ---------------------------------------------------------------------
      1          6           0        2.941790   -0.545452    0.520949
      2          6           0        1.903210   -0.828152   -0.580403
      3          6           0        0.522743   -0.394563   -0.191887
      4          6           0       -0.548160   -1.138478    0.120033
      5          6           0       -1.778576   -0.333939    0.477635
      6          8           0       -2.926420   -0.730501   -0.263250
      7          6           0       -1.332273    1.129128    0.264570
      8          6           0        0.155945    1.049398   -0.091287
      9          8           0        0.904187    1.984952   -0.262022
     10          1           0        3.938608   -0.856840    0.195273
     11          1           0        2.973375    0.522125    0.750459
     12          1           0        2.698576   -1.089833    1.438881
     13          1           0        2.196706   -0.282728   -1.485284
     14          1           0        1.899099   -1.894714   -0.829478
     15          1           0       -0.584403   -2.223902    0.118067
     16          1           0       -2.061576   -0.511200    1.521512
     17          1           0       -2.701532   -0.680870   -1.199410
     18          1           0       -1.888652    1.582828   -0.561954
     19          1           0       -1.480403    1.771869    1.136444
 ---------------------------------------------------------------------

 SCF Done:  E(RB3LYP) =  -423.227340037     A.U. after    1 cycles

 The electronic state is 1-A.
 Alpha  occ. eigenvalues --  -19.14627 -19.12744 -10.26576 -10.24827 -10.20531
 Alpha  occ. eigenvalues --  -10.20195 -10.19425 -10.19086 -10.17773  -1.03715
 Alpha  occ. eigenvalues --   -1.02801  -0.85068  -0.77951  -0.71793  -0.67681
 Alpha  occ. eigenvalues --   -0.62480  -0.58665  -0.51863  -0.50169  -0.48173
 Alpha  occ. eigenvalues --   -0.47025  -0.44229  -0.42467  -0.40986  -0.40421
 Alpha  occ. eigenvalues --   -0.39248  -0.38703  -0.36370  -0.35735  -0.34669
 Alpha  occ. eigenvalues --   -0.33486  -0.28798  -0.27009  -0.24032
 Alpha virt. eigenvalues --   -0.04995   0.04216   0.08707   0.10454   0.11299
 Alpha virt. eigenvalues --    0.13047   0.13850   0.15014   0.16097   0.16867
 Alpha virt. eigenvalues --    0.17581   0.18558   0.20015   0.21785   0.22205

 Mulliken charges:
               1
     1  C   -0.380176
     2  C   -0.291287
     3  C    0.216274
     4  C   -0.221684
     5  C    0.097879
     6  O   -0.427971
     7  C   -0.364121
     8  C    0.331603
     9  O   -0.328345
    10  H    0.116022
    11  H    0.148514
    12  H    0.114986
    13  H    0.121926
    14  H    0.102213
    15  H    0.112892
    16  H    0.105982
    17  H    0.278252
    18  H    0.132810
    19  H    0.134232
 Sum of Mulliken charges =   0.00000

 Dipole moment (field-independent basis, Debye):
    X=             -0.1743    Y=             -2.0006    Z=             -0.2782  Tot=              2.0274
 Quadrupole moment (field-independent basis, Debye-Ang):
   XX=            -58.1873   YY=            -57.3813   ZZ=            -49.6309
   XY=             -5.6500   XZ=              1.5645   YZ=              1.5148

  Exact polarizability:  98.104   4.881  79.945  -3.964  -0.542  59.975
 Approx polarizability: 136.428  24.028 130.775  -9.425  -5.438  93.128

                      1                      2                      3
                      A                      A                      A
 Frequencies --     53.7486                66.6287               118.0906
 Red. masses --      3.1027                 2.7519                 3.2741
 Frc consts  --      0.0053                 0.0072                 0.0269
 IR Inten    --      4.4176                 3.4437                 0.3170

                      4                      5                      6
                      A                      A                      A
 Frequencies --    198.4844               207.4016               287.8645
 Red. masses --      1.5451                 2.6907                 1.7575
 Frc consts  --      0.0359                 0.0682                 0.0858
 IR Inten    --      0.5383                 0.1346                 0.9853

                      7                      8                      9
                      A                      A                      A
 Frequencies --    337.1889               361.8144               399.2615
 Red. masses --      1.2585                 3.4822                 2.5013
 Frc consts  --      0.0843                 0.2686                 0.2349
 IR Inten    --     41.6078                51.7231                 0.7227

                     10                     11                     12
                      A                      A                      A
 Frequencies --    494.0259               516.1852               583.9783
 Red. masses --      3.8775                 3.3771                 3.1479
 Frc consts  --      0.5576                 0.5302                 0.6325
 IR Inten    --      2.8330                 1.6009                 3.7256

                     13                     14                     15
                      A                      A                      A
 Frequencies --    640.5286               698.5785               751.3623
 Red. masses --      4.2129                 2.7113                 2.9351
 Frc consts  --      1.0184                 0.7796                 0.9763
 IR Inten    --      4.8665                 0.4889                 6.0925

                     16                     17                     18
                      A                      A                      A
 Frequencies --    798.7295               869.6545               904.4307
 Red. masses --      1.4440                 2.8260                 1.5541
 Frc consts  --      0.5428                 1.2593                 0.7490
 IR Inten    --      1.1737                 5.3965                 6.8826

                     19                     20                     21
                      A                      A                      A
 Frequencies --    939.1591               960.2618              1035.8144
 Red. masses --      2.1280                 1.9598                 3.2503
 Frc consts  --      1.1059                 1.0647                 2.0547
 IR Inten    --     13.9086                25.8949                42.9849

                     22                     23                     24
                      A                      A                      A
 Frequencies --   1059.5943              1073.3763              1093.7635
 Red. masses --      2.5774                 2.4384                 1.8265
 Frc consts  --      1.7050                 1.6553                 1.2874
 IR Inten    --     33.0698                40.2187                 4.9446

                     25                     26                     27
                      A                      A                      A
 Frequencies --   1111.0565              1146.1608              1207.0013
 Red. masses --      1.8446                 1.1941                 1.7797
 Frc consts  --      1.3416                 0.9242                 1.5276
 IR Inten    --     28.1816                26.2640                16.8015

                     28                     29                     30
                      A                      A                      A
 Frequencies --   1257.2153              1275.1243              1283.4454
 Red. masses --      1.6274                 1.3989                 1.5992
 Frc consts  --      1.5156                 1.3401                 1.5521
 IR Inten    --      2.6086                10.2492                 3.9292

                     31                     32                     33
                      A                      A                      A
 Frequencies --   1312.1334              1351.7181              1358.5318
 Red. masses --      1.5003                 1.6055                 1.7960
 Frc consts  --      1.5219                 1.7283                 1.9529
 IR Inten    --     18.1248                 8.1186                22.5106

                     34                     35                     36
                      A                      A                      A
 Frequencies --   1403.5487              1424.3987              1449.2545
 Red. masses --      1.2202                 1.2040                 1.0917
 Frc consts  --      1.4162                 1.4393                 1.3509
 IR Inten    --      2.3441                86.3075                 5.3803

                     37                     38                     39
                      A                      A                      A
 Frequencies --   1478.0599              1496.4951              1511.3436
 Red. masses --      1.0821                 1.0455                 1.0584
 Frc consts  --      1.3929                 1.3795                 1.4243
 IR Inten    --      1.8710                 7.1025                 3.5777

                     40                     41                     42
                      A                      A                      A
 Frequencies --   1690.5106              1806.4458              3033.6957
 Red. masses --      7.9896                12.5913                 1.0587
 Frc consts  --     13.4528                24.2087                 5.7408
 IR Inten    --      4.1325               226.0339                19.2436

                     43                     44                     45
                      A                      A                      A
 Frequencies --   3042.5857              3045.8616              3063.2254
 Red. masses --      1.0359                 1.0840                 1.0622
 Frc consts  --      5.6499                 5.9249                 5.8725
 IR Inten    --     28.2456                21.0226                 4.5174

                     46                     47                     48
                      A                      A                      A
 Frequencies --   3074.9158              3108.2965              3110.8287
 Red. masses --      1.1022                 1.1015                 1.1022
 Frc consts  --      6.1403                 6.2704                 6.2844
 IR Inten    --     11.2115                 7.3439                31.4478

                     49                     50                     51
                      A                      A                      A
 Frequencies --   3133.0441              3181.7503              3794.5182
 Red. masses --      1.1018                 1.0940                 1.0661
 Frc consts  --      6.3719                 6.5252                 9.0443
 IR Inten    --     16.1043                 8.3990                14.1947

 - Thermochemistry -
 -------------------
 Temperature   298.150 Kelvin.  Pressure   1.00000 Atm.
 Atom     1 has atomic number  6 and mass  12.00000

 Molecular mass:   126.06808 amu.
 Principal axes and moments of inertia in atomic units:
                           1         2         3
     Eigenvalues --   615.121351596.188352034.24206
           X            0.99927  -0.03810   0.00344
           Y            0.03806   0.99920   0.01193
           Z           -0.00390  -0.01179   0.99992
 This molecule is an asymmetric top.
 Rotational symmetry number  1.
 Warning -- assumption of classical behavior for rotation
           may cause significant error
 Rotational temperatures (Kelvin)      0.14081     0.05426     0.04258
 Rotational constants (GHZ):           2.93396     1.13066     0.88718
 Zero-point vibrational energy     416307.0 (Joules/Mol)
                                   99.49975 (Kcal/Mol)
 Warning -- explicit consideration of  12 degrees of freedom as
           vibrations may cause significant error
 Vibrational temperatures:     77.33    95.86   169.91   285.57   298.40
          (Kelvin)            414.17   485.14   520.57   574.45   710.79
                              742.67   840.21   921.58  1005.10  1081.04
                             1149.19  1251.24  1301.27  1351.24  1381.60
                             1490.30  1524.52  1544.35  1573.68  1598.56
                             1649.07  1736.60  1808.85  1834.62  1846.59
                             1887.86  1944.82  1954.62  2019.39  2049.39
                             2085.15  2126.60  2153.12  2174.48  2432.26
                             2599.07  4364.81  4377.60  4382.31  4407.29
                             4424.11  4472.14  4475.78  4507.75  4577.82
                             5459.46

 Zero-point correction=                           0.158563 (Hartree/Particle)
 Thermal correction to Energy=                    0.167824
 Thermal correction to Enthalpy=                  0.168768
 Thermal correction to Gibbs Free Energy=         0.123777
 Sum of electronic and zero-point Energies=           -423.068777
 Sum of electronic and thermal Energies=              -423.059516
 Sum of electronic and thermal Enthalpies=            -423.058572
 Sum of electronic and thermal Free Energies=         -423.103563

                     E (Thermal)             CV                S
                      KCal/Mol        Cal/Mol-Kelvin    Cal/Mol-Kelvin
 Total                  105.311             33.870             94.691
 Electronic               0.000              0.000              0.000
 Translational            0.889              2.981             40.409
 Rotational               0.889              2.981             29.081
 Vibrational            103.534             27.909             25.201
 Vibration     1          0.596              1.976              4.674
 Vibration     2          0.598              1.970              4.251
 Vibration     3          0.608              1.934              3.131
 Vibration     4          0.637              1.842              2.147
 Vibration     5          0.641              1.829              2.066
 Vibration     6          0.685              1.696              1.486
 Vibration     7          0.718              1.601              1.225
 Vibration     8          0.736              1.551              1.114
 Vibration     9          0.765              1.472              0.965
 Vibration    10          0.850              1.263              0.673
 Vibration    11          0.871              1.214              0.619
 Vibration    12          0.941              1.066              0.478

 Optimization completed.
    -- Stationary point found.
 Normal termination of Gaussian 09 at Tue Jan 28 13:15:56 2020.
