 Gaussian 09, Revision D.01,
 Gaussian 09:  ES64L-G09RevD.01 24-Apr-2013

 -----------------------------
 # b3lyp 6-31G(2df,p) opt Freq
 -----------------------------

 -----
 titel
 -----
 Symbolic Z-matrix:
 Charge =  0 Multiplicity = 1

 SCF Done:  E(RB3LYP) =  -423.202529814     A.U. after   14 cycles
 Optimization completed.
    -- Stationary point found.
 Normal termination of Gaussian 09 at Mon Jan 27 13:08:11 2020.

 ----------------------------------------------------------------------
 #N Geom=AllCheck Guess=TCheck SCRF=Check GenChk RB3LYP/6-31G(2df,p) Fr
 eq
 ----------------------------------------------------------------------

 Structure from the checkpoint file:  "/scratch/puck/g09_037b3bb8-9f2e-4894-9d01-607a5efd11f9/Gau-55033.chk"
 -----
 titel
 -----
 Charge =  0 Multiplicity = 1

                         Standard orientation:
 ---------------------------------------------------------------------
 Center     Atomic      Atomic             Coordinates (Angstroms)
 Number     Number       Type             X           Y           Z
 ---------------------------------------------------------------------
      1          8           0       -2.837954   -0.694474    0.042257
      2          6           0       -1.706225   -0.282528   -0.043682
      3          6           0       -1.371841    1.204407    0.112286
      4          6           0        0.052902    1.553536   -0.343196
      5          6           0        1.046652    0.708962    0.448405
      6          8           0        2.286529    0.437396   -0.241665
      7          6           0        2.103370   -0.988324   -0.108220
      8          6           0        0.704125   -0.803507    0.518303
      9          6           0       -0.515377   -1.198115   -0.320629
     10          1           0       -2.133444    1.780226   -0.421444
     11          1           0       -1.502352    1.448699    1.176132
     12          1           0        0.176228    1.331344   -1.408684
     13          1           0        0.252704    2.621938   -0.217688
     14          1           0        1.237562    1.162019    1.431154
     15          1           0        2.135593   -1.500305   -1.078211
     16          1           0        2.854168   -1.435983    0.555016
     17          1           0        0.608714   -1.195334    1.533118
     18          1           0       -0.276370   -1.088002   -1.388294
     19          1           0       -0.823039   -2.234569   -0.165441
 ---------------------------------------------------------------------

 SCF Done:  E(RB3LYP) =  -423.202529814     A.U. after    1 cycles

 The electronic state is 1-A.
 Alpha  occ. eigenvalues --  -19.13630 -19.12846 -10.27140 -10.24072 -10.23654
 Alpha  occ. eigenvalues --  -10.20461 -10.19815 -10.19753 -10.19317  -1.04301
 Alpha  occ. eigenvalues --   -1.03965  -0.82660  -0.77368  -0.70998  -0.69107
 Alpha  occ. eigenvalues --   -0.63209  -0.55525  -0.52922  -0.51447  -0.48780
 Alpha  occ. eigenvalues --   -0.47393  -0.45477  -0.43192  -0.41986  -0.40968
 Alpha  occ. eigenvalues --   -0.39824  -0.38348  -0.37572  -0.37313  -0.33315
 Alpha  occ. eigenvalues --   -0.32296  -0.30212  -0.25420  -0.23994
 Alpha virt. eigenvalues --   -0.01710   0.06879   0.08027   0.09928   0.11284
 Alpha virt. eigenvalues --    0.13103   0.14279   0.14778   0.15101   0.15676
 Alpha virt. eigenvalues --    0.18101   0.18671   0.19542   0.20196   0.21784

 Mulliken charges:
               1
     1  O   -0.310316
     2  C    0.398055
     3  C   -0.309758
     4  C   -0.248786
     5  C    0.148587
     6  O   -0.293020
     7  C   -0.091220
     8  C   -0.071405
     9  C   -0.332998
    10  H    0.133827
    11  H    0.132819
    12  H    0.112375
    13  H    0.108506
    14  H    0.077042
    15  H    0.102990
    16  H    0.103083
    17  H    0.088016
    18  H    0.128061
    19  H    0.124140
 Sum of Mulliken charges =   0.00000

 Dipole moment (field-independent basis, Debye):
    X=              1.2805    Y=              0.1444    Z=              0.4495  Tot=              1.3648
 Quadrupole moment (field-independent basis, Debye-Ang):
   XX=            -67.8019   YY=            -50.6128   ZZ=            -50.8328
   XY=             -6.8802   XZ=              1.8664   YZ=              0.7972

  Exact polarizability:  84.207  -3.143  76.800  -0.243   1.714  61.895
 Approx polarizability: 117.589   1.761 108.098  -2.905   2.043  97.766

                      1                      2                      3
                      A                      A                      A
 Frequencies --     54.8266                99.1296               201.1652
 Red. masses --      4.3360                 2.8995                 2.1939
 Frc consts  --      0.0077                 0.0168                 0.0523
 IR Inten    --      9.4557                 1.4003                 0.3622

                      4                      5                      6
                      A                      A                      A
 Frequencies --    313.3153               362.5618               387.9949
 Red. masses --      2.9300                 2.4075                 4.9200
 Frc consts  --      0.1695                 0.1865                 0.4364
 IR Inten    --      3.5586                 1.2027                 1.0247

                      7                      8                      9
                      A                      A                      A
 Frequencies --    443.7166               503.8610               551.0477
 Red. masses --      4.2425                 2.5915                 3.3167
 Frc consts  --      0.4921                 0.3876                 0.5934
 IR Inten    --      8.3020                 3.4859                 0.8307

                     10                     11                     12
                      A                      A                      A
 Frequencies --    571.6362               726.7394               764.7179
 Red. masses --      1.9766                 3.1106                 2.7886
 Frc consts  --      0.3805                 0.9679                 0.9608
 IR Inten    --      6.5160                 1.9993                 1.7954

                     13                     14                     15
                      A                      A                      A
 Frequencies --    810.5663               859.9141               885.2030
 Red. masses --      2.7865                 2.1712                 1.7483
 Frc consts  --      1.0787                 0.9459                 0.8071
 IR Inten    --      1.4100                 9.6751                 9.5107

                     16                     17                     18
                      A                      A                      A
 Frequencies --    920.2650               976.8898               992.6805
 Red. masses --      1.5691                 2.1579                 3.2788
 Frc consts  --      0.7829                 1.2133                 1.9037
 IR Inten    --      4.7922                 2.1591                11.9942

                     19                     20                     21
                      A                      A                      A
 Frequencies --   1028.1562              1036.4551              1054.5656
 Red. masses --      3.5803                 2.7102                 2.2163
 Frc consts  --      2.2299                 1.7153                 1.4522
 IR Inten    --     64.9438                11.5008                16.9498

                     22                     23                     24
                      A                      A                      A
 Frequencies --   1088.6085              1120.1025              1139.1331
 Red. masses --      1.4075                 2.2999                 2.5588
 Frc consts  --      0.9827                 1.7001                 1.9563
 IR Inten    --     25.5197                 2.5702                29.2089

                     25                     26                     27
                      A                      A                      A
 Frequencies --   1165.4520              1188.9755              1223.1741
 Red. masses --      1.2000                 1.6427                 1.6286
 Frc consts  --      0.9603                 1.3683                 1.4356
 IR Inten    --      8.4813                13.6360                16.0205

                     28                     29                     30
                      A                      A                      A
 Frequencies --   1242.4983              1254.9360              1288.3733
 Red. masses --      1.5141                 1.3663                 1.3034
 Frc consts  --      1.3772                 1.2678                 1.2747
 IR Inten    --      8.1736                 5.3923                 0.6768

                     31                     32                     33
                      A                      A                      A
 Frequencies --   1302.6103              1328.0676              1342.3134
 Red. masses --      1.6224                 1.4294                 1.4564
 Frc consts  --      1.6220                 1.4854                 1.5461
 IR Inten    --      4.5476                 0.6475                 5.7236

                     34                     35                     36
                      A                      A                      A
 Frequencies --   1363.2001              1376.4338              1389.3600
 Red. masses --      1.3952                 1.5650                 1.4248
 Frc consts  --      1.5276                 1.7469                 1.6205
 IR Inten    --      6.5153                 2.5500                 7.3735

                     37                     38                     39
                      A                      A                      A
 Frequencies --   1448.9009              1462.9605              1505.2102
 Red. masses --      1.0826                 1.0892                 1.0868
 Frc consts  --      1.3391                 1.3735                 1.4507
 IR Inten    --      7.6003                10.0310                 5.4736

                     40                     41                     42
                      A                      A                      A
 Frequencies --   1525.2506              1820.0375              3000.6296
 Red. masses --      1.1028                12.0340                 1.0808
 Frc consts  --      1.5115                23.4867                 5.7335
 IR Inten    --      0.6181               194.9213                65.9182

                     43                     44                     45
                      A                      A                      A
 Frequencies --   3010.4715              3015.1653              3022.1752
 Red. masses --      1.0605                 1.0671                 1.0690
 Frc consts  --      5.6629                 5.7155                 5.7527
 IR Inten    --     50.2716                10.6670                 7.3496

                     46                     47                     48
                      A                      A                      A
 Frequencies --   3048.7049              3051.3986              3083.7337
 Red. masses --      1.0606                 1.1091                 1.0878
 Frc consts  --      5.8080                 6.0843                 6.0948
 IR Inten    --     18.0610                31.9956                27.3464

                     49                     50                     51
                      A                      A                      A
 Frequencies --   3090.5239              3093.7623              3110.3488
 Red. masses --      1.0973                 1.0984                 1.0945
 Frc consts  --      6.1752                 6.1941                 6.2386
 IR Inten    --     25.0561                21.3780                16.5890

 - Thermochemistry -
 -------------------
 Temperature   298.150 Kelvin.  Pressure   1.00000 Atm.
 Atom     1 has atomic number  8 and mass  15.99491

 Molecular mass:   126.06808 amu.
 Principal axes and moments of inertia in atomic units:
                           1         2         3
     Eigenvalues --   531.764931389.824551771.22880
           X            0.99922  -0.03929   0.00356
           Y            0.03926   0.99919   0.00930
           Z           -0.00392  -0.00915   0.99995
 This molecule is an asymmetric top.
 Rotational symmetry number  1.
 Warning -- assumption of classical behavior for rotation
           may cause significant error
 Rotational temperatures (Kelvin)      0.16288     0.06232     0.04890
 Rotational constants (GHZ):           3.39387     1.29854     1.01892
 Zero-point vibrational energy     422568.4 (Joules/Mol)
                                  100.99627 (Kcal/Mol)
 Warning -- explicit consideration of  10 degrees of freedom as
           vibrations may cause significant error
 Vibrational temperatures:     78.88   142.63   289.43   450.79   521.64
          (Kelvin)            558.24   638.41   724.94   792.83   822.46
                             1045.61  1100.26  1166.22  1237.22  1273.61
                             1324.05  1405.52  1428.24  1479.29  1491.23
                             1517.28  1566.26  1611.58  1638.96  1676.82
                             1710.67  1759.87  1787.68  1805.57  1853.68
                             1874.16  1910.79  1931.29  1961.34  1980.38
                             1998.98  2084.64  2104.87  2165.66  2194.49
                             2618.62  4317.23  4331.39  4338.14  4348.23
                             4386.40  4390.28  4436.80  4446.57  4451.23
                             4475.09

 Zero-point correction=                           0.160948 (Hartree/Particle)
 Thermal correction to Energy=                    0.168678
 Thermal correction to Enthalpy=                  0.169622
 Thermal correction to Gibbs Free Energy=         0.128072
 Sum of electronic and zero-point Energies=           -423.041582
 Sum of electronic and thermal Energies=              -423.033852
 Sum of electronic and thermal Enthalpies=            -423.032908
 Sum of electronic and thermal Free Energies=         -423.074458

                     E (Thermal)             CV                S
                      KCal/Mol        Cal/Mol-Kelvin    Cal/Mol-Kelvin
 Total                  105.847             29.767             87.449
 Electronic               0.000              0.000              0.000
 Translational            0.889              2.981             40.409
 Rotational               0.889              2.981             28.661
 Vibrational            104.069             23.806             18.379
 Vibration     1          0.596              1.976              4.635
 Vibration     2          0.604              1.950              3.471
 Vibration     3          0.638              1.838              2.122
 Vibration     4          0.701              1.648              1.345
 Vibration     5          0.736              1.549              1.111
 Vibration     6          0.756              1.496              1.008
 Vibration     7          0.803              1.375              0.815
 Vibration     8          0.859              1.241              0.649
 Vibration     9          0.906              1.137              0.542
 Vibration    10          0.928              1.093              0.501

 Optimization completed.
    -- Stationary point found.
 Normal termination of Gaussian 09 at Mon Jan 27 13:54:53 2020.
