 Gaussian 09, Revision D.01,
 Gaussian 09:  ES64L-G09RevD.01 24-Apr-2013

 -----------------------------
 # b3lyp 6-31G(2df,p) opt Freq
 -----------------------------

 -----
 titel
 -----
 Symbolic Z-matrix:
 Charge =  0 Multiplicity = 1

 SCF Done:  E(RB3LYP) =  -423.136822679     A.U. after   14 cycles
 SCF Done:  E(RB3LYP) =  -423.136822726     A.U. after    6 cycles
 Optimization completed.
    -- Stationary point found.
 Normal termination of Gaussian 09 at Mon Jan 27 17:33:02 2020.

 ----------------------------------------------------------------------
 #N Geom=AllCheck Guess=TCheck SCRF=Check GenChk RB3LYP/6-31G(2df,p) Fr
 eq
 ----------------------------------------------------------------------

 Structure from the checkpoint file:  "/scratch/puck/g09_ea258389-f5a8-4e7c-920e-ea5feceac06b/Gau-79082.chk"
 -----
 titel
 -----
 Charge =  0 Multiplicity = 1

                         Standard orientation:
 ---------------------------------------------------------------------
 Center     Atomic      Atomic             Coordinates (Angstroms)
 Number     Number       Type             X           Y           Z
 ---------------------------------------------------------------------
      1          6           0       -2.588454    0.112187   -0.462022
      2          6           0       -1.192698   -0.087583    0.042049
      3          8           0       -0.860246   -1.329832    0.676703
      4          6           0       -0.127948   -0.937954   -0.488840
      5          6           0        1.119443   -0.049480   -0.169174
      6          6           0        2.506208   -0.590390   -0.361948
      7          6           0        0.607135    1.334781   -0.684664
      8          6           0       -0.300430    1.092024    0.551086
      9          8           0        0.809092    0.408082    1.180785
     10          1           0       -2.953743   -0.790437   -0.958268
     11          1           0       -3.270119    0.345770    0.363517
     12          1           0       -2.630779    0.943963   -1.173794
     13          1           0       -0.189746   -1.580325   -1.361680
     14          1           0        2.657604   -0.890292   -1.404218
     15          1           0        3.258385    0.159673   -0.103027
     16          1           0        2.659590   -1.468998    0.272518
     17          1           0        1.333801    2.134342   -0.527542
     18          1           0        0.150452    1.393755   -1.677649
     19          1           0       -0.745754    1.885034    1.151318
 ---------------------------------------------------------------------

 SCF Done:  E(RB3LYP) =  -423.136822726     A.U. after    1 cycles

 The electronic state is 1-A.
 Alpha  occ. eigenvalues --  -19.14494 -19.13348 -10.24744 -10.24031 -10.23614
 Alpha  occ. eigenvalues --  -10.22807 -10.19316 -10.18873 -10.18302  -1.08730
 Alpha  occ. eigenvalues --   -1.02864  -0.78009  -0.76332  -0.72613  -0.66545
 Alpha  occ. eigenvalues --   -0.64267  -0.56614  -0.54084  -0.49313  -0.48731
 Alpha  occ. eigenvalues --   -0.45977  -0.45283  -0.42385  -0.41944  -0.40602
 Alpha  occ. eigenvalues --   -0.38948  -0.38082  -0.36304  -0.35304  -0.33825
 Alpha  occ. eigenvalues --   -0.31805  -0.28669  -0.26034  -0.23814
 Alpha virt. eigenvalues --    0.08183   0.08495   0.09925   0.10744   0.12563
 Alpha virt. eigenvalues --    0.13614   0.14353   0.14581   0.15427   0.16231
 Alpha virt. eigenvalues --    0.16703   0.17615   0.18304   0.21148   0.22124

 Mulliken charges:
               1
     1  C   -0.499165
     2  C    0.428005
     3  O   -0.274913
     4  C   -0.097383
     5  C    0.376164
     6  C   -0.506146
     7  C   -0.275404
     8  C   -0.022969
     9  O   -0.291354
    10  H    0.134555
    11  H    0.132303
    12  H    0.123784
    13  H    0.096170
    14  H    0.121169
    15  H    0.128804
    16  H    0.141548
    17  H    0.108482
    18  H    0.094422
    19  H    0.081927
 Sum of Mulliken charges =   0.00000

 Dipole moment (field-independent basis, Debye):
    X=             -0.1876    Y=              1.3182    Z=             -2.7465  Tot=              3.0522
 Quadrupole moment (field-independent basis, Debye-Ang):
   XX=            -49.7387   YY=            -53.0474   ZZ=            -55.1168
   XY=             -2.6849   XZ=             -1.0717   YZ=              2.5244

  Exact polarizability:  86.610  -2.778  72.313  -2.107   2.170  64.179
 Approx polarizability: 112.289  -4.396 110.531  -3.949   0.929 105.770

                      1                      2                      3
                      A                      A                      A
 Frequencies --    170.4052               191.2187               197.7613
 Red. masses --      2.0039                 1.1634                 1.0725
 Frc consts  --      0.0343                 0.0251                 0.0247
 IR Inten    --      0.7327                 0.0799                 0.3942

                      4                      5                      6
                      A                      A                      A
 Frequencies --    225.4330               291.9980               341.7855
 Red. masses --      2.5469                 2.7835                 2.6292
 Frc consts  --      0.0763                 0.1398                 0.1810
 IR Inten    --      0.2854                 1.1300                 1.5261

                      7                      8                      9
                      A                      A                      A
 Frequencies --    409.6422               479.1390               510.6421
 Red. masses --      3.3359                 3.5092                 3.3826
 Frc consts  --      0.3298                 0.4747                 0.5197
 IR Inten    --      1.3256                 1.4653                 0.9794

                     10                     11                     12
                      A                      A                      A
 Frequencies --    563.4748               621.6967               698.7070
 Red. masses --      4.1540                 3.9923                 4.3699
 Frc consts  --      0.7771                 0.9092                 1.2569
 IR Inten    --      2.6090                12.0556                17.3922

                     13                     14                     15
                      A                      A                      A
 Frequencies --    741.7624               817.7253               842.3414
 Red. masses --      4.0999                 3.5927                 2.6534
 Frc consts  --      1.3291                 1.4154                 1.1092
 IR Inten    --      1.2259                 7.1015                14.9335

                     16                     17                     18
                      A                      A                      A
 Frequencies --    845.9924               880.7338               898.1505
 Red. masses --      2.6543                 2.2052                 2.3125
 Frc consts  --      1.1193                 1.0078                 1.0991
 IR Inten    --      3.2180                 6.6053                30.3300

                     19                     20                     21
                      A                      A                      A
 Frequencies --    926.7538               982.8473              1002.4586
 Red. masses --      2.7850                 2.3468                 1.8812
 Frc consts  --      1.4093                 1.3357                 1.1138
 IR Inten    --     12.5851                17.3841                10.1070

                     22                     23                     24
                      A                      A                      A
 Frequencies --   1029.1834              1035.3761              1064.0764
 Red. masses --      1.8859                 2.0368                 1.4518
 Frc consts  --      1.1770                 1.2864                 0.9685
 IR Inten    --      5.5340                 3.7956                 2.3252

                     25                     26                     27
                      A                      A                      A
 Frequencies --   1105.6521              1131.0912              1179.0370
 Red. masses --      1.6421                 2.1226                 1.9249
 Frc consts  --      1.1828                 1.6000                 1.5765
 IR Inten    --      5.3412                18.8990                 3.9699

                     28                     29                     30
                      A                      A                      A
 Frequencies --   1203.3007              1213.7775              1236.8989
 Red. masses --      1.7875                 1.6395                 1.7414
 Frc consts  --      1.5249                 1.4231                 1.5697
 IR Inten    --     10.3794                20.6581                 1.7707

                     31                     32                     33
                      A                      A                      A
 Frequencies --   1259.1728              1279.9606              1337.9391
 Red. masses --      1.7421                 1.6661                 2.3847
 Frc consts  --      1.6274                 1.6082                 2.5151
 IR Inten    --      4.1068                 6.2973                12.6409

                     34                     35                     36
                      A                      A                      A
 Frequencies --   1408.3611              1415.3445              1456.3093
 Red. masses --      1.2651                 1.5212                 2.6607
 Frc consts  --      1.4784                 1.7954                 3.3248
 IR Inten    --      1.9275                13.7365                10.9595

                     37                     38                     39
                      A                      A                      A
 Frequencies --   1477.7265              1484.0003              1489.2650
 Red. masses --      1.0538                 1.1198                 1.2287
 Frc consts  --      1.3558                 1.4530                 1.6056
 IR Inten    --      2.8381                 1.1988                13.6370

                     40                     41                     42
                      A                      A                      A
 Frequencies --   1493.6234              1497.3280              3032.6574
 Red. masses --      1.0530                 1.1683                 1.0364
 Frc consts  --      1.3841                 1.5433                 5.6162
 IR Inten    --      3.6476                 2.1426                22.6357

                     43                     44                     45
                      A                      A                      A
 Frequencies --   3038.9614              3051.4243              3092.2516
 Red. masses --      1.0355                 1.0584                 1.1002
 Frc consts  --      5.6342                 5.8065                 6.1982
 IR Inten    --     15.6700                32.9807                18.0442

                     46                     47                     48
                      A                      A                      A
 Frequencies --   3109.3711              3118.8074              3120.6085
 Red. masses --      1.1005                 1.1022                 1.1004
 Frc consts  --      6.2688                 6.3165                 6.3135
 IR Inten    --     12.0394                 9.0465                13.0853

                     49                     50                     51
                      A                      A                      A
 Frequencies --   3124.5341              3130.2078              3165.7931
 Red. masses --      1.0969                 1.1014                 1.0925
 Frc consts  --      6.3096                 6.3582                 6.4514
 IR Inten    --     29.9746                42.4282                12.8676

 - Thermochemistry -
 -------------------
 Temperature   298.150 Kelvin.  Pressure   1.00000 Atm.
 Atom     1 has atomic number  6 and mass  12.00000

 Molecular mass:   126.06808 amu.
 Principal axes and moments of inertia in atomic units:
                           1         2         3
     Eigenvalues --   555.790631166.931901316.84033
           X            0.99957  -0.02935  -0.00160
           Y            0.02939   0.99904   0.03256
           Z            0.00064  -0.03260   0.99947
 This molecule is an asymmetric top.
 Rotational symmetry number  1.
 Warning -- assumption of classical behavior for rotation
           may cause significant error
 Rotational temperatures (Kelvin)      0.15584     0.07422     0.06577
 Rotational constants (GHZ):           3.24716     1.54657     1.37051
 Zero-point vibrational energy     415240.0 (Joules/Mol)
                                   99.24475 (Kcal/Mol)
 Warning -- explicit consideration of  10 degrees of freedom as
           vibrations may cause significant error
 Vibrational temperatures:    245.17   275.12   284.53   324.35   420.12
          (Kelvin)            491.75   589.38   689.37   734.70   810.71
                              894.48  1005.28  1067.23  1176.52  1211.94
                             1217.19  1267.18  1292.24  1333.39  1414.10
                             1442.31  1480.76  1489.67  1530.97  1590.78
                             1627.39  1696.37  1731.28  1746.35  1779.62
                             1811.67  1841.58  1924.99  2026.32  2036.36
                             2095.30  2126.12  2135.14  2142.72  2148.99
                             2154.32  4363.31  4372.38  4390.31  4449.05
                             4473.69  4487.26  4489.85  4495.50  4503.67
                             4554.86

 Zero-point correction=                           0.158157 (Hartree/Particle)
 Thermal correction to Energy=                    0.166085
 Thermal correction to Enthalpy=                  0.167029
 Thermal correction to Gibbs Free Energy=         0.126330
 Sum of electronic and zero-point Energies=           -422.978666
 Sum of electronic and thermal Energies=              -422.970738
 Sum of electronic and thermal Enthalpies=            -422.969793
 Sum of electronic and thermal Free Energies=         -423.010492

                     E (Thermal)             CV                S
                      KCal/Mol        Cal/Mol-Kelvin    Cal/Mol-Kelvin
 Total                  104.220             31.786             85.658
 Electronic               0.000              0.000              0.000
 Translational            0.889              2.981             40.409
 Rotational               0.889              2.981             28.237
 Vibrational            102.443             25.825             17.013
 Vibration     1          0.626              1.879              2.431
 Vibration     2          0.634              1.852              2.216
 Vibration     3          0.637              1.843              2.154
 Vibration     4          0.650              1.802              1.915
 Vibration     5          0.687              1.689              1.462
 Vibration     6          0.721              1.592              1.204
 Vibration     7          0.774              1.449              0.928
 Vibration     8          0.836              1.296              0.712
 Vibration     9          0.866              1.226              0.632
 Vibration    10          0.919              1.110              0.517

 Normal termination of Gaussian 09 at Mon Jan 27 18:26:06 2020.
