 Gaussian 09, Revision D.01,
 Gaussian 09:  ES64L-G09RevD.01 24-Apr-2013

 -----------------------------
 # b3lyp 6-31G(2df,p) opt Freq
 -----------------------------

 -----
 titel
 -----
 Symbolic Z-matrix:
 Charge =  0 Multiplicity = 1

 SCF Done:  E(RB3LYP) =  -423.169977772     A.U. after   15 cycles
 Optimization completed.
    -- Stationary point found.
 Normal termination of Gaussian 09 at Tue Jan 28 08:20:23 2020.

 ----------------------------------------------------------------------
 #N Geom=AllCheck Guess=TCheck SCRF=Check GenChk RB3LYP/6-31G(2df,p) Fr
 eq
 ----------------------------------------------------------------------

 Structure from the checkpoint file:  "/scratch/puck/g09_ec67e440-61e5-4ed5-bb4c-50c77b3da3af/Gau-60351.chk"
 -----
 titel
 -----
 Charge =  0 Multiplicity = 1

                         Standard orientation:
 ---------------------------------------------------------------------
 Center     Atomic      Atomic             Coordinates (Angstroms)
 Number     Number       Type             X           Y           Z
 ---------------------------------------------------------------------
      1          6           0        2.534784   -1.312880   -0.259399
      2          6           0        1.006288   -1.347128   -0.314866
      3          6           0        0.347580   -0.037903    0.188196
      4          8           0        0.778794    0.244888    1.499115
      5          6           0        0.738939    1.131420   -0.728737
      6          8           0        1.260838    2.128081   -0.298224
      7          6           0       -1.118547   -0.127684    0.092005
      8          6           0       -2.316953   -0.179056   -0.022512
      9          6           0       -3.766310   -0.249072   -0.131425
     10          1           0        2.949781   -2.277990   -0.563200
     11          1           0        2.951918   -0.549154   -0.925307
     12          1           0        2.873091   -1.093867    0.755631
     13          1           0        0.650534   -1.543798   -1.332953
     14          1           0        0.619436   -2.155146    0.313875
     15          1           0        1.075200    1.169439    1.481234
     16          1           0        0.489241    1.005198   -1.800296
     17          1           0       -4.076902   -1.066362   -0.791191
     18          1           0       -4.223625   -0.420114    0.849089
     19          1           0       -4.180417    0.681869   -0.533580
 ---------------------------------------------------------------------

 SCF Done:  E(RB3LYP) =  -423.169977772     A.U. after    1 cycles

 The electronic state is 1-A.
 Alpha  occ. eigenvalues --  -19.16348 -19.13777 -10.28548 -10.26673 -10.21135
 Alpha  occ. eigenvalues --  -10.19412 -10.18838 -10.17757 -10.17711  -1.07547
 Alpha  occ. eigenvalues --   -1.02193  -0.80936  -0.77834  -0.73274  -0.68246
 Alpha  occ. eigenvalues --   -0.62795  -0.58291  -0.52849  -0.51899  -0.47279
 Alpha  occ. eigenvalues --   -0.46238  -0.43941  -0.43696  -0.43366  -0.43042
 Alpha  occ. eigenvalues --   -0.39846  -0.37693  -0.36533  -0.35524  -0.34846
 Alpha  occ. eigenvalues --   -0.29537  -0.28032  -0.26271  -0.25243
 Alpha virt. eigenvalues --   -0.03983   0.03871   0.06171   0.09925   0.10541
 Alpha virt. eigenvalues --    0.12172   0.13984   0.14817   0.15909   0.16311
 Alpha virt. eigenvalues --    0.17649   0.17763   0.18778   0.20317   0.21909

 Mulliken charges:
               1
     1  C   -0.404881
     2  C   -0.195560
     3  C    0.067915
     4  O   -0.447680
     5  C    0.133255
     6  O   -0.268473
     7  C    0.066368
     8  C    0.083427
     9  C   -0.501453
    10  H    0.115558
    11  H    0.117889
    12  H    0.142098
    13  H    0.104671
    14  H    0.123746
    15  H    0.293223
    16  H    0.106529
    17  H    0.152013
    18  H    0.158064
    19  H    0.153292
 Sum of Mulliken charges =   0.00000

 Dipole moment (field-independent basis, Debye):
    X=             -1.6239    Y=             -1.2473    Z=             -1.7153  Tot=              2.6712
 Quadrupole moment (field-independent basis, Debye-Ang):
   XX=            -45.6608   YY=            -56.1552   ZZ=            -53.9397
   XY=             -2.0707   XZ=             -0.0460   YZ=              1.2953

  Exact polarizability: 111.260   3.610  71.202   2.417   1.109  64.213
 Approx polarizability: 152.796  12.115 105.797   7.797   3.368  97.832

                      1                      2                      3
                      A                      A                      A
 Frequencies --     13.6135                68.9485                89.0152
 Red. masses --      1.0203                 4.8477                 2.6312
 Frc consts  --      0.0001                 0.0136                 0.0123
 IR Inten    --      0.0295                 0.0798                 0.9533

                      4                      5                      6
                      A                      A                      A
 Frequencies --    106.0826               134.2485               219.6590
 Red. masses --      4.0023                 2.1957                 1.2834
 Frc consts  --      0.0265                 0.0233                 0.0365
 IR Inten    --      0.9040                 2.0033                 2.4863

                      7                      8                      9
                      A                      A                      A
 Frequencies --    249.4430               296.2785               307.1587
 Red. masses --      3.2633                 2.6068                 3.9899
 Frc consts  --      0.1196                 0.1348                 0.2218
 IR Inten    --      2.8419                 1.8149                10.0672

                     10                     11                     12
                      A                      A                      A
 Frequencies --    319.5203               355.8807               391.4841
 Red. masses --      4.0983                 2.8966                 3.1712
 Frc consts  --      0.2465                 0.2161                 0.2864
 IR Inten    --     14.3083                11.5188                12.2583

                     13                     14                     15
                      A                      A                      A
 Frequencies --    455.2142               494.5901               544.5872
 Red. masses --      1.4283                 4.7206                 6.5415
 Frc consts  --      0.1744                 0.6804                 1.1430
 IR Inten    --     45.7449                 8.0797                 5.0067

                     16                     17                     18
                      A                      A                      A
 Frequencies --    591.2224               775.3049               805.5160
 Red. masses --      3.0052                 1.2787                 4.6138
 Frc consts  --      0.6189                 0.4529                 1.7638
 IR Inten    --      3.2986                11.6152                25.5167

                     19                     20                     21
                      A                      A                      A
 Frequencies --    875.6423               924.9921               991.3985
 Red. masses --      3.7616                 1.9091                 1.8951
 Frc consts  --      1.6993                 0.9624                 1.0974
 IR Inten    --     13.3941                14.2584                12.4551

                     22                     23                     24
                      A                      A                      A
 Frequencies --   1037.1428              1050.0676              1054.2043
 Red. masses --      2.0556                 1.4119                 1.4124
 Frc consts  --      1.3028                 0.9172                 0.9248
 IR Inten    --      7.7305                 1.7997                 1.8951

                     25                     26                     27
                      A                      A                      A
 Frequencies --   1077.1722              1118.2898              1177.8727
 Red. masses --      2.7631                 2.2617                 3.4485
 Frc consts  --      1.8889                 1.6665                 2.8189
 IR Inten    --     16.5191                35.5871                11.8462

                     28                     29                     30
                      A                      A                      A
 Frequencies --   1208.7464              1303.1716              1351.7040
 Red. masses --      3.5503                 1.2832                 1.4383
 Frc consts  --      3.0562                 1.2840                 1.5483
 IR Inten    --     51.8821                 3.7626                 1.1617

                     31                     32                     33
                      A                      A                      A
 Frequencies --   1380.0015              1408.2451              1413.0126
 Red. masses --      1.1951                 1.2355                 1.2409
 Frc consts  --      1.3409                 1.4436                 1.4598
 IR Inten    --     53.1145                 4.6626                 7.4217

                     34                     35                     36
                      A                      A                      A
 Frequencies --   1425.5767              1475.6608              1476.7335
 Red. masses --      1.3461                 1.0393                 1.0402
 Frc consts  --      1.6118                 1.3334                 1.3365
 IR Inten    --     48.5002                 6.5033                 6.7865

                     37                     38                     39
                      A                      A                      A
 Frequencies --   1479.5438              1495.5257              1508.7524
 Red. masses --      1.0814                 1.0439                 1.0518
 Frc consts  --      1.3948                 1.3756                 1.4106
 IR Inten    --      1.7499                 5.2619                 3.8824

                     40                     41                     42
                      A                      A                      A
 Frequencies --   1817.5604              2358.4039              2948.5145
 Red. masses --     10.4422                11.8952                 1.0874
 Frc consts  --     20.3244                38.9814                 5.5697
 IR Inten    --    159.2455                23.7474                55.5671

                     43                     44                     45
                      A                      A                      A
 Frequencies --   3030.2346              3039.9426              3043.5473
 Red. masses --      1.0347                 1.0393                 1.0616
 Frc consts  --      5.5976                 5.6588                 5.7937
 IR Inten    --     26.3710                21.8875                17.5538

                     46                     47                     48
                      A                      A                      A
 Frequencies --   3084.7755              3092.4743              3094.0632
 Red. masses --      1.0993                 1.1004                 1.1001
 Frc consts  --      6.1634                 6.2001                 6.2052
 IR Inten    --      6.4950                 8.0436                 7.1105

                     49                     50                     51
                      A                      A                      A
 Frequencies --   3106.8956              3134.4889              3681.7252
 Red. masses --      1.0997                 1.1007                 1.0648
 Frc consts  --      6.2543                 6.3719                 8.5039
 IR Inten    --     33.9043                14.6632                75.5670

 - Thermochemistry -
 -------------------
 Temperature   298.150 Kelvin.  Pressure   1.00000 Atm.
 Atom     1 has atomic number  6 and mass  12.00000

 Molecular mass:   126.06808 amu.
 Principal axes and moments of inertia in atomic units:
                           1         2         3
     Eigenvalues --   740.013921856.368372188.34862
           X            0.99961  -0.02773  -0.00129
           Y            0.02776   0.99925   0.02690
           Z            0.00054  -0.02693   0.99964
 This molecule is an asymmetric top.
 Rotational symmetry number  1.
 Warning -- assumption of classical behavior for rotation
           may cause significant error
 Rotational temperatures (Kelvin)      0.11704     0.04666     0.03958
 Rotational constants (GHZ):           2.43879     0.97219     0.82470
 Zero-point vibrational energy     406035.6 (Joules/Mol)
                                   97.04483 (Kcal/Mol)
 Warning -- explicit consideration of  16 degrees of freedom as
           vibrations may cause significant error
 Vibrational temperatures:     19.59    99.20   128.07   152.63   193.15
          (Kelvin)            316.04   358.89   426.28   441.93   459.72
                              512.03   563.26   654.95   711.60   783.54
                              850.64  1115.49  1158.96  1259.85  1330.86
                             1426.40  1492.22  1510.81  1516.76  1549.81
                             1608.97  1694.69  1739.11  1874.97  1944.80
                             1985.51  2026.15  2033.01  2051.08  2123.14
                             2124.69  2128.73  2151.73  2170.76  2615.06
                             3393.21  4242.25  4359.83  4373.79  4378.98
                             4438.30  4449.38  4451.66  4470.12  4509.82
                             5297.17

 Zero-point correction=                           0.154651 (Hartree/Particle)
 Thermal correction to Energy=                    0.165674
 Thermal correction to Enthalpy=                  0.166618
 Thermal correction to Gibbs Free Energy=         0.116610
 Sum of electronic and zero-point Energies=           -423.015327
 Sum of electronic and thermal Energies=              -423.004304
 Sum of electronic and thermal Enthalpies=            -423.003360
 Sum of electronic and thermal Free Energies=         -423.053368

                     E (Thermal)             CV                S
                      KCal/Mol        Cal/Mol-Kelvin    Cal/Mol-Kelvin
 Total                  103.962             37.951            105.250
 Electronic               0.000              0.000              0.000
 Translational            0.889              2.981             40.409
 Rotational               0.889              2.981             29.487
 Vibrational            102.184             31.989             35.354
 Vibration     1          0.593              1.986              7.398
 Vibration     2          0.598              1.969              4.183
 Vibration     3          0.602              1.957              3.682
 Vibration     4          0.605              1.944              3.339
 Vibration     5          0.613              1.919              2.884
 Vibration     6          0.647              1.811              1.962
 Vibration     7          0.662              1.764              1.735
 Vibration     8          0.690              1.681              1.438
 Vibration     9          0.697              1.660              1.378
 Vibration    10          0.705              1.636              1.313
 Vibration    11          0.731              1.563              1.140
 Vibration    12          0.759              1.488              0.994
 Vibration    13          0.814              1.349              0.780
 Vibration    14          0.850              1.262              0.672
 Vibration    15          0.900              1.152              0.556
 Vibration    16          0.949              1.050              0.465

 Optimization completed on the basis of negligible forces.
    -- Stationary point found.
 Normal termination of Gaussian 09 at Tue Jan 28 10:00:52 2020.
