 Gaussian 09, Revision D.01,
 Gaussian 09:  ES64L-G09RevD.01 24-Apr-2013

 -----------------------------
 # b3lyp 6-31G(2df,p) opt Freq
 -----------------------------

 -----
 titel
 -----
 Symbolic Z-matrix:
 Charge =  0 Multiplicity = 1

 SCF Done:  E(RB3LYP) =  -423.156198148     A.U. after   13 cycles
 Optimization completed.
    -- Stationary point found.
 Normal termination of Gaussian 09 at Tue Jan 28 03:48:02 2020.

 ----------------------------------------------------------------------
 #N Geom=AllCheck Guess=TCheck SCRF=Check GenChk RB3LYP/6-31G(2df,p) Fr
 eq
 ----------------------------------------------------------------------

 Structure from the checkpoint file:  "/scratch/puck/g09_d4c36d95-2d0d-43a8-be9e-6d2cade7b7b0/Gau-175150.chk"
 -----
 titel
 -----
 Charge =  0 Multiplicity = 1

                         Standard orientation:
 ---------------------------------------------------------------------
 Center     Atomic      Atomic             Coordinates (Angstroms)
 Number     Number       Type             X           Y           Z
 ---------------------------------------------------------------------
      1          8           0        2.616216   -0.969605    0.046460
      2          6           0        1.477450   -0.262904   -0.391206
      3          6           0        1.379689    1.248551   -0.018795
      4          6           0       -0.009590    0.982772    0.610349
      5          8           0       -1.094670    1.307206   -0.262129
      6          6           0       -1.757365    0.126343   -0.644961
      7          6           0       -2.328168   -0.760108    0.432103
      8          6           0       -0.991463   -1.091542   -0.213029
      9          6           0        0.231652   -0.553098    0.489508
     10          1           0        3.362404   -0.709902   -0.503505
     11          1           0        1.277565   -0.448304   -1.455950
     12          1           0        2.129236    1.507699    0.734305
     13          1           0        1.396890    1.978648   -0.830336
     14          1           0       -0.195322    1.410132    1.599468
     15          1           0       -2.249350    0.226857   -1.605285
     16          1           0       -2.335986   -0.389737    1.452325
     17          1           0       -3.175231   -1.386741    0.173429
     18          1           0       -0.900180   -1.970700   -0.841345
     19          1           0        0.504375   -1.058853    1.418430
 ---------------------------------------------------------------------

 SCF Done:  E(RB3LYP) =  -423.156198148     A.U. after    1 cycles

 The electronic state is 1-A.
 Alpha  occ. eigenvalues --  -19.13781 -19.13724 -10.23116 -10.23081 -10.22801
 Alpha  occ. eigenvalues --  -10.18876 -10.18613 -10.18224 -10.17561  -1.03892
 Alpha  occ. eigenvalues --   -1.01973  -0.84656  -0.82381  -0.67766  -0.65743
 Alpha  occ. eigenvalues --   -0.59696  -0.57541  -0.54245  -0.52431  -0.50613
 Alpha  occ. eigenvalues --   -0.47610  -0.44777  -0.43417  -0.40354  -0.39060
 Alpha  occ. eigenvalues --   -0.38251  -0.37403  -0.34730  -0.33557  -0.31667
 Alpha  occ. eigenvalues --   -0.30073  -0.27296  -0.25820  -0.22493
 Alpha virt. eigenvalues --    0.07022   0.09840   0.09973   0.11580   0.12318
 Alpha virt. eigenvalues --    0.13403   0.15303   0.15793   0.16685   0.17247
 Alpha virt. eigenvalues --    0.18111   0.19039   0.19545   0.22123   0.22864

 Mulliken charges:
               1
     1  O   -0.434899
     2  C    0.119342
     3  C   -0.288496
     4  C    0.095405
     5  O   -0.277856
     6  C    0.116980
     7  C   -0.335384
     8  C   -0.089364
     9  C   -0.049113
    10  H    0.283200
    11  H    0.066947
    12  H    0.103729
    13  H    0.105359
    14  H    0.078285
    15  H    0.098562
    16  H    0.116631
    17  H    0.112504
    18  H    0.092676
    19  H    0.085492
 Sum of Mulliken charges =   0.00000

 Dipole moment (field-independent basis, Debye):
    X=              0.6735    Y=             -0.4045    Z=             -0.7614  Tot=              1.0941
 Quadrupole moment (field-independent basis, Debye-Ang):
   XX=            -49.1493   YY=            -56.8282   ZZ=            -50.5137
   XY=              4.9754   XZ=             -2.5929   YZ=              2.2263

  Exact polarizability:  87.842   4.794  69.225  -0.508   0.750  65.829
 Approx polarizability: 113.962   1.486 104.627   0.460  -1.424 101.790

                      1                      2                      3
                      A                      A                      A
 Frequencies --     68.5143               167.6056               236.5870
 Red. masses --      3.5415                 2.8361                 2.5033
 Frc consts  --      0.0098                 0.0469                 0.0826
 IR Inten    --      1.6476                 2.6665                14.7108

                      4                      5                      6
                      A                      A                      A
 Frequencies --    286.0232               345.4503               383.2564
 Red. masses --      1.3655                 3.8742                 3.1871
 Frc consts  --      0.0658                 0.2724                 0.2758
 IR Inten    --     89.2707                 4.4257                 5.5430

                      7                      8                      9
                      A                      A                      A
 Frequencies --    418.1574               464.7013               627.1121
 Red. masses --      2.7640                 2.2326                 3.3239
 Frc consts  --      0.2848                 0.2841                 0.7702
 IR Inten    --      1.4973                 7.3106                 2.4265

                     10                     11                     12
                      A                      A                      A
 Frequencies --    697.2955               767.7232               772.8947
 Red. masses --      3.2550                 2.2292                 3.1842
 Frc consts  --      0.9325                 0.7741                 1.1207
 IR Inten    --      0.8999                13.6071                 0.6006

                     13                     14                     15
                      A                      A                      A
 Frequencies --    810.7569               835.8933               869.6088
 Red. masses --      1.6491                 2.3997                 2.6156
 Frc consts  --      0.6387                 0.9879                 1.1654
 IR Inten    --     21.4897                 5.4986                 5.1737

                     16                     17                     18
                      A                      A                      A
 Frequencies --    897.3270               924.7053               968.4012
 Red. masses --      1.8617                 2.3001                 2.4974
 Frc consts  --      0.8832                 1.1588                 1.3799
 IR Inten    --      3.2112                 1.2344                53.3484

                     19                     20                     21
                      A                      A                      A
 Frequencies --    984.8094              1000.1378              1028.7088
 Red. masses --      2.3408                 2.5492                 1.7556
 Frc consts  --      1.3376                 1.5024                 1.0946
 IR Inten    --     10.8981                 8.4436                 6.6565

                     22                     23                     24
                      A                      A                      A
 Frequencies --   1056.8258              1060.1332              1085.8573
 Red. masses --      1.6941                 1.5045                 1.8039
 Frc consts  --      1.1148                 0.9962                 1.2532
 IR Inten    --     15.0971                10.4851                10.4162

                     25                     26                     27
                      A                      A                      A
 Frequencies --   1102.9493              1129.9411              1153.1769
 Red. masses --      1.4994                 2.7732                 2.5406
 Frc consts  --      1.0747                 2.0861                 1.9906
 IR Inten    --     15.5179                55.5095                76.6473

                     28                     29                     30
                      A                      A                      A
 Frequencies --   1169.3681              1191.4179              1206.6794
 Red. masses --      1.6712                 1.6630                 1.6680
 Frc consts  --      1.3465                 1.3908                 1.4309
 IR Inten    --     12.1273                 1.5323                23.0971

                     31                     32                     33
                      A                      A                      A
 Frequencies --   1211.1315              1256.8794              1267.9776
 Red. masses --      1.1833                 1.6113                 1.4079
 Frc consts  --      1.0226                 1.4998                 1.3337
 IR Inten    --      7.6885                28.1602                 1.8220

                     34                     35                     36
                      A                      A                      A
 Frequencies --   1288.0140              1317.4783              1332.5523
 Red. masses --      1.4487                 1.3579                 1.4727
 Frc consts  --      1.4160                 1.3887                 1.5407
 IR Inten    --     13.3744                18.1672                27.8573

                     37                     38                     39
                      A                      A                      A
 Frequencies --   1360.5501              1390.7049              1422.1773
 Red. masses --      1.8340                 1.5263                 1.4306
 Frc consts  --      2.0003                 1.7392                 1.7048
 IR Inten    --     10.8610                 8.9961                 6.7406

                     40                     41                     42
                      A                      A                      A
 Frequencies --   1460.5384              1477.0938              2996.4442
 Red. masses --      1.1562                 1.2744                 1.0852
 Frc consts  --      1.4531                 1.6382                 5.7407
 IR Inten    --      2.2443                 8.5887                45.6132

                     43                     44                     45
                      A                      A                      A
 Frequencies --   3055.7017              3065.4881              3091.9962
 Red. masses --      1.0746                 1.0715                 1.0867
 Frc consts  --      5.9120                 5.9325                 6.1213
 IR Inten    --     25.4178                39.3089                21.6861

                     46                     47                     48
                      A                      A                      A
 Frequencies --   3126.8194              3127.7972              3167.8133
 Red. masses --      1.0540                 1.1079                 1.0897
 Frc consts  --      6.0716                 6.3857                 6.4427
 IR Inten    --     11.9255                18.4127                10.0791

                     49                     50                     51
                      A                      A                      A
 Frequencies --   3182.8478              3215.5929              3813.1500
 Red. masses --      1.0946                 1.1157                 1.0661
 Frc consts  --      6.5335                 6.7972                 9.1327
 IR Inten    --     16.9137                12.7177                21.7472

 - Thermochemistry -
 -------------------
 Temperature   298.150 Kelvin.  Pressure   1.00000 Atm.
 Atom     1 has atomic number  8 and mass  15.99491

 Molecular mass:   126.06808 amu.
 Principal axes and moments of inertia in atomic units:
                           1         2         3
     Eigenvalues --   521.937851306.246751601.42429
           X            0.99918   0.03982  -0.00705
           Y           -0.03967   0.99902   0.01973
           Z            0.00783  -0.01944   0.99978
 This molecule is an asymmetric top.
 Rotational symmetry number  1.
 Warning -- assumption of classical behavior for rotation
           may cause significant error
 Rotational temperatures (Kelvin)      0.16595     0.06631     0.05409
 Rotational constants (GHZ):           3.45777     1.38162     1.12696
 Zero-point vibrational energy     420731.2 (Joules/Mol)
                                  100.55717 (Kcal/Mol)
 Warning -- explicit consideration of   8 degrees of freedom as
           vibrations may cause significant error
 Vibrational temperatures:     98.58   241.15   340.40   411.52   497.03
          (Kelvin)            551.42   601.63   668.60   902.27  1003.25
                             1104.58  1112.02  1166.50  1202.66  1251.17
                             1291.05  1330.44  1393.31  1416.92  1438.97
                             1480.08  1520.53  1525.29  1562.30  1586.90
                             1625.73  1659.16  1682.46  1714.18  1736.14
                             1742.55  1808.37  1824.33  1853.16  1895.56
                             1917.24  1957.53  2000.91  2046.19  2101.39
                             2125.21  4311.21  4396.47  4410.55  4448.69
                             4498.79  4500.20  4557.77  4579.40  4626.52
                             5486.27

 Zero-point correction=                           0.160248 (Hartree/Particle)
 Thermal correction to Energy=                    0.167876
 Thermal correction to Enthalpy=                  0.168820
 Thermal correction to Gibbs Free Energy=         0.128017
 Sum of electronic and zero-point Energies=           -422.995950
 Sum of electronic and thermal Energies=              -422.988322
 Sum of electronic and thermal Enthalpies=            -422.987378
 Sum of electronic and thermal Free Energies=         -423.028181

                     E (Thermal)             CV                S
                      KCal/Mol        Cal/Mol-Kelvin    Cal/Mol-Kelvin
 Total                  105.344             30.420             85.879
 Electronic               0.000              0.000              0.000
 Translational            0.889              2.981             40.409
 Rotational               0.889              2.981             28.481
 Vibrational            103.566             24.458             16.989
 Vibration     1          0.598              1.969              4.196
 Vibration     2          0.624              1.882              2.462
 Vibration     3          0.655              1.785              1.828
 Vibration     4          0.684              1.700              1.497
 Vibration     5          0.724              1.585              1.187
 Vibration     6          0.752              1.506              1.026
 Vibration     7          0.781              1.431              0.898
 Vibration     8          0.822              1.328              0.753

 Normal termination of Gaussian 09 at Tue Jan 28 04:23:28 2020.
