 Gaussian 09, Revision D.01,
 Gaussian 09:  ES64L-G09RevD.01 24-Apr-2013

 -----------------------------
 # b3lyp 6-31G(2df,p) opt Freq
 -----------------------------

 -----
 titel
 -----
 Symbolic Z-matrix:
 Charge =  0 Multiplicity = 1

 SCF Done:  E(RB3LYP) =  -423.155248036     A.U. after   14 cycles
 Optimization completed.
    -- Stationary point found.
 Normal termination of Gaussian 09 at Tue Jan 28 08:12:17 2020.

 ----------------------------------------------------------------------
 #N Geom=AllCheck Guess=TCheck SCRF=Check GenChk RB3LYP/6-31G(2df,p) Fr
 eq
 ----------------------------------------------------------------------

 Structure from the checkpoint file:  "/scratch/puck/g09_360d218c-35ef-4f73-ac62-f92be32265d9/Gau-102148.chk"
 -----
 titel
 -----
 Charge =  0 Multiplicity = 1

                         Standard orientation:
 ---------------------------------------------------------------------
 Center     Atomic      Atomic             Coordinates (Angstroms)
 Number     Number       Type             X           Y           Z
 ---------------------------------------------------------------------
      1          6           0       -3.560266    0.884722    0.092378
      2          6           0       -2.949460   -0.517363    0.271799
      3          6           0       -1.533290   -0.572989   -0.073658
      4          6           0       -0.365376   -0.601039   -0.368426
      5          6           0        1.062624   -0.645605   -0.731205
      6          8           0        1.557652    0.626868   -1.093576
      7          6           0        1.935475    1.261164    0.125388
      8          6           0        2.148864    0.086306    1.116517
      9          8           0        1.870198   -1.078324    0.344018
     10          1           0       -3.469659    1.218032   -0.944755
     11          1           0       -4.620557    0.874174    0.361287
     12          1           0       -3.050764    1.614929    0.726858
     13          1           0       -3.081761   -0.846872    1.310273
     14          1           0       -3.498861   -1.239600   -0.345401
     15          1           0        1.231004   -1.324505   -1.572691
     16          1           0        2.843623    1.838242   -0.065719
     17          1           0        1.147336    1.939759    0.474044
     18          1           0        3.175985    0.007273    1.481248
     19          1           0        1.469422    0.159035    1.974559
 ---------------------------------------------------------------------

 SCF Done:  E(RB3LYP) =  -423.155248036     A.U. after    1 cycles

 The electronic state is 1-A.
 Alpha  occ. eigenvalues --  -19.14816 -19.14808 -10.29535 -10.23409 -10.23389
 Alpha  occ. eigenvalues --  -10.21085 -10.18547 -10.18022 -10.16806  -1.09075
 Alpha  occ. eigenvalues --   -0.99423  -0.80036  -0.77549  -0.72490  -0.65776
 Alpha  occ. eigenvalues --   -0.62977  -0.62547  -0.53221  -0.51407  -0.47988
 Alpha  occ. eigenvalues --   -0.46448  -0.46259  -0.45826  -0.41133  -0.40614
 Alpha  occ. eigenvalues --   -0.39894  -0.37386  -0.36512  -0.33991  -0.33845
 Alpha  occ. eigenvalues --   -0.28351  -0.27275  -0.25945  -0.24780
 Alpha virt. eigenvalues --    0.03902   0.04366   0.09457   0.10843   0.11823
 Alpha virt. eigenvalues --    0.12624   0.14532   0.14951   0.15681   0.15851
 Alpha virt. eigenvalues --    0.16439   0.17374   0.20021   0.21231   0.22147

 Mulliken charges:
               1
     1  C   -0.364840
     2  C   -0.319181
     3  C    0.087712
     4  C    0.087130
     5  C   -0.039111
     6  O   -0.228546
     7  C   -0.103765
     8  C   -0.104092
     9  O   -0.228713
    10  H    0.132512
    11  H    0.116504
    12  H    0.127420
    13  H    0.132495
    14  H    0.133660
    15  H    0.117217
    16  H    0.118193
    17  H    0.108358
    18  H    0.118250
    19  H    0.108796
 Sum of Mulliken charges =   0.00000

 Dipole moment (field-independent basis, Debye):
    X=             -1.1121    Y=              0.9956    Z=              1.2726  Tot=              1.9615
 Quadrupole moment (field-independent basis, Debye-Ang):
   XX=            -46.1008   YY=            -54.0038   ZZ=            -52.9620
   XY=              3.2668   XZ=              1.5385   YZ=              3.2789

  Exact polarizability: 108.126   2.073  66.331  -2.242   2.937  64.680
 Approx polarizability: 146.251   1.520  94.559  -9.522   3.650  97.156

                      1                      2                      3
                      A                      A                      A
 Frequencies --     21.8779                45.9540                72.9841
 Red. masses --      2.3551                 1.8664                 3.0916
 Frc consts  --      0.0007                 0.0023                 0.0097
 IR Inten    --      0.2647                 1.2530                 1.0094

                      4                      5                      6
                      A                      A                      A
 Frequencies --     96.0247               174.2202               210.7451
 Red. masses --      3.9062                 2.6058                 2.2091
 Frc consts  --      0.0212                 0.0466                 0.0578
 IR Inten    --      0.7111                 4.2677                 0.2944

                      7                      8                      9
                      A                      A                      A
 Frequencies --    260.3057               363.8771               422.3721
 Red. masses --      2.0349                 3.4470                 5.5808
 Frc consts  --      0.0812                 0.2689                 0.5866
 IR Inten    --      3.8675                 5.4548                 4.1859

                     10                     11                     12
                      A                      A                      A
 Frequencies --    523.8145               577.7935               735.8869
 Red. masses --      5.7856                 6.8843                 6.3948
 Frc consts  --      0.9353                 1.3541                 2.0403
 IR Inten    --      3.1858                 0.6852                 5.2483

                     13                     14                     15
                      A                      A                      A
 Frequencies --    745.0247               785.8209               822.7870
 Red. masses --      5.4754                 1.1775                 1.5841
 Frc consts  --      1.7907                 0.4284                 0.6318
 IR Inten    --     12.3914                 1.7688                 9.0662

                     16                     17                     18
                      A                      A                      A
 Frequencies --    865.2949               933.6538               946.1588
 Red. masses --      2.3243                 3.5826                 2.8638
 Frc consts  --      1.0253                 1.8400                 1.5105
 IR Inten    --     21.4932                86.4255                 2.8882

                     19                     20                     21
                      A                      A                      A
 Frequencies --    963.5196               990.4199              1056.2746
 Red. masses --      3.2452                 4.2985                 6.9576
 Frc consts  --      1.7750                 2.4843                 4.5737
 IR Inten    --     23.2925                19.9038                27.5737

                     22                     23                     24
                      A                      A                      A
 Frequencies --   1078.6720              1103.9283              1112.4076
 Red. masses --      2.0293                 1.5898                 4.4567
 Frc consts  --      1.3912                 1.1415                 3.2493
 IR Inten    --      5.8162                12.9083               157.1218

                     25                     26                     27
                      A                      A                      A
 Frequencies --   1153.7122              1162.5924              1236.6295
 Red. masses --      3.6183                 1.7290                 1.1581
 Frc consts  --      2.8376                 1.3769                 1.0435
 IR Inten    --    133.8816                 2.0492                 0.7658

                     28                     29                     30
                      A                      A                      A
 Frequencies --   1237.4242              1285.2198              1306.5729
 Red. masses --      1.0780                 1.1495                 1.1920
 Frc consts  --      0.9725                 1.1187                 1.1989
 IR Inten    --      0.9997                 0.0809                 0.5698

                     31                     32                     33
                      A                      A                      A
 Frequencies --   1347.4569              1362.8322              1373.1161
 Red. masses --      1.5163                 1.2427                 1.2841
 Frc consts  --      1.6220                 1.3598                 1.4264
 IR Inten    --     49.4775                19.5170                26.6270

                     34                     35                     36
                      A                      A                      A
 Frequencies --   1382.9336              1408.6734              1474.4805
 Red. masses --      1.3586                 1.2104                 1.0727
 Frc consts  --      1.5309                 1.4152                 1.3740
 IR Inten    --      4.9351                 0.8694                 2.5862

                     37                     38                     39
                      A                      A                      A
 Frequencies --   1494.5783              1505.3957              1515.3662
 Red. masses --      1.0396                 1.0568                 1.0894
 Frc consts  --      1.3682                 1.4111                 1.4739
 IR Inten    --      4.9010                 1.3453                 0.5955

                     40                     41                     42
                      A                      A                      A
 Frequencies --   1528.2826              2359.1571              3022.0500
 Red. masses --      1.0902                11.8974                 1.0666
 Frc consts  --      1.5003                39.0137                 5.7394
 IR Inten    --      0.2556                33.9030                21.3394

                     43                     44                     45
                      A                      A                      A
 Frequencies --   3022.5376              3034.0757              3045.8327
 Red. masses --      1.0590                 1.0634                 1.0344
 Frc consts  --      5.7004                 5.7674                 5.6539
 IR Inten    --     28.1328                66.5782                28.0265

                     46                     47                     48
                      A                      A                      A
 Frequencies --   3050.3952              3072.1171              3086.0262
 Red. masses --      1.1010                 1.0866                 1.0982
 Frc consts  --      6.0359                 6.0420                 6.1624
 IR Inten    --      8.4593                20.5830                 5.3572

                     49                     50                     51
                      A                      A                      A
 Frequencies --   3105.5791              3119.6216              3125.7705
 Red. masses --      1.1033                 1.1022                 1.1029
 Frc consts  --      6.2697                 6.3201                 6.3491
 IR Inten    --     60.4301                28.4897                22.9753

 - Thermochemistry -
 -------------------
 Temperature   298.150 Kelvin.  Pressure   1.00000 Atm.
 Atom     1 has atomic number  6 and mass  12.00000

 Molecular mass:   126.06808 amu.
 Principal axes and moments of inertia in atomic units:
                           1         2         3
     Eigenvalues --   512.100342285.260352389.22752
           X            0.99999  -0.00134   0.00437
           Y            0.00089   0.99481   0.10174
           Z           -0.00449  -0.10173   0.99480
 This molecule is an asymmetric top.
 Rotational symmetry number  1.
 Warning -- assumption of classical behavior for rotation
           may cause significant error
 Rotational temperatures (Kelvin)      0.16913     0.03790     0.03625
 Rotational constants (GHZ):           3.52419     0.78973     0.75537
 Zero-point vibrational energy     417067.5 (Joules/Mol)
                                   99.68153 (Kcal/Mol)
 Warning -- explicit consideration of  11 degrees of freedom as
           vibrations may cause significant error
 Vibrational temperatures:     31.48    66.12   105.01   138.16   250.66
          (Kelvin)            303.21   374.52   523.54   607.70   753.65
                              831.31  1058.78  1071.92  1130.62  1183.81
                             1244.96  1343.32  1361.31  1386.29  1424.99
                             1519.74  1551.97  1588.30  1600.50  1659.93
                             1672.71  1779.23  1780.38  1849.14  1879.86
                             1938.69  1960.81  1975.61  1989.73  2026.76
                             2121.45  2150.36  2165.93  2180.27  2198.86
                             3394.30  4348.05  4348.75  4365.35  4382.27
                             4388.83  4420.09  4440.10  4468.23  4488.43
                             4497.28

 Zero-point correction=                           0.158853 (Hartree/Particle)
 Thermal correction to Energy=                    0.168433
 Thermal correction to Enthalpy=                  0.169377
 Thermal correction to Gibbs Free Energy=         0.121760
 Sum of electronic and zero-point Energies=           -422.996395
 Sum of electronic and thermal Energies=              -422.986815
 Sum of electronic and thermal Enthalpies=            -422.985871
 Sum of electronic and thermal Free Energies=         -423.033488

                     E (Thermal)             CV                S
                      KCal/Mol        Cal/Mol-Kelvin    Cal/Mol-Kelvin
 Total                  105.693             32.830            100.218
 Electronic               0.000              0.000              0.000
 Translational            0.889              2.981             40.409
 Rotational               0.889              2.981             29.415
 Vibrational            103.916             26.868             30.394
 Vibration     1          0.593              1.985              6.456
 Vibration     2          0.595              1.979              4.984
 Vibration     3          0.599              1.967              4.071
 Vibration     4          0.603              1.952              3.533
 Vibration     5          0.627              1.874              2.389
 Vibration     6          0.643              1.824              2.037
 Vibration     7          0.668              1.745              1.660
 Vibration     8          0.737              1.547              1.105
 Vibration     9          0.785              1.422              0.884
 Vibration    10          0.879              1.197              0.601
 Vibration    11          0.934              1.079              0.489

 Normal termination of Gaussian 09 at Tue Jan 28 08:47:33 2020.
