 Gaussian 09, Revision D.01,
 Gaussian 09:  ES64L-G09RevD.01 24-Apr-2013

 -----------------------------
 # b3lyp 6-31G(2df,p) opt Freq
 -----------------------------

 -----
 titel
 -----
 Symbolic Z-matrix:
 Charge =  0 Multiplicity = 1

 SCF Done:  E(RB3LYP) =  -423.093861304     A.U. after   13 cycles
 SCF Done:  E(RB3LYP) =  -423.093861641     A.U. after    6 cycles
 SCF Done:  E(RB3LYP) =  -423.093862266     A.U. after    7 cycles
 SCF Done:  E(RB3LYP) =  -423.093862687     A.U. after    7 cycles
 SCF Done:  E(RB3LYP) =  -423.093863346     A.U. after    8 cycles
 SCF Done:  E(RB3LYP) =  -423.093864208     A.U. after    8 cycles
 SCF Done:  E(RB3LYP) =  -423.093863276     A.U. after    7 cycles
 SCF Done:  E(RB3LYP) =  -423.093860391     A.U. after   11 cycles
 SCF Done:  E(RB3LYP) =  -423.093964042     A.U. after   12 cycles
 SCF Done:  E(RB3LYP) =  -423.094490691     A.U. after   12 cycles
 SCF Done:  E(RB3LYP) =  -423.095816328     A.U. after   13 cycles
 SCF Done:  E(RB3LYP) =  -423.087467190     A.U. after   15 cycles
 SCF Done:  E(RB3LYP) =  -423.096047987     A.U. after   12 cycles
 SCF Done:  E(RB3LYP) =  -423.096259228     A.U. after   11 cycles
 SCF Done:  E(RB3LYP) =  -423.096317904     A.U. after   11 cycles
 SCF Done:  E(RB3LYP) =  -423.096330763     A.U. after    9 cycles
 SCF Done:  E(RB3LYP) =  -423.096333258     A.U. after    7 cycles
 SCF Done:  E(RB3LYP) =  -423.096333405     A.U. after    6 cycles
 Optimization completed.
    -- Stationary point found.
 Normal termination of Gaussian 09 at Tue Jan 28 02:54:50 2020.

 ----------------------------------------------------------------------
 #N Geom=AllCheck Guess=TCheck SCRF=Check GenChk RB3LYP/6-31G(2df,p) Fr
 eq
 ----------------------------------------------------------------------

 Structure from the checkpoint file:  "/scratch/puck/g09_a09ec723-0aff-4d5f-9cea-5a430bb5b909/Gau-28514.chk"
 -----
 titel
 -----
 Charge =  0 Multiplicity = 1

                         Standard orientation:
 ---------------------------------------------------------------------
 Center     Atomic      Atomic             Coordinates (Angstroms)
 Number     Number       Type             X           Y           Z
 ---------------------------------------------------------------------
      1          6           0       -2.129858   -1.431044    0.007168
      2          6           0       -0.656859   -1.047348    0.002605
      3          6           0       -0.040484    0.041065    0.962593
      4          6           0       -0.566887    1.161336   -0.006439
      5          8           0       -1.930883    1.481487   -0.093420
      6          6           0       -0.043816    0.047945   -0.954979
      7          6           0        1.157561    0.012978    0.003702
      8          6           0        2.517685    0.527585    0.001057
      9          8           0        2.224699   -0.895064   -0.001633
     10          1           0       -2.795489   -0.571404    0.007090
     11          1           0       -2.353821   -2.044472   -0.873314
     12          1           0       -2.346977   -2.046296    0.888405
     13          1           0       -0.053191   -1.960545   -0.002043
     14          1           0       -0.022296    0.047155    2.053273
     15          1           0        0.040946    2.077159   -0.002777
     16          1           0       -2.144485    2.067901    0.639035
     17          1           0       -0.030790    0.060776   -2.044799
     18          1           0        2.962700    0.904179   -0.918694
     19          1           0        2.968828    0.899064    0.920007
 ---------------------------------------------------------------------

 SCF Done:  E(RB3LYP) =  -423.096333405     A.U. after    1 cycles

 The electronic state is 1-A.
 Alpha  occ. eigenvalues --  -19.14937 -19.14653 -10.24631 -10.24368 -10.23254
 Alpha  occ. eigenvalues --  -10.19829 -10.19722 -10.19454 -10.16217  -1.07216
 Alpha  occ. eigenvalues --   -1.03205  -0.90334  -0.72916  -0.66901  -0.64329
 Alpha  occ. eigenvalues --   -0.63445  -0.58661  -0.52995  -0.51124  -0.50277
 Alpha  occ. eigenvalues --   -0.48000  -0.46841  -0.41281  -0.40134  -0.39463
 Alpha  occ. eigenvalues --   -0.38277  -0.35997  -0.34127  -0.33856  -0.30902
 Alpha  occ. eigenvalues --   -0.29885  -0.29022  -0.26745  -0.25085
 Alpha virt. eigenvalues --    0.07186   0.09253   0.11388   0.12443   0.12682
 Alpha virt. eigenvalues --    0.13830   0.13985   0.14329   0.15281   0.16518
 Alpha virt. eigenvalues --    0.18063   0.18566   0.19800   0.19807   0.20949

 Mulliken charges:
               1
     1  C   -0.452587
     2  C    0.059469
     3  C   -0.244455
     4  C    0.164749
     5  O   -0.438083
     6  C   -0.215240
     7  C    0.555204
     8  C   -0.322833
     9  O   -0.302315
    10  H    0.141381
    11  H    0.112353
    12  H    0.108623
    13  H    0.090367
    14  H    0.072017
    15  H    0.067984
    16  H    0.285277
    17  H    0.079373
    18  H    0.120257
    19  H    0.118458
 Sum of Mulliken charges =   0.00000

 Dipole moment (field-independent basis, Debye):
    X=             -0.2328    Y=              2.1281    Z=              1.0505  Tot=              2.3847
 Quadrupole moment (field-independent basis, Debye-Ang):
   XX=            -55.6511   YY=            -51.6652   ZZ=            -50.9462
   XY=              3.3984   XZ=             -2.7113   YZ=              2.7091

  Exact polarizability:  89.552   6.655  73.467  -0.774   1.073  66.638
 Approx polarizability: 117.314   3.275 110.612  -0.248   1.402 103.893

                      1                      2                      3
                      A                      A                      A
 Frequencies --    166.1598               169.0672               213.4621
 Red. masses --      1.1477                 3.1483                 2.3953
 Frc consts  --      0.0187                 0.0530                 0.0643
 IR Inten    --      3.1429                 1.2541                 2.0122

                      4                      5                      6
                      A                      A                      A
 Frequencies --    250.2434               268.8034               277.8678
 Red. masses --      1.3647                 2.5219                 4.4089
 Frc consts  --      0.0504                 0.1074                 0.2006
 IR Inten    --     53.3314                24.8263                26.6080

                      7                      8                      9
                      A                      A                      A
 Frequencies --    314.9115               395.6882               460.3958
 Red. masses --      2.6503                 3.8257                 2.6448
 Frc consts  --      0.1549                 0.3529                 0.3303
 IR Inten    --      2.3588                 5.6995                 2.6230

                     10                     11                     12
                      A                      A                      A
 Frequencies --    479.5179               579.4376               707.7177
 Red. masses --      6.3650                 5.5124                 3.0540
 Frc consts  --      0.8623                 1.0904                 0.9012
 IR Inten    --      3.4165                 7.4108                 0.8327

                     13                     14                     15
                      A                      A                      A
 Frequencies --    716.0991               782.9969               798.4959
 Red. masses --      2.9410                 2.2282                 2.7552
 Frc consts  --      0.8886                 0.8049                 1.0350
 IR Inten    --      0.2364                 8.4806                 1.3773

                     16                     17                     18
                      A                      A                      A
 Frequencies --    885.9507               889.0384               901.2963
 Red. masses --      2.7788                 4.4130                 1.6356
 Frc consts  --      1.2851                 2.0550                 0.7828
 IR Inten    --     10.7335                39.8394                 6.9929

                     19                     20                     21
                      A                      A                      A
 Frequencies --    991.3672              1019.3879              1062.3779
 Red. masses --      3.9234                 1.1387                 1.4658
 Frc consts  --      2.2718                 0.6972                 0.9747
 IR Inten    --     58.1164                 0.7648                 2.5635

                     22                     23                     24
                      A                      A                      A
 Frequencies --   1071.2281              1100.3472              1107.2585
 Red. masses --      2.0945                 1.8698                 1.3433
 Frc consts  --      1.4161                 1.3338                 0.9703
 IR Inten    --      0.5719                41.6828                 5.1560

                     25                     26                     27
                      A                      A                      A
 Frequencies --   1113.8030              1122.3885              1128.4359
 Red. masses --      1.4092                 1.7804                 3.5910
 Frc consts  --      1.0300                 1.3215                 2.6942
 IR Inten    --      1.4760                 0.7474                 3.0453

                     28                     29                     30
                      A                      A                      A
 Frequencies --   1133.4416              1179.1621              1189.1334
 Red. masses --      2.3129                 1.9301                 1.3615
 Frc consts  --      1.7507                 1.5812                 1.1343
 IR Inten    --     15.0951                21.9233                15.3705

                     31                     32                     33
                      A                      A                      A
 Frequencies --   1214.6582              1233.7429              1268.5755
 Red. masses --      2.0848                 1.4969                 1.9713
 Frc consts  --      1.8122                 1.3424                 1.8691
 IR Inten    --     49.0573                 7.4501                28.6496

                     34                     35                     36
                      A                      A                      A
 Frequencies --   1322.1408              1400.8123              1429.0270
 Red. masses --      1.3848                 1.2217                 1.2816
 Frc consts  --      1.4262                 1.4125                 1.5420
 IR Inten    --     18.2405                 0.1747                14.4070

                     37                     38                     39
                      A                      A                      A
 Frequencies --   1450.7941              1475.2960              1495.1964
 Red. masses --      1.5339                 1.3021                 1.0530
 Frc consts  --      1.9023                 1.6698                 1.3870
 IR Inten    --     38.9349                 1.2920                 2.5511

                     40                     41                     42
                      A                      A                      A
 Frequencies --   1511.3209              1559.8474              2998.1071
 Red. masses --      1.0476                 2.4529                 1.0837
 Frc consts  --      1.4098                 3.5163                 5.7390
 IR Inten    --      2.6952                21.0635                73.6480

                     43                     44                     45
                      A                      A                      A
 Frequencies --   3030.7257              3055.2526              3080.8026
 Red. masses --      1.0446                 1.0825                 1.0995
 Frc consts  --      5.6530                 5.9536                 6.1488
 IR Inten    --     33.8827                32.4152                24.9512

                     46                     47                     48
                      A                      A                      A
 Frequencies --   3084.4964              3107.6674              3120.2140
 Red. masses --      1.0510                 1.0914                 1.0929
 Frc consts  --      5.8913                 6.2103                 6.2690
 IR Inten    --     24.9799                52.8782                22.5877

                     49                     50                     51
                      A                      A                      A
 Frequencies --   3170.1216              3179.7778              3819.9305
 Red. masses --      1.1189                 1.0939                 1.0662
 Frc consts  --      6.6251                 6.5163                 9.1662
 IR Inten    --     19.6843                 5.5750                32.1303

 - Thermochemistry -
 -------------------
 Temperature   298.150 Kelvin.  Pressure   1.00000 Atm.
 Atom     1 has atomic number  6 and mass  12.00000

 Molecular mass:   126.06808 amu.
 Principal axes and moments of inertia in atomic units:
                           1         2         3
     Eigenvalues --   577.754241324.034731656.66313
           X            0.99827   0.05860  -0.00413
           Y           -0.05854   0.99820   0.01266
           Z            0.00487  -0.01240   0.99991
 This molecule is an asymmetric top.
 Rotational symmetry number  1.
 Warning -- assumption of classical behavior for rotation
           may cause significant error
 Rotational temperatures (Kelvin)      0.14991     0.06542     0.05228
 Rotational constants (GHZ):           3.12372     1.36306     1.08938
 Zero-point vibrational energy     415606.5 (Joules/Mol)
                                   99.33235 (Kcal/Mol)
 Warning -- explicit consideration of  11 degrees of freedom as
           vibrations may cause significant error
 Vibrational temperatures:    239.07   243.25   307.12   360.04   386.75
          (Kelvin)            399.79   453.09   569.31   662.41   689.92
                              833.68  1018.25  1030.31  1126.56  1148.86
                             1274.68  1279.13  1296.76  1426.35  1466.67
                             1528.52  1541.26  1583.15  1593.10  1602.51
                             1614.86  1623.57  1630.77  1696.55  1710.90
                             1747.62  1775.08  1825.19  1902.26  2015.45
                             2056.05  2087.37  2122.62  2151.25  2174.45
                             2244.27  4313.60  4360.53  4395.82  4432.58
                             4437.90  4471.23  4489.29  4561.09  4574.99
                             5496.02

 Zero-point correction=                           0.158296 (Hartree/Particle)
 Thermal correction to Energy=                    0.166614
 Thermal correction to Enthalpy=                  0.167559
 Thermal correction to Gibbs Free Energy=         0.125952
 Sum of electronic and zero-point Energies=           -422.938037
 Sum of electronic and thermal Energies=              -422.929719
 Sum of electronic and thermal Enthalpies=            -422.928775
 Sum of electronic and thermal Free Energies=         -422.970381

                     E (Thermal)             CV                S
                      KCal/Mol        Cal/Mol-Kelvin    Cal/Mol-Kelvin
 Total                  104.552             32.715             87.568
 Electronic               0.000              0.000              0.000
 Translational            0.889              2.981             40.409
 Rotational               0.889              2.981             28.629
 Vibrational            102.775             26.754             18.530
 Vibration     1          0.624              1.884              2.478
 Vibration     2          0.625              1.881              2.446
 Vibration     3          0.644              1.820              2.014
 Vibration     4          0.663              1.762              1.729
 Vibration     5          0.673              1.731              1.604
 Vibration     6          0.679              1.714              1.547
 Vibration     7          0.702              1.645              1.336
 Vibration     8          0.762              1.479              0.979
 Vibration     9          0.818              1.338              0.765
 Vibration    10          0.836              1.295              0.711
 Vibration    11          0.936              1.076              0.486

 Optimization completed.
    -- Stationary point found.
 Normal termination of Gaussian 09 at Tue Jan 28 04:44:14 2020.
