 Gaussian 09, Revision D.01,
 Gaussian 09:  ES64L-G09RevD.01 24-Apr-2013

 -----------------------------
 # b3lyp 6-31G(2df,p) opt Freq
 -----------------------------

 -----
 titel
 -----
 Symbolic Z-matrix:
 Charge =  0 Multiplicity = 1

 SCF Done:  E(RB3LYP) =  -423.208191201     A.U. after   14 cycles
 Optimization completed.
    -- Stationary point found.
 Normal termination of Gaussian 09 at Mon Jan 27 22:02:39 2020.

 ----------------------------------------------------------------------
 #N Geom=AllCheck Guess=TCheck SCRF=Check GenChk RB3LYP/6-31G(2df,p) Fr
 eq
 ----------------------------------------------------------------------

 Structure from the checkpoint file:  "/scratch/puck/g09_4e89d768-50cb-45f8-a7fb-e2415012d207/Gau-182172.chk"
 -----
 titel
 -----
 Charge =  0 Multiplicity = 1

                         Standard orientation:
 ---------------------------------------------------------------------
 Center     Atomic      Atomic             Coordinates (Angstroms)
 Number     Number       Type             X           Y           Z
 ---------------------------------------------------------------------
      1          6           0       -2.847804   -0.149665    0.273155
      2          6           0       -1.371274   -0.112458    0.003626
      3          6           0       -0.626275   -1.206221   -0.176924
      4          6           0        0.849731   -1.069293   -0.467675
      5          6           0        1.649224   -0.729359    0.805301
      6          8           0        1.403131    0.670805    0.951741
      7          6           0        0.799265    1.118274   -0.264668
      8          6           0       -0.718199    1.252762   -0.077648
      9          8           0        1.081859    0.128405   -1.224946
     10          1           0       -3.087314    0.329011    1.231286
     11          1           0       -3.402691    0.402115   -0.496739
     12          1           0       -3.227980   -1.174488    0.298408
     13          1           0       -1.052606   -2.202775   -0.105472
     14          1           0        1.253646   -1.911314   -1.031884
     15          1           0        1.295813   -1.256787    1.695912
     16          1           0        2.722262   -0.916669    0.666992
     17          1           0        1.270634    2.054802   -0.577623
     18          1           0       -0.909170    1.824877    0.838805
     19          1           0       -1.150523    1.833304   -0.905049
 ---------------------------------------------------------------------

 SCF Done:  E(RB3LYP) =  -423.208191201     A.U. after    1 cycles

 The electronic state is 1-A.
 Alpha  occ. eigenvalues --  -19.14421 -19.13686 -10.27335 -10.23757 -10.22743
 Alpha  occ. eigenvalues --  -10.19424 -10.18408 -10.18317 -10.17598  -1.08647
 Alpha  occ. eigenvalues --   -0.98584  -0.81579  -0.78239  -0.71016  -0.67263
 Alpha  occ. eigenvalues --   -0.61655  -0.60530  -0.53014  -0.51757  -0.47068
 Alpha  occ. eigenvalues --   -0.46475  -0.45207  -0.42387  -0.41988  -0.41535
 Alpha  occ. eigenvalues --   -0.39038  -0.38595  -0.37415  -0.34440  -0.33795
 Alpha  occ. eigenvalues --   -0.32759  -0.26466  -0.25566  -0.23631
 Alpha virt. eigenvalues --    0.01585   0.09407   0.11250   0.12123   0.12633
 Alpha virt. eigenvalues --    0.13387   0.14774   0.15658   0.16294   0.17586
 Alpha virt. eigenvalues --    0.18006   0.18454   0.18666   0.20755   0.22865

 Mulliken charges:
               1
     1  C   -0.476394
     2  C    0.317316
     3  C   -0.162786
     4  C   -0.001276
     5  C   -0.079132
     6  O   -0.279920
     7  C    0.181076
     8  C   -0.310876
     9  O   -0.248258
    10  H    0.126256
    11  H    0.125666
    12  H    0.121074
    13  H    0.082398
    14  H    0.088508
    15  H    0.107863
    16  H    0.098947
    17  H    0.086428
    18  H    0.116032
    19  H    0.107078
 Sum of Mulliken charges =   0.00000

 Dipole moment (field-independent basis, Debye):
    X=             -1.1808    Y=             -0.8110    Z=              0.2628  Tot=              1.4563
 Quadrupole moment (field-independent basis, Debye-Ang):
   XX=            -52.3586   YY=            -48.5829   ZZ=            -56.9202
   XY=             -2.6675   XZ=             -0.2826   YZ=             -1.4069

  Exact polarizability:  87.943  -7.460  82.083  -1.150  -1.026  59.122
 Approx polarizability: 114.941 -15.351 128.105  -2.905   1.203  94.473

                      1                      2                      3
                      A                      A                      A
 Frequencies --    125.7705               176.4895               208.4525
 Red. masses --      3.3062                 1.5452                 1.4711
 Frc consts  --      0.0308                 0.0284                 0.0377
 IR Inten    --      0.3507                 2.1625                 1.4061

                      4                      5                      6
                      A                      A                      A
 Frequencies --    315.6524               350.2883               383.3831
 Red. masses --      2.5160                 2.7425                 2.7799
 Frc consts  --      0.1477                 0.1983                 0.2407
 IR Inten    --      0.1095                 3.8703                 0.9806

                      7                      8                      9
                      A                      A                      A
 Frequencies --    432.7677               481.6429               586.9418
 Red. masses --      4.9630                 2.2012                 4.5565
 Frc consts  --      0.5477                 0.3009                 0.9249
 IR Inten    --      5.9322                 1.8194                 0.4666

                     10                     11                     12
                      A                      A                      A
 Frequencies --    647.1809               773.9453               790.3444
 Red. masses --      4.6890                 4.8628                 2.6075
 Frc consts  --      1.1571                 1.7161                 0.9597
 IR Inten    --     10.4691                 4.9923                 0.3885

                     13                     14                     15
                      A                      A                      A
 Frequencies --    836.4230               848.3508               871.8061
 Red. masses --      2.6929                 2.6660                 3.3027
 Frc consts  --      1.1100                 1.1305                 1.4790
 IR Inten    --      1.6755                12.8340                 1.7358

                     16                     17                     18
                      A                      A                      A
 Frequencies --    886.5630               959.5477               977.3870
 Red. masses --      2.5014                 2.1712                 2.0228
 Frc consts  --      1.1584                 1.1778                 1.1385
 IR Inten    --     62.0112                 4.8850                14.5432

                     19                     20                     21
                      A                      A                      A
 Frequencies --    986.6560              1006.3915              1032.1921
 Red. masses --      1.8443                 3.1813                 2.6673
 Frc consts  --      1.0578                 1.8984                 1.6743
 IR Inten    --     11.7398                34.2328                18.8084

                     22                     23                     24
                      A                      A                      A
 Frequencies --   1039.5797              1070.7868              1099.6784
 Red. masses --      2.4261                 1.6469                 1.7482
 Frc consts  --      1.5448                 1.1126                 1.2456
 IR Inten    --      3.4406                11.9921                12.9530

                     25                     26                     27
                      A                      A                      A
 Frequencies --   1145.4243              1191.6057              1201.1833
 Red. masses --      4.3789                 2.4857                 1.1787
 Frc consts  --      3.3849                 2.0795                 1.0020
 IR Inten    --    109.5075                 0.4517                 2.0233

                     28                     29                     30
                      A                      A                      A
 Frequencies --   1211.3388              1268.6822              1317.7901
 Red. masses --      1.1577                 1.3687                 1.4783
 Frc consts  --      1.0009                 1.2979                 1.5125
 IR Inten    --      8.3832                 1.1627                 1.7974

                     31                     32                     33
                      A                      A                      A
 Frequencies --   1322.7265              1330.3125              1372.2041
 Red. masses --      1.3076                 1.4659                 1.5737
 Frc consts  --      1.3480                 1.5285                 1.7459
 IR Inten    --      1.0704                13.2246                25.6795

                     34                     35                     36
                      A                      A                      A
 Frequencies --   1382.9216              1401.5551              1413.6841
 Red. masses --      1.4695                 1.5628                 1.2762
 Frc consts  --      1.6559                 1.8087                 1.5027
 IR Inten    --      6.5988                 2.2544                 1.4004

                     37                     38                     39
                      A                      A                      A
 Frequencies --   1460.1261              1477.9436              1489.0970
 Red. masses --      1.0934                 1.0446                 1.0631
 Frc consts  --      1.3735                 1.3443                 1.3889
 IR Inten    --      2.9135                 6.8880                 6.2974

                     40                     41                     42
                      A                      A                      A
 Frequencies --   1516.6386              1728.7080              3009.4446
 Red. masses --      1.0931                 6.9015                 1.0608
 Frc consts  --      1.4814                12.1517                 5.6604
 IR Inten    --      0.6825                11.1577                17.8403

                     43                     44                     45
                      A                      A                      A
 Frequencies --   3014.1719              3016.8867              3054.0641
 Red. masses --      1.0639                 1.0416                 1.0963
 Frc consts  --      5.6949                 5.5856                 6.0249
 IR Inten    --     88.7289                30.0114                10.7483

                     46                     47                     48
                      A                      A                      A
 Frequencies --   3063.2485              3070.3733              3087.8132
 Red. masses --      1.0983                 1.0892                 1.1004
 Frc consts  --      6.0723                 6.0497                 6.1815
 IR Inten    --     22.8631                64.0442                24.8985

                     49                     50                     51
                      A                      A                      A
 Frequencies --   3106.9659              3110.5765              3166.1750
 Red. masses --      1.0888                 1.0994                 1.0913
 Frc consts  --      6.1923                 6.2677                 6.4454
 IR Inten    --     32.0698                18.8507                17.9143

 - Thermochemistry -
 -------------------
 Temperature   298.150 Kelvin.  Pressure   1.00000 Atm.
 Atom     1 has atomic number  6 and mass  12.00000

 Molecular mass:   126.06808 amu.
 Principal axes and moments of inertia in atomic units:
                           1         2         3
     Eigenvalues --   578.824631200.987281357.45953
           X            0.99975  -0.02237  -0.00274
           Y            0.02222   0.99873  -0.04521
           Z            0.00375   0.04514   0.99897
 This molecule is an asymmetric top.
 Rotational symmetry number  1.
 Warning -- assumption of classical behavior for rotation
           may cause significant error
 Rotational temperatures (Kelvin)      0.14964     0.07212     0.06381
 Rotational constants (GHZ):           3.11794     1.50271     1.32950
 Zero-point vibrational energy     423597.0 (Joules/Mol)
                                  101.24210 (Kcal/Mol)
 Warning -- explicit consideration of   9 degrees of freedom as
           vibrations may cause significant error
 Vibrational temperatures:    180.96   253.93   299.92   454.15   503.99
          (Kelvin)            551.60   622.66   692.98   844.48   931.15
                             1113.53  1137.13  1203.42  1220.59  1254.33
                             1275.56  1380.57  1406.24  1419.58  1447.97
                             1485.09  1495.72  1540.62  1582.19  1648.01
                             1714.45  1728.23  1742.84  1825.35  1896.00
                             1903.11  1914.02  1974.29  1989.71  2016.52
                             2033.97  2100.79  2126.43  2142.48  2182.10
                             2487.22  4329.91  4336.72  4340.62  4394.11
                             4407.33  4417.58  4442.67  4470.23  4475.42
                             4555.41

 Zero-point correction=                           0.161340 (Hartree/Particle)
 Thermal correction to Energy=                    0.168774
 Thermal correction to Enthalpy=                  0.169718
 Thermal correction to Gibbs Free Energy=         0.129660
 Sum of electronic and zero-point Energies=           -423.046852
 Sum of electronic and thermal Energies=              -423.039418
 Sum of electronic and thermal Enthalpies=            -423.038474
 Sum of electronic and thermal Free Energies=         -423.078531

                     E (Thermal)             CV                S
                      KCal/Mol        Cal/Mol-Kelvin    Cal/Mol-Kelvin
 Total                  105.907             29.651             84.309
 Electronic               0.000              0.000              0.000
 Translational            0.889              2.981             40.409
 Rotational               0.889              2.981             28.336
 Vibrational            104.130             23.689             15.564
 Vibration     1          0.611              1.927              3.010
 Vibration     2          0.628              1.871              2.365
 Vibration     3          0.642              1.828              2.057
 Vibration     4          0.703              1.644              1.333
 Vibration     5          0.727              1.575              1.165
 Vibration     6          0.753              1.506              1.026
 Vibration     7          0.794              1.399              0.850
 Vibration     8          0.838              1.291              0.706
 Vibration     9          0.944              1.060              0.473

 Optimization completed.
    -- Stationary point found.
 Normal termination of Gaussian 09 at Mon Jan 27 22:51:09 2020.
