 Gaussian 09, Revision D.01,
 Gaussian 09:  ES64L-G09RevD.01 24-Apr-2013

 -----------------------------
 # b3lyp 6-31G(2df,p) opt Freq
 -----------------------------

 -----
 titel
 -----
 Symbolic Z-matrix:
 Charge =  0 Multiplicity = 1

 SCF Done:  E(RB3LYP) =  -423.149640705     A.U. after   14 cycles
 Optimization completed.
    -- Stationary point found.
 Normal termination of Gaussian 09 at Tue Jan 28 02:54:06 2020.

 ----------------------------------------------------------------------
 #N Geom=AllCheck Guess=TCheck SCRF=Check GenChk RB3LYP/6-31G(2df,p) Fr
 eq
 ----------------------------------------------------------------------

 Structure from the checkpoint file:  "/scratch/puck/g09_d12a791d-8390-4688-98bb-1b99d87efc81/Gau-11497.chk"
 -----
 titel
 -----
 Charge =  0 Multiplicity = 1

                         Standard orientation:
 ---------------------------------------------------------------------
 Center     Atomic      Atomic             Coordinates (Angstroms)
 Number     Number       Type             X           Y           Z
 ---------------------------------------------------------------------
      1          6           0       -2.937230    1.178642   -0.185428
      2          6           0       -1.832126    0.385117    0.478969
      3          8           0       -1.963396   -1.046821    0.191510
      4          6           0       -0.737139   -1.025453   -0.531968
      5          6           0        0.416224   -0.671582    0.359756
      6          6           0        1.816911   -0.785543   -0.220081
      7          6           0        2.743655    0.247433    0.389142
      8          8           0        3.341800    1.086470   -0.232611
      9          6           0       -0.468180    0.425096   -0.211610
     10          1           0       -2.805393    2.249186    0.007097
     11          1           0       -2.936435    1.014302   -1.266866
     12          1           0       -3.910228    0.874551    0.211555
     13          1           0       -1.820219    0.559481    1.562785
     14          1           0       -0.662660   -1.613092   -1.440563
     15          1           0        0.320770   -0.916440    1.416617
     16          1           0        2.222012   -1.784032   -0.004030
     17          1           0        1.813730   -0.644177   -1.305437
     18          1           0        2.825984    0.189074    1.499935
     19          1           0       -0.087483    1.231688   -0.824976
 ---------------------------------------------------------------------

 SCF Done:  E(RB3LYP) =  -423.149640705     A.U. after    1 cycles

 The electronic state is 1-A.
 Alpha  occ. eigenvalues --  -19.14325 -19.14088 -10.27547 -10.24613 -10.24488
 Alpha  occ. eigenvalues --  -10.20895 -10.20480 -10.20093 -10.18242  -1.05544
 Alpha  occ. eigenvalues --   -1.04999  -0.85296  -0.76419  -0.75004  -0.64591
 Alpha  occ. eigenvalues --   -0.60249  -0.57981  -0.54536  -0.51201  -0.49981
 Alpha  occ. eigenvalues --   -0.48110  -0.45945  -0.43764  -0.42759  -0.39921
 Alpha  occ. eigenvalues --   -0.39641  -0.38852  -0.37316  -0.36526  -0.34545
 Alpha  occ. eigenvalues --   -0.31975  -0.28100  -0.25906  -0.23568
 Alpha virt. eigenvalues --   -0.02395   0.08177   0.09233   0.10238   0.10792
 Alpha virt. eigenvalues --    0.12729   0.13143   0.14204   0.14541   0.15043
 Alpha virt. eigenvalues --    0.16432   0.17579   0.17771   0.20446   0.21693

 Mulliken charges:
               1
     1  C   -0.400462
     2  C    0.130439
     3  O   -0.307083
     4  C    0.087977
     5  C   -0.072498
     6  C   -0.323717
     7  C    0.173007
     8  O   -0.237614
     9  C   -0.137580
    10  H    0.118133
    11  H    0.124934
    12  H    0.129866
    13  H    0.082438
    14  H    0.106380
    15  H    0.095576
    16  H    0.123996
    17  H    0.121135
    18  H    0.074110
    19  H    0.110961
 Sum of Mulliken charges =   0.00000

 Dipole moment (field-independent basis, Debye):
    X=             -0.7899    Y=             -0.5520    Z=              0.3700  Tot=              1.0323
 Quadrupole moment (field-independent basis, Debye-Ang):
   XX=            -62.3214   YY=            -55.0390   ZZ=            -51.0517
   XY=            -10.3837   XZ=              2.8743   YZ=              1.7413

  Exact polarizability:  92.041  -2.293  71.403  -0.293   0.374  67.575
 Approx polarizability: 115.213   5.723 113.491  -3.543  -2.829 104.940

                      1                      2                      3
                      A                      A                      A
 Frequencies --     35.8852                73.3590               139.4571
 Red. masses --      6.7777                 3.2216                 2.5709
 Frc consts  --      0.0051                 0.0102                 0.0295
 IR Inten    --      5.1240                 6.3867                 0.8828

                      4                      5                      6
                      A                      A                      A
 Frequencies --    167.1730               236.2636               250.6327
 Red. masses --      2.8158                 2.0075                 1.2806
 Frc consts  --      0.0464                 0.0660                 0.0474
 IR Inten    --      1.5033                 1.6242                 0.1266

                      7                      8                      9
                      A                      A                      A
 Frequencies --    338.6611               358.0386               431.5791
 Red. masses --      2.9058                 3.1705                 3.0449
 Frc consts  --      0.1964                 0.2395                 0.3342
 IR Inten    --      1.2419                 2.1974                 5.6813

                     10                     11                     12
                      A                      A                      A
 Frequencies --    471.7841               545.6771               769.0185
 Red. masses --      3.4079                 3.0260                 1.8674
 Frc consts  --      0.4469                 0.5309                 0.6507
 IR Inten    --      1.4922                13.7030                 6.8900

                     13                     14                     15
                      A                      A                      A
 Frequencies --    779.3863               816.8205               863.4793
 Red. masses --      2.4415                 1.4810                 2.7182
 Frc consts  --      0.8738                 0.5822                 1.1941
 IR Inten    --      5.3896                 9.1809                21.3091

                     16                     17                     18
                      A                      A                      A
 Frequencies --    905.9794               920.1153               930.1350
 Red. masses --      2.7544                 2.3663                 2.6600
 Frc consts  --      1.3320                 1.1803                 1.3559
 IR Inten    --      6.4928                 4.0861                 4.6002

                     19                     20                     21
                      A                      A                      A
 Frequencies --   1002.7429              1026.4658              1038.5844
 Red. masses --      1.5016                 2.2448                 1.5416
 Frc consts  --      0.8896                 1.3935                 0.9797
 IR Inten    --     11.5329                58.6042                26.7246

                     22                     23                     24
                      A                      A                      A
 Frequencies --   1047.4033              1079.6908              1094.5025
 Red. masses --      2.6221                 1.9341                 1.5088
 Frc consts  --      1.6948                 1.3284                 1.0649
 IR Inten    --     22.9175                 4.3656                 0.5710

                     25                     26                     27
                      A                      A                      A
 Frequencies --   1107.9440              1109.8210              1145.4623
 Red. masses --      1.7455                 2.6665                 2.3382
 Frc consts  --      1.2624                 1.9351                 1.8076
 IR Inten    --     18.8477                 6.6295                12.8132

                     28                     29                     30
                      A                      A                      A
 Frequencies --   1184.8688              1228.2028              1236.2272
 Red. masses --      1.6274                 1.4480                 1.5386
 Frc consts  --      1.3461                 1.2870                 1.3854
 IR Inten    --     12.8490                 3.2224                 6.0273

                     31                     32                     33
                      A                      A                      A
 Frequencies --   1273.8607              1290.0951              1329.3380
 Red. masses --      1.3241                 1.4911                 1.5343
 Frc consts  --      1.2659                 1.4622                 1.5975
 IR Inten    --      5.4713                 1.2165                17.4995

                     34                     35                     36
                      A                      A                      A
 Frequencies --   1383.6280              1407.1223              1423.5107
 Red. masses --      1.4026                 1.3580                 2.5022
 Frc consts  --      1.5820                 1.5842                 2.9874
 IR Inten    --     14.4999                12.8330                 4.1229

                     37                     38                     39
                      A                      A                      A
 Frequencies --   1428.7744              1461.4185              1485.2905
 Red. masses --      1.1936                 1.0925                 1.0551
 Frc consts  --      1.4356                 1.3747                 1.3714
 IR Inten    --      5.0459                 5.3834                 3.1569

                     40                     41                     42
                      A                      A                      A
 Frequencies --   1491.6843              1836.2761              2858.8657
 Red. masses --      1.0494                10.0730                 1.0822
 Frc consts  --      1.3757                20.0117                 5.2114
 IR Inten    --      2.7398               169.1359               109.7944

                     43                     44                     45
                      A                      A                      A
 Frequencies --   3016.8888              3021.9181              3036.3075
 Red. masses --      1.0632                 1.0837                 1.0360
 Frc consts  --      5.7013                 5.8307                 5.6271
 IR Inten    --     18.5140                42.8707                17.3167

                     46                     47                     48
                      A                      A                      A
 Frequencies --   3089.9190              3108.2376              3117.1420
 Red. masses --      1.0973                 1.1003                 1.0885
 Frc consts  --      6.1728                 6.2628                 6.2315
 IR Inten    --      5.3809                17.7253                19.8073

                     49                     50                     51
                      A                      A                      A
 Frequencies --   3120.8873              3170.7029              3198.2816
 Red. masses --      1.1027                 1.0910                 1.0963
 Frc consts  --      6.3280                 6.4622                 6.6069
 IR Inten    --     21.5436                20.0976                 4.3429

 - Thermochemistry -
 -------------------
 Temperature   298.150 Kelvin.  Pressure   1.00000 Atm.
 Atom     1 has atomic number  6 and mass  12.00000

 Molecular mass:   126.06808 amu.
 Principal axes and moments of inertia in atomic units:
                           1         2         3
     Eigenvalues --   442.157382154.705812415.58360
           X            0.99931  -0.03667   0.00571
           Y            0.03660   0.99927   0.01113
           Z           -0.00611  -0.01092   0.99992
 This molecule is an asymmetric top.
 Rotational symmetry number  1.
 Warning -- assumption of classical behavior for rotation
           may cause significant error
 Rotational temperatures (Kelvin)      0.19589     0.04020     0.03586
 Rotational constants (GHZ):           4.08167     0.83758     0.74712
 Zero-point vibrational energy     412026.8 (Joules/Mol)
                                   98.47678 (Kcal/Mol)
 Warning -- explicit consideration of  11 degrees of freedom as
           vibrations may cause significant error
 Vibrational temperatures:     51.63   105.55   200.65   240.52   339.93
          (Kelvin)            360.60   487.26   515.14   620.95   678.79
                              785.11  1106.44  1121.36  1175.22  1242.35
                             1303.50  1323.84  1338.26  1442.72  1476.85
                             1494.29  1506.98  1553.43  1574.74  1594.08
                             1596.78  1648.06  1704.76  1767.11  1778.65
                             1832.80  1856.16  1912.62  1990.73  2024.53
                             2048.11  2055.69  2102.65  2137.00  2146.20
                             2641.99  4113.26  4340.62  4347.86  4368.56
                             4445.70  4472.06  4484.87  4490.26  4561.93
                             4601.61

 Zero-point correction=                           0.156933 (Hartree/Particle)
 Thermal correction to Energy=                    0.165969
 Thermal correction to Enthalpy=                  0.166913
 Thermal correction to Gibbs Free Energy=         0.121947
 Sum of electronic and zero-point Energies=           -422.992708
 Sum of electronic and thermal Energies=              -422.983672
 Sum of electronic and thermal Enthalpies=            -422.982728
 Sum of electronic and thermal Free Energies=         -423.027694

                     E (Thermal)             CV                S
                      KCal/Mol        Cal/Mol-Kelvin    Cal/Mol-Kelvin
 Total                  104.147             32.730             94.640
 Electronic               0.000              0.000              0.000
 Translational            0.889              2.981             40.409
 Rotational               0.889              2.981             29.222
 Vibrational            102.370             26.768             25.009
 Vibration     1          0.594              1.982              5.474
 Vibration     2          0.599              1.967              4.061
 Vibration     3          0.615              1.914              2.811
 Vibration     4          0.624              1.883              2.467
 Vibration     5          0.655              1.785              1.831
 Vibration     6          0.663              1.762              1.726
 Vibration     7          0.719              1.598              1.218
 Vibration     8          0.733              1.559              1.131
 Vibration     9          0.793              1.401              0.854
 Vibration    10          0.829              1.313              0.733
 Vibration    11          0.901              1.149              0.553

 Optimization completed.
    -- Stationary point found.
 Normal termination of Gaussian 09 at Tue Jan 28 03:36:00 2020.
