 Gaussian 09, Revision D.01,
 Gaussian 09:  ES64L-G09RevD.01 24-Apr-2013

 -----------------------------
 # b3lyp 6-31G(2df,p) opt Freq
 -----------------------------

 -----
 titel
 -----
 Symbolic Z-matrix:
 Charge =  0 Multiplicity = 1

 SCF Done:  E(RB3LYP) =  -423.209534549     A.U. after   14 cycles
 Optimization completed.
    -- Stationary point found.
 Normal termination of Gaussian 09 at Tue Jan 28 03:55:22 2020.

 ----------------------------------------------------------------------
 #N Geom=AllCheck Guess=TCheck SCRF=Check GenChk RB3LYP/6-31G(2df,p) Fr
 eq
 ----------------------------------------------------------------------

 Structure from the checkpoint file:  "/scratch/puck/g09_c79d2d85-f883-451e-b4b4-0767f6c9f4a2/Gau-8782.chk"
 -----
 titel
 -----
 Charge =  0 Multiplicity = 1

                         Standard orientation:
 ---------------------------------------------------------------------
 Center     Atomic      Atomic             Coordinates (Angstroms)
 Number     Number       Type             X           Y           Z
 ---------------------------------------------------------------------
      1          6           0        2.501044   -0.348494   -0.197685
      2          6           0        1.074153   -0.795201    0.110364
      3          6           0        0.468816   -0.168243    1.427746
      4          6           0       -0.864364    0.476299    0.963954
      5          6           0       -0.513601    1.666306    0.060612
      6          8           0        0.096259    1.065363   -1.113019
      7          6           0        0.035760   -0.357279   -0.945683
      8          6           0       -1.258266   -0.522160   -0.135248
      9          8           0       -2.222711   -1.214156   -0.286720
     10          1           0        3.169550   -0.586171    0.636367
     11          1           0        2.888828   -0.846852   -1.092253
     12          1           0        2.535918    0.730177   -0.372874
     13          1           0        1.044271   -1.889307    0.183628
     14          1           0        0.295530   -0.932033    2.189842
     15          1           0        1.137565    0.584891    1.856672
     16          1           0       -1.607747    0.673180    1.733419
     17          1           0       -1.401640    2.234017   -0.244485
     18          1           0        0.202992    2.355187    0.523282
     19          1           0        0.085085   -0.840108   -1.920045
 ---------------------------------------------------------------------

 SCF Done:  E(RB3LYP) =  -423.209534549     A.U. after    1 cycles

 The electronic state is 1-A.
 Alpha  occ. eigenvalues --  -19.14912 -19.14514 -10.27173 -10.24082 -10.23649
 Alpha  occ. eigenvalues --  -10.20321 -10.20092 -10.19917 -10.17969  -1.06048
 Alpha  occ. eigenvalues --   -1.03825  -0.83939  -0.77737  -0.72156  -0.67348
 Alpha  occ. eigenvalues --   -0.62388  -0.56468  -0.54930  -0.51648  -0.48315
 Alpha  occ. eigenvalues --   -0.46305  -0.44443  -0.42415  -0.41814  -0.40729
 Alpha  occ. eigenvalues --   -0.39138  -0.37843  -0.37627  -0.36242  -0.35877
 Alpha  occ. eigenvalues --   -0.32931  -0.32618  -0.27270  -0.22837
 Alpha virt. eigenvalues --   -0.02113   0.07932   0.09832   0.11507   0.12530
 Alpha virt. eigenvalues --    0.13615   0.14451   0.15098   0.15876   0.16646
 Alpha virt. eigenvalues --    0.17071   0.17794   0.19186   0.20291   0.21149

 Mulliken charges:
               1
     1  C   -0.412928
     2  C    0.019257
     3  C   -0.248507
     4  C   -0.158431
     5  C   -0.077070
     6  O   -0.287908
     7  C   -0.012330
     8  C    0.429078
     9  O   -0.323774
    10  H    0.114596
    11  H    0.116840
    12  H    0.133433
    13  H    0.086007
    14  H    0.112949
    15  H    0.107042
    16  H    0.091194
    17  H    0.112281
    18  H    0.105621
    19  H    0.092650
 Sum of Mulliken charges =   0.00000

 Dipole moment (field-independent basis, Debye):
    X=              1.7832    Y=              0.7272    Z=              1.6330  Tot=              2.5249
 Quadrupole moment (field-independent basis, Debye-Ang):
   XX=            -58.2921   YY=            -53.4403   ZZ=            -52.9156
   XY=             -5.4657   XZ=             -0.8351   YZ=              2.0061

  Exact polarizability:  81.309  -0.112  72.602  -0.450   3.548  68.735
 Approx polarizability: 114.726   7.018 110.906   0.687   4.643 103.431

                      1                      2                      3
                      A                      A                      A
 Frequencies --    104.2537               145.0681               220.1832
 Red. masses --      3.0272                 4.5828                 1.0502
 Frc consts  --      0.0194                 0.0568                 0.0300
 IR Inten    --      1.3427                 2.0847                 0.3774

                      4                      5                      6
                      A                      A                      A
 Frequencies --    252.9682               286.6996               376.9075
 Red. masses --      3.6254                 2.8121                 2.0075
 Frc consts  --      0.1367                 0.1362                 0.1680
 IR Inten    --      4.4945                 3.0225                 0.3117

                      7                      8                      9
                      A                      A                      A
 Frequencies --    421.4839               502.8015               558.6594
 Red. masses --      3.7688                 3.8913                 4.8430
 Frc consts  --      0.3945                 0.5796                 0.8905
 IR Inten    --      2.2987                 5.0046                 2.2515

                     10                     11                     12
                      A                      A                      A
 Frequencies --    641.0103               715.9643               770.2763
 Red. masses --      4.4646                 3.0856                 5.1730
 Frc consts  --      1.0808                 0.9319                 1.8084
 IR Inten    --      1.5977                 8.4259                 3.0569

                     13                     14                     15
                      A                      A                      A
 Frequencies --    812.8858               858.9444               865.4086
 Red. masses --      3.7544                 2.2566                 2.6466
 Frc consts  --      1.4617                 0.9809                 1.1678
 IR Inten    --      3.0415                 8.2628                 4.1472

                     16                     17                     18
                      A                      A                      A
 Frequencies --    894.4281               926.7049               953.4962
 Red. masses --      5.1425                 1.6105                 2.1580
 Frc consts  --      2.4239                 0.8149                 1.1560
 IR Inten    --     14.6625                 3.0059                14.6164

                     19                     20                     21
                      A                      A                      A
 Frequencies --    986.9831              1020.1251              1029.1291
 Red. masses --      1.9195                 2.5496                 1.4388
 Frc consts  --      1.1017                 1.5632                 0.8978
 IR Inten    --      5.4743                18.7395                 5.3617

                     22                     23                     24
                      A                      A                      A
 Frequencies --   1061.2081              1094.0151              1114.8321
 Red. masses --      2.5895                 2.1458                 1.6409
 Frc consts  --      1.7182                 1.5132                 1.2016
 IR Inten    --     24.0621                 7.7303                13.3912

                     25                     26                     27
                      A                      A                      A
 Frequencies --   1148.2347              1177.4143              1200.3103
 Red. masses --      2.2151                 1.3719                 1.5198
 Frc consts  --      1.7207                 1.1206                 1.2901
 IR Inten    --     32.1501                 3.9071                 2.5906

                     28                     29                     30
                      A                      A                      A
 Frequencies --   1214.0253              1233.8155              1273.3849
 Red. masses --      1.6098                 1.4944                 1.5319
 Frc consts  --      1.3979                 1.3404                 1.4635
 IR Inten    --      1.2679                 1.0573                 5.8796

                     31                     32                     33
                      A                      A                      A
 Frequencies --   1292.5517              1313.3028              1331.5038
 Red. masses --      1.3924                 1.3764                 1.3622
 Frc consts  --      1.3706                 1.3987                 1.4229
 IR Inten    --      2.1004                 0.6520                 1.3591

                     34                     35                     36
                      A                      A                      A
 Frequencies --   1363.8194              1383.2538              1404.8686
 Red. masses --      1.4887                 1.3806                 1.2394
 Frc consts  --      1.6314                 1.5564                 1.4412
 IR Inten    --      4.1525                 1.6997                 2.1301

                     37                     38                     39
                      A                      A                      A
 Frequencies --   1490.9247              1491.9035              1501.5691
 Red. masses --      1.0475                 1.0836                 1.0499
 Frc consts  --      1.3719                 1.4210                 1.3947
 IR Inten    --      3.6725                 1.6264                 4.2894

                     40                     41                     42
                      A                      A                      A
 Frequencies --   1531.2294              1893.1963              3015.1355
 Red. masses --      1.0915                12.3576                 1.0562
 Frc consts  --      1.5078                26.0960                 5.6571
 IR Inten    --      0.0933               264.2037                71.4317

                     43                     44                     45
                      A                      A                      A
 Frequencies --   3028.5973              3035.8381              3049.9665
 Red. masses --      1.0809                 1.0384                 1.0625
 Frc consts  --      5.8416                 5.6384                 5.8235
 IR Inten    --     15.7893                23.6783                18.3185

                     46                     47                     48
                      A                      A                      A
 Frequencies --   3055.9911              3098.8164              3101.8509
 Red. masses --      1.1090                 1.1026                 1.1037
 Frc consts  --      6.1023                 6.2379                 6.2566
 IR Inten    --     42.0713                25.4637                15.1082

                     49                     50                     51
                      A                      A                      A
 Frequencies --   3120.2756              3142.4764              3146.2050
 Red. masses --      1.1006                 1.0894                 1.0905
 Frc consts  --      6.3134                 6.3383                 6.3599
 IR Inten    --     21.0783                24.1337                 8.5678

 - Thermochemistry -
 -------------------
 Temperature   298.150 Kelvin.  Pressure   1.00000 Atm.
 Atom     1 has atomic number  6 and mass  12.00000

 Molecular mass:   126.06808 amu.
 Principal axes and moments of inertia in atomic units:
                           1         2         3
     Eigenvalues --   696.720911139.527471228.06035
           X            0.99806  -0.06050  -0.01463
           Y            0.06168   0.99283   0.10238
           Z            0.00833  -0.10308   0.99464
 This molecule is an asymmetric top.
 Rotational symmetry number  1.
 Warning -- assumption of classical behavior for rotation
           may cause significant error
 Rotational temperatures (Kelvin)      0.12432     0.07601     0.07053
 Rotational constants (GHZ):           2.59034     1.58376     1.46959
 Zero-point vibrational energy     422610.1 (Joules/Mol)
                                  101.00625 (Kcal/Mol)
 Warning -- explicit consideration of   9 degrees of freedom as
           vibrations may cause significant error
 Vibrational temperatures:    150.00   208.72   316.79   363.96   412.50
          (Kelvin)            542.29   606.42   723.42   803.79   922.27
                             1030.11  1108.25  1169.56  1235.83  1245.13
                             1286.88  1333.32  1371.87  1420.05  1467.73
                             1480.69  1526.84  1574.04  1603.99  1652.05
                             1694.03  1726.98  1746.71  1775.18  1832.11
                             1859.69  1889.55  1915.73  1962.23  1990.19
                             2021.29  2145.11  2146.51  2160.42  2203.09
                             2723.88  4338.10  4357.47  4367.89  4388.22
                             4396.88  4458.50  4462.87  4489.38  4521.32
                             4526.68

 Zero-point correction=                           0.160964 (Hartree/Particle)
 Thermal correction to Energy=                    0.168690
 Thermal correction to Enthalpy=                  0.169634
 Thermal correction to Gibbs Free Energy=         0.128839
 Sum of electronic and zero-point Energies=           -423.048571
 Sum of electronic and thermal Energies=              -423.040844
 Sum of electronic and thermal Enthalpies=            -423.039900
 Sum of electronic and thermal Free Energies=         -423.080696

                     E (Thermal)             CV                S
                      KCal/Mol        Cal/Mol-Kelvin    Cal/Mol-Kelvin
 Total                  105.855             30.222             85.862
 Electronic               0.000              0.000              0.000
 Translational            0.889              2.981             40.409
 Rotational               0.889              2.981             28.368
 Vibrational            104.077             24.261             17.085
 Vibration     1          0.605              1.946              3.373
 Vibration     2          0.616              1.908              2.736
 Vibration     3          0.647              1.810              1.958
 Vibration     4          0.664              1.758              1.710
 Vibration     5          0.684              1.698              1.493
 Vibration     6          0.747              1.519              1.052
 Vibration     7          0.784              1.424              0.887
 Vibration     8          0.858              1.244              0.651
 Vibration     9          0.914              1.121              0.527

 Optimization completed.
    -- Stationary point found.
 Normal termination of Gaussian 09 at Tue Jan 28 04:39:13 2020.
