 Gaussian 09, Revision D.01,
 Gaussian 09:  ES64L-G09RevD.01 24-Apr-2013

 -----------------------------
 # b3lyp 6-31G(2df,p) opt Freq
 -----------------------------

 -----
 titel
 -----
 Symbolic Z-matrix:
 Charge =  0 Multiplicity = 1

 SCF Done:  E(RB3LYP) =  -423.177589267     A.U. after   12 cycles
 Optimization completed.
    -- Stationary point found.
 Normal termination of Gaussian 09 at Mon Jan 27 18:57:42 2020.

 ----------------------------------------------------------------------
 #N Geom=AllCheck Guess=TCheck SCRF=Check GenChk RB3LYP/6-31G(2df,p) Fr
 eq
 ----------------------------------------------------------------------

 Structure from the checkpoint file:  "/scratch/puck/g09_0f8e01b6-ba60-4d19-93aa-9ccaf1e0080e/Gau-90912.chk"
 -----
 titel
 -----
 Charge =  0 Multiplicity = 1

                         Standard orientation:
 ---------------------------------------------------------------------
 Center     Atomic      Atomic             Coordinates (Angstroms)
 Number     Number       Type             X           Y           Z
 ---------------------------------------------------------------------
      1          6           0        2.203549   -0.701928   -0.011308
      2          6           0        0.724126   -0.384472    0.065241
      3          6           0       -0.193915   -1.597303    0.276844
      4          8           0       -1.453712   -1.201747   -0.289687
      5          6           0       -1.354858    0.190788   -0.418647
      6          8           0       -1.160773    0.769053    0.884988
      7          6           0        0.276752    0.879922    0.894355
      8          6           0        0.530427    1.748572   -0.356732
      9          6           0        0.027331    0.467276   -1.060879
     10          1           0        2.544239   -1.176661    0.916273
     11          1           0        2.410800   -1.397117   -0.832299
     12          1           0        2.817973    0.189460   -0.164437
     13          1           0        0.164641   -2.488950   -0.250151
     14          1           0       -0.315495   -1.842695    1.339524
     15          1           0       -2.264525    0.570749   -0.881405
     16          1           0        0.631924    1.110887    1.898358
     17          1           0       -0.068373    2.657943   -0.438345
     18          1           0        1.581553    1.960293   -0.558224
     19          1           0        0.132669    0.260505   -2.124936
 ---------------------------------------------------------------------

 SCF Done:  E(RB3LYP) =  -423.177589267     A.U. after    1 cycles

 The electronic state is 1-A.
 Alpha  occ. eigenvalues --  -19.13746 -19.13587 -10.27107 -10.23812 -10.22479
 Alpha  occ. eigenvalues --  -10.20376 -10.19526 -10.18848 -10.18739  -1.07959
 Alpha  occ. eigenvalues --   -1.00130  -0.84816  -0.75251  -0.71056  -0.68071
 Alpha  occ. eigenvalues --   -0.62588  -0.57134  -0.54636  -0.51586  -0.49500
 Alpha  occ. eigenvalues --   -0.47417  -0.44503  -0.43210  -0.41276  -0.40592
 Alpha  occ. eigenvalues --   -0.38623  -0.37140  -0.35557  -0.34391  -0.33205
 Alpha  occ. eigenvalues --   -0.31712  -0.30388  -0.26069  -0.24123
 Alpha virt. eigenvalues --    0.08404   0.10370   0.11473   0.11995   0.12719
 Alpha virt. eigenvalues --    0.13929   0.14880   0.14896   0.15840   0.16655
 Alpha virt. eigenvalues --    0.17493   0.18558   0.19054   0.20918   0.21537

 Mulliken charges:
               1
     1  C   -0.501751
     2  C    0.296500
     3  C   -0.146875
     4  O   -0.252353
     5  C    0.207027
     6  O   -0.285081
     7  C    0.048297
     8  C   -0.256816
     9  C   -0.140407
    10  H    0.124011
    11  H    0.123812
    12  H    0.122821
    13  H    0.101580
    14  H    0.107040
    15  H    0.090363
    16  H    0.077835
    17  H    0.103759
    18  H    0.104843
    19  H    0.075395
 Sum of Mulliken charges =   0.00000

 Dipole moment (field-independent basis, Debye):
    X=              2.4820    Y=              0.3570    Z=             -0.6887  Tot=              2.6004
 Quadrupole moment (field-independent basis, Debye-Ang):
   XX=            -55.0113   YY=            -53.1511   ZZ=            -52.5420
   XY=             -1.8594   XZ=              2.3973   YZ=             -1.6239

  Exact polarizability:  75.591  -1.853  77.475   2.471  -1.648  66.544
 Approx polarizability: 109.320  -1.271 110.429   3.169  -0.109 105.056

                      1                      2                      3
                      A                      A                      A
 Frequencies --    210.7327               224.9468               287.4885
 Red. masses --      1.0456                 2.3169                 3.0807
 Frc consts  --      0.0274                 0.0691                 0.1500
 IR Inten    --      0.1884                 1.1492                 2.3607

                      4                      5                      6
                      A                      A                      A
 Frequencies --    323.6345               405.9077               442.1726
 Red. masses --      2.5148                 2.8543                 2.4396
 Frc consts  --      0.1552                 0.2771                 0.2810
 IR Inten    --      0.2825                 0.2176                 1.0589

                      7                      8                      9
                      A                      A                      A
 Frequencies --    540.2975               570.9005               627.1064
 Red. masses --      4.3226                 4.3180                 5.0901
 Frc consts  --      0.7435                 0.8292                 1.1794
 IR Inten    --      5.5542                 1.8079                 3.4233

                     10                     11                     12
                      A                      A                      A
 Frequencies --    701.3919               747.7487               835.1856
 Red. masses --      3.8185                 3.9122                 3.0053
 Frc consts  --      1.1068                 1.2888                 1.2351
 IR Inten    --      2.8208                 2.9042                 2.2397

                     13                     14                     15
                      A                      A                      A
 Frequencies --    865.8368               881.3579               921.0873
 Red. masses --      3.0022                 2.2040                 2.2727
 Frc consts  --      1.3261                 1.0087                 1.1360
 IR Inten    --     18.5027                24.1586                17.8394

                     16                     17                     18
                      A                      A                      A
 Frequencies --    928.5175               954.6530               957.7109
 Red. masses --      2.0652                 2.8644                 2.1489
 Frc consts  --      1.0491                 1.5381                 1.1613
 IR Inten    --      8.4870                12.0847                77.9855

                     19                     20                     21
                      A                      A                      A
 Frequencies --    977.5862              1004.4986              1012.1294
 Red. masses --      2.5640                 1.6076                 2.1023
 Frc consts  --      1.4437                 0.9557                 1.2689
 IR Inten    --      4.2641                 2.3965                 4.8844

                     22                     23                     24
                      A                      A                      A
 Frequencies --   1052.5575              1082.9293              1107.5139
 Red. masses --      2.1626                 4.8374                 1.5576
 Frc consts  --      1.4116                 3.3424                 1.1257
 IR Inten    --     36.7131                75.4209                 0.1249

                     25                     26                     27
                      A                      A                      A
 Frequencies --   1122.8648              1168.5494              1180.9601
 Red. masses --      1.6445                 1.7859                 1.9062
 Frc consts  --      1.2217                 1.4368                 1.5663
 IR Inten    --     15.9925                 2.8370                 4.9352

                     28                     29                     30
                      A                      A                      A
 Frequencies --   1219.3650              1237.4910              1243.7108
 Red. masses --      1.5190                 1.5108                 1.5141
 Frc consts  --      1.3307                 1.3631                 1.3798
 IR Inten    --      4.2256                 3.7184                 6.0904

                     31                     32                     33
                      A                      A                      A
 Frequencies --   1248.9014              1283.7941              1285.7851
 Red. masses --      1.9216                 1.6909                 2.0819
 Frc consts  --      1.7659                 1.6419                 2.0279
 IR Inten    --      5.8656                 3.9729                 2.7509

                     34                     35                     36
                      A                      A                      A
 Frequencies --   1317.3893              1351.9289              1394.8409
 Red. masses --      1.5608                 1.4012                 1.5570
 Frc consts  --      1.5960                 1.5089                 1.7848
 IR Inten    --     13.0101                 8.3845                 9.7528

                     37                     38                     39
                      A                      A                      A
 Frequencies --   1418.7153              1488.0355              1494.6396
 Red. masses --      1.2516                 1.1040                 1.0480
 Frc consts  --      1.4842                 1.4403                 1.3794
 IR Inten    --      2.5921                 0.4736                 5.1045

                     40                     41                     42
                      A                      A                      A
 Frequencies --   1505.2529              1514.3555              3018.6150
 Red. masses --      1.0726                 1.0893                 1.0565
 Frc consts  --      1.4319                 1.4718                 5.6718
 IR Inten    --      6.1827                 1.2508                45.1190

                     43                     44                     45
                      A                      A                      A
 Frequencies --   3029.5361              3061.3015              3075.6970
 Red. masses --      1.0380                 1.1077                 1.0576
 Frc consts  --      5.6133                 6.1162                 5.8948
 IR Inten    --     37.8756                30.3417                22.9994

                     46                     47                     48
                      A                      A                      A
 Frequencies --   3087.6561              3107.6056              3126.0669
 Red. masses --      1.1003                 1.0994                 1.0902
 Frc consts  --      6.1802                 6.2553                 6.2772
 IR Inten    --     20.6372                27.2357                57.0039

                     49                     50                     51
                      A                      A                      A
 Frequencies --   3128.6959              3137.6292              3140.8682
 Red. masses --      1.0909                 1.1074                 1.0931
 Frc consts  --      6.2915                 6.4234                 6.3536
 IR Inten    --      7.2450                36.0678                25.4818

 - Thermochemistry -
 -------------------
 Temperature   298.150 Kelvin.  Pressure   1.00000 Atm.
 Atom     1 has atomic number  6 and mass  12.00000

 Molecular mass:   126.06808 amu.
 Principal axes and moments of inertia in atomic units:
                           1         2         3
     Eigenvalues --   713.17917 819.942501144.81747
           X            0.99402  -0.10854   0.01233
           Y            0.10889   0.99351  -0.03297
           Z           -0.00867   0.03411   0.99938
 This molecule is an asymmetric top.
 Rotational symmetry number  1.
 Warning -- assumption of classical behavior for rotation
           may cause significant error
 Rotational temperatures (Kelvin)      0.12145     0.10563     0.07566
 Rotational constants (GHZ):           2.53056     2.20106     1.57644
 Zero-point vibrational energy     424998.2 (Joules/Mol)
                                  101.57700 (Kcal/Mol)
 Warning -- explicit consideration of   8 degrees of freedom as
           vibrations may cause significant error
 Vibrational temperatures:    303.20   323.65   413.63   465.64   584.01
          (Kelvin)            636.19   777.37   821.40   902.27  1009.15
                             1075.84  1201.64  1245.74  1268.08  1325.24
                             1335.93  1373.53  1377.93  1406.53  1445.25
                             1456.23  1514.39  1558.09  1593.46  1615.55
                             1681.28  1699.14  1754.39  1780.47  1789.42
                             1796.89  1847.09  1849.96  1895.43  1945.12
                             2006.86  2041.21  2140.95  2150.45  2165.72
                             2178.82  4343.11  4358.82  4404.52  4425.24
                             4442.44  4471.15  4497.71  4501.49  4514.34
                             4519.00

 Zero-point correction=                           0.161873 (Hartree/Particle)
 Thermal correction to Energy=                    0.168661
 Thermal correction to Enthalpy=                  0.169605
 Thermal correction to Gibbs Free Energy=         0.131184
 Sum of electronic and zero-point Energies=           -423.015716
 Sum of electronic and thermal Energies=              -423.008929
 Sum of electronic and thermal Enthalpies=            -423.007984
 Sum of electronic and thermal Free Energies=         -423.046405

                     E (Thermal)             CV                S
                      KCal/Mol        Cal/Mol-Kelvin    Cal/Mol-Kelvin
 Total                  105.836             28.551             80.864
 Electronic               0.000              0.000              0.000
 Translational            0.889              2.981             40.409
 Rotational               0.889              2.981             27.995
 Vibrational            104.059             22.590             12.460
 Vibration     1          0.643              1.824              2.037
 Vibration     2          0.650              1.803              1.919
 Vibration     3          0.685              1.697              1.489
 Vibration     4          0.708              1.628              1.292
 Vibration     5          0.771              1.457              0.941
 Vibration     6          0.802              1.378              0.820
 Vibration     7          0.895              1.161              0.565
 Vibration     8          0.927              1.094              0.503

 Normal termination of Gaussian 09 at Mon Jan 27 19:40:40 2020.
