 Gaussian 09, Revision D.01,
 Gaussian 09:  ES64L-G09RevD.01 24-Apr-2013

 -----------------------------
 # b3lyp 6-31G(2df,p) opt Freq
 -----------------------------

 -----
 titel
 -----
 Symbolic Z-matrix:
 Charge =  0 Multiplicity = 1

 SCF Done:  E(RB3LYP) =  -423.151793438     A.U. after   14 cycles
 Optimization completed.
    -- Stationary point found.
 Normal termination of Gaussian 09 at Tue Jan 28 04:06:24 2020.

 ----------------------------------------------------------------------
 #N Geom=AllCheck Guess=TCheck SCRF=Check GenChk RB3LYP/6-31G(2df,p) Fr
 eq
 ----------------------------------------------------------------------

 Structure from the checkpoint file:  "/scratch/puck/g09_eb2de785-89e6-4c5c-9850-032295d1d473/Gau-68436.chk"
 -----
 titel
 -----
 Charge =  0 Multiplicity = 1

                         Standard orientation:
 ---------------------------------------------------------------------
 Center     Atomic      Atomic             Coordinates (Angstroms)
 Number     Number       Type             X           Y           Z
 ---------------------------------------------------------------------
      1          8           0        1.773181   -0.982619   -1.117127
      2          6           0        1.989004   -0.093039   -0.026637
      3          6           0        1.403607    1.301018   -0.268379
      4          8           0        0.018768    1.216906    0.028628
      5          6           0       -0.251277    0.069963    0.842216
      6          6           0       -1.217155   -0.874232    0.096797
      7          6           0       -2.506848   -0.263081   -0.194265
      8          6           0       -3.575203    0.240761   -0.416110
      9          6           0        1.119284   -0.576329    1.135771
     10          1           0        2.154483   -0.590152   -1.908925
     11          1           0        3.055577   -0.048604    0.233148
     12          1           0        1.899869    2.038669    0.383179
     13          1           0        1.523091    1.635216   -1.306478
     14          1           0       -0.736331    0.412900    1.764012
     15          1           0       -0.724382   -1.199028   -0.825618
     16          1           0       -1.369069   -1.770844    0.712413
     17          1           0       -4.515602    0.687939   -0.621864
     18          1           0        1.524591   -0.204233    2.080792
     19          1           0        1.083717   -1.666524    1.180982
 ---------------------------------------------------------------------

 SCF Done:  E(RB3LYP) =  -423.151793438     A.U. after    1 cycles

 The electronic state is 1-A.
 Alpha  occ. eigenvalues --  -19.14658 -19.13429 -10.24152 -10.23597 -10.23011
 Alpha  occ. eigenvalues --  -10.19553 -10.18929 -10.16934 -10.15791  -1.04265
 Alpha  occ. eigenvalues --   -1.01792  -0.79625  -0.77337  -0.72773  -0.67858
 Alpha  occ. eigenvalues --   -0.60210  -0.58509  -0.53267  -0.50796  -0.50577
 Alpha  occ. eigenvalues --   -0.46997  -0.45317  -0.44934  -0.41497  -0.40321
 Alpha  occ. eigenvalues --   -0.38765  -0.36904  -0.36056  -0.34145  -0.31613
 Alpha  occ. eigenvalues --   -0.27932  -0.26243  -0.25087  -0.24019
 Alpha virt. eigenvalues --    0.05918   0.06330   0.07514   0.10182   0.11872
 Alpha virt. eigenvalues --    0.13027   0.13480   0.14167   0.15329   0.15960
 Alpha virt. eigenvalues --    0.16606   0.17144   0.19175   0.21019   0.21957

 Mulliken charges:
               1
     1  O   -0.430198
     2  C    0.107604
     3  C   -0.086737
     4  O   -0.265266
     5  C    0.136397
     6  C   -0.366971
     7  C    0.310831
     8  C   -0.447505
     9  C   -0.267441
    10  H    0.285243
    11  H    0.069845
    12  H    0.090520
    13  H    0.097184
    14  H    0.083676
    15  H    0.147100
    16  H    0.120208
    17  H    0.189699
    18  H    0.106262
    19  H    0.119550
 Sum of Mulliken charges =   0.00000

 Dipole moment (field-independent basis, Debye):
    X=              2.5159    Y=              0.0388    Z=              0.2614  Tot=              2.5298
 Quadrupole moment (field-independent basis, Debye-Ang):
   XX=            -48.3777   YY=            -55.7079   ZZ=            -49.3071
   XY=              1.7713   XZ=             -1.7219   YZ=             -1.8190

  Exact polarizability:  99.009  -3.774  66.937   3.295  -2.943  66.203
 Approx polarizability: 133.497 -13.004 101.488   6.153  -4.756  97.847

                      1                      2                      3
                      A                      A                      A
 Frequencies --     60.8833                81.5220               116.2825
 Red. masses --      4.7409                 3.2319                 3.7962
 Frc consts  --      0.0104                 0.0127                 0.0302
 IR Inten    --      2.0292                 2.4347                 0.2846

                      4                      5                      6
                      A                      A                      A
 Frequencies --    167.3597               293.8638               319.4801
 Red. masses --      3.9949                 1.1826                 3.3410
 Frc consts  --      0.0659                 0.0602                 0.2009
 IR Inten    --      0.5445                97.0849                16.6130

                      7                      8                      9
                      A                      A                      A
 Frequencies --    345.0456               379.8377               393.0211
 Red. masses --      3.9655                 2.7389                 2.0676
 Frc consts  --      0.2782                 0.2328                 0.1882
 IR Inten    --      3.2236                 1.4131                 1.6388

                     10                     11                     12
                      A                      A                      A
 Frequencies --    409.0660               515.6095               608.9705
 Red. masses --      2.6122                 4.0690                 1.2022
 Frc consts  --      0.2575                 0.6374                 0.2627
 IR Inten    --      6.1532                 7.6596                42.8651

                     13                     14                     15
                      A                      A                      A
 Frequencies --    631.1270               729.0196               794.0544
 Red. masses --      1.2214                 5.0355                 4.3784
 Frc consts  --      0.2866                 1.5768                 1.6265
 IR Inten    --     43.0711                 5.6309                 8.1831

                     16                     17                     18
                      A                      A                      A
 Frequencies --    818.8690               855.9982               865.8032
 Red. masses --      3.0815                 2.1245                 2.6715
 Frc consts  --      1.2174                 0.9172                 1.1799
 IR Inten    --     12.9404                 7.9113                13.3760

                     19                     20                     21
                      A                      A                      A
 Frequencies --    941.7364               981.7853               991.5179
 Red. masses --      3.1192                 2.3725                 2.5011
 Frc consts  --      1.6299                 1.3474                 1.4487
 IR Inten    --      6.7206                21.4400                12.8393

                     22                     23                     24
                      A                      A                      A
 Frequencies --    998.3568              1005.3147              1060.0682
 Red. masses --      2.4187                 2.0702                 1.7537
 Frc consts  --      1.4204                 1.2327                 1.1611
 IR Inten    --     15.3812                 3.5999                 7.3863

                     25                     26                     27
                      A                      A                      A
 Frequencies --   1108.9165              1140.2898              1187.5423
 Red. masses --      3.7238                 2.9043                 1.1640
 Frc consts  --      2.6979                 2.2250                 0.9672
 IR Inten    --     79.0862                92.8867                24.6823

                     28                     29                     30
                      A                      A                      A
 Frequencies --   1200.2903              1235.5197              1260.8461
 Red. masses --      1.2840                 1.2219                 1.2400
 Frc consts  --      1.0899                 1.0990                 1.1614
 IR Inten    --     11.9008                13.1032                 1.3330

                     31                     32                     33
                      A                      A                      A
 Frequencies --   1289.8478              1326.8370              1336.8273
 Red. masses --      1.3233                 1.4250                 1.3300
 Frc consts  --      1.2972                 1.4780                 1.4004
 IR Inten    --     18.1930                 3.8727                11.9927

                     34                     35                     36
                      A                      A                      A
 Frequencies --   1355.5187              1389.2053              1394.9139
 Red. masses --      1.5368                 1.3508                 1.2782
 Frc consts  --      1.6637                 1.5360                 1.4653
 IR Inten    --     24.3116                19.1544                 5.5159

                     37                     38                     39
                      A                      A                      A
 Frequencies --   1419.4797              1466.9849              1481.2272
 Red. masses --      1.4770                 1.0987                 1.1000
 Frc consts  --      1.7534                 1.3931                 1.4219
 IR Inten    --      6.0900                 2.3930                 6.6237

                     40                     41                     42
                      A                      A                      A
 Frequencies --   1514.3377              2240.0022              2970.4913
 Red. masses --      1.0942                 5.9377                 1.0691
 Frc consts  --      1.4784                17.5534                 5.5581
 IR Inten    --      0.6110                 4.1330                59.3287

                     43                     44                     45
                      A                      A                      A
 Frequencies --   3011.3297              3022.7811              3027.3150
 Red. masses --      1.0845                 1.0658                 1.0842
 Frc consts  --      5.7945                 5.7378                 5.8544
 IR Inten    --     80.7964                14.8082                36.0965

                     46                     47                     48
                      A                      A                      A
 Frequencies --   3045.5530              3070.7911              3084.0265
 Red. masses --      1.0944                 1.0640                 1.0945
 Frc consts  --      5.9807                 5.9114                 6.1332
 IR Inten    --     38.6299                26.9600                 9.5967

                     49                     50                     51
                      A                      A                      A
 Frequencies --   3124.2592              3508.6785              3819.1883
 Red. masses --      1.1035                 1.1619                 1.0662
 Frc consts  --      6.3462                 8.4275                 9.1627
 IR Inten    --     12.1688                64.6199                20.6290

 - Thermochemistry -
 -------------------
 Temperature   298.150 Kelvin.  Pressure   1.00000 Atm.
 Atom     1 has atomic number  8 and mass  15.99491

 Molecular mass:   126.06808 amu.
 Principal axes and moments of inertia in atomic units:
                           1         2         3
     Eigenvalues --   546.892051764.384851859.22911
           X            0.99997   0.00803   0.00188
           Y           -0.00781   0.99519  -0.09762
           Z           -0.00266   0.09760   0.99522
 This molecule is an asymmetric top.
 Rotational symmetry number  1.
 Warning -- assumption of classical behavior for rotation
           may cause significant error
 Rotational temperatures (Kelvin)      0.15837     0.04909     0.04659
 Rotational constants (GHZ):           3.30000     1.02287     0.97069
 Zero-point vibrational energy     415089.8 (Joules/Mol)
                                   99.20884 (Kcal/Mol)
 Warning -- explicit consideration of  12 degrees of freedom as
           vibrations may cause significant error
 Vibrational temperatures:     87.60   117.29   167.30   240.79   422.80
          (Kelvin)            459.66   496.44   546.50   565.47   588.55
                              741.85   876.17   908.05  1048.90  1142.47
                             1178.17  1231.59  1245.70  1354.95  1412.57
                             1426.57  1436.41  1446.42  1525.20  1595.48
                             1640.62  1708.61  1726.95  1777.63  1814.07
                             1855.80  1909.02  1923.39  1950.29  1998.75
                             2006.97  2042.31  2110.66  2131.15  2178.79
                             3222.86  4273.87  4332.63  4349.10  4355.63
                             4381.87  4418.18  4437.22  4495.11  5048.20
                             5494.95

 Zero-point correction=                           0.158099 (Hartree/Particle)
 Thermal correction to Energy=                    0.167273
 Thermal correction to Enthalpy=                  0.168217
 Thermal correction to Gibbs Free Energy=         0.123701
 Sum of electronic and zero-point Energies=           -422.993694
 Sum of electronic and thermal Energies=              -422.984521
 Sum of electronic and thermal Enthalpies=            -422.983576
 Sum of electronic and thermal Free Energies=         -423.028092

                     E (Thermal)             CV                S
                      KCal/Mol        Cal/Mol-Kelvin    Cal/Mol-Kelvin
 Total                  104.965             34.117             93.691
 Electronic               0.000              0.000              0.000
 Translational            0.889              2.981             40.409
 Rotational               0.889              2.981             28.974
 Vibrational            103.188             28.155             24.308
 Vibration     1          0.597              1.973              4.428
 Vibration     2          0.600              1.962              3.854
 Vibration     3          0.608              1.936              3.161
 Vibration     4          0.624              1.883              2.465
 Vibration     5          0.689              1.685              1.452
 Vibration     6          0.705              1.636              1.313
 Vibration     7          0.723              1.585              1.189
 Vibration     8          0.750              1.513              1.040
 Vibration     9          0.760              1.485              0.989
 Vibration    10          0.773              1.451              0.930
 Vibration    11          0.871              1.215              0.620
 Vibration    12          0.968              1.013              0.434

 Optimization completed.
    -- Stationary point found.
 Normal termination of Gaussian 09 at Tue Jan 28 04:58:09 2020.
