 Gaussian 09, Revision D.01,
 Gaussian 09:  ES64L-G09RevD.01 24-Apr-2013

 -----------------------------
 # b3lyp 6-31G(2df,p) opt Freq
 -----------------------------

 -----
 titel
 -----
 Symbolic Z-matrix:
 Charge =  0 Multiplicity = 1

 SCF Done:  E(RB3LYP) =  -423.161843703     A.U. after   14 cycles
 Optimization completed.
    -- Stationary point found.
 Normal termination of Gaussian 09 at Mon Jan 27 22:14:10 2020.

 ----------------------------------------------------------------------
 #N Geom=AllCheck Guess=TCheck SCRF=Check GenChk RB3LYP/6-31G(2df,p) Fr
 eq
 ----------------------------------------------------------------------

 Structure from the checkpoint file:  "/scratch/puck/g09_353189ae-c7dd-45af-86fa-c8b258ca7913/Gau-28585.chk"
 -----
 titel
 -----
 Charge =  0 Multiplicity = 1

                         Standard orientation:
 ---------------------------------------------------------------------
 Center     Atomic      Atomic             Coordinates (Angstroms)
 Number     Number       Type             X           Y           Z
 ---------------------------------------------------------------------
      1          6           0        2.089061   -1.481965    0.166794
      2          6           0        0.708373   -1.158065   -0.357779
      3          6           0       -0.356749   -0.734558    0.611185
      4          6           0       -1.677097   -0.496944   -0.122815
      5          6           0       -2.745102    0.252074    0.645667
      6          8           0       -1.017122    0.371305   -1.101168
      7          6           0        0.214011    0.279821   -0.383666
      8          6           0        0.998000    1.508469   -0.189894
      9          8           0        1.976281    1.613145    0.514629
     10          1           0        2.119277   -2.510783    0.541393
     11          1           0        2.836440   -1.389746   -0.626955
     12          1           0        2.378697   -0.802628    0.970072
     13          1           0        0.383513   -1.735872   -1.222002
     14          1           0       -0.217098   -0.754228    1.684820
     15          1           0       -2.095909   -1.380719   -0.620306
     16          1           0       -3.199897   -0.401258    1.398377
     17          1           0       -2.321631    1.125458    1.150422
     18          1           0       -3.530575    0.591798   -0.035518
     19          1           0        0.590928    2.369394   -0.764945
 ---------------------------------------------------------------------

 SCF Done:  E(RB3LYP) =  -423.161843703     A.U. after    1 cycles

 The electronic state is 1-A.
 Alpha  occ. eigenvalues --  -19.14872 -19.13652 -10.27171 -10.25192 -10.25166
 Alpha  occ. eigenvalues --  -10.21325 -10.21230 -10.18765 -10.18280  -1.06532
 Alpha  occ. eigenvalues --   -1.04112  -0.85374  -0.77090  -0.71841  -0.69088
 Alpha  occ. eigenvalues --   -0.61612  -0.58007  -0.53375  -0.51596  -0.49127
 Alpha  occ. eigenvalues --   -0.47445  -0.44135  -0.42623  -0.41443  -0.40710
 Alpha  occ. eigenvalues --   -0.39745  -0.38482  -0.38241  -0.37159  -0.35055
 Alpha  occ. eigenvalues --   -0.32098  -0.29118  -0.25655  -0.23930
 Alpha virt. eigenvalues --   -0.03338   0.07688   0.10207   0.11093   0.11818
 Alpha virt. eigenvalues --    0.13035   0.13725   0.14052   0.15812   0.16293
 Alpha virt. eigenvalues --    0.16827   0.17436   0.18175   0.19753   0.22559

 Mulliken charges:
               1
     1  C   -0.430314
     2  C   -0.079264
     3  C   -0.175430
     4  C    0.119307
     5  C   -0.402163
     6  O   -0.334228
     7  C    0.341116
     8  C    0.062961
     9  O   -0.272370
    10  H    0.119342
    11  H    0.128362
    12  H    0.151677
    13  H    0.099815
    14  H    0.115311
    15  H    0.086698
    16  H    0.120247
    17  H    0.125893
    18  H    0.132812
    19  H    0.090227
 Sum of Mulliken charges =   0.00000

 Dipole moment (field-independent basis, Debye):
    X=             -1.8275    Y=             -1.9278    Z=              0.3733  Tot=              2.6825
 Quadrupole moment (field-independent basis, Debye-Ang):
   XX=            -55.1470   YY=            -53.3766   ZZ=            -54.1998
   XY=             -3.0476   XZ=             -4.0383   YZ=             -0.9955

  Exact polarizability:  91.233   0.802  79.834   0.808  -1.520  63.164
 Approx polarizability: 122.904   8.221 118.443   6.236  -3.730 102.796

                      1                      2                      3
                      A                      A                      A
 Frequencies --     98.2167               146.1937               176.9298
 Red. masses --      4.6647                 2.1945                 1.7181
 Frc consts  --      0.0265                 0.0276                 0.0317
 IR Inten    --      3.5420                 4.6603                 1.9729

                      4                      5                      6
                      A                      A                      A
 Frequencies --    189.7555               214.1908               226.3539
 Red. masses --      2.4256                 1.7647                 1.3157
 Frc consts  --      0.0515                 0.0477                 0.0397
 IR Inten    --      3.3022                 4.4720                 0.6555

                      7                      8                      9
                      A                      A                      A
 Frequencies --    267.2985               343.9272               362.9500
 Red. masses --      1.8702                 2.6892                 3.2557
 Frc consts  --      0.0787                 0.1874                 0.2527
 IR Inten    --      1.1554                 3.4567                 0.9337

                     10                     11                     12
                      A                      A                      A
 Frequencies --    437.6069               467.2364               554.9718
 Red. masses --      5.2867                 3.3799                 4.9042
 Frc consts  --      0.5965                 0.4347                 0.8899
 IR Inten    --      1.6343                 0.8511                 5.9148

                     13                     14                     15
                      A                      A                      A
 Frequencies --    724.2716               756.8344               782.1039
 Red. masses --      3.3090                 3.5043                 2.9343
 Frc consts  --      1.0227                 1.1826                 1.0575
 IR Inten    --     17.6035                 7.6002                10.5388

                     16                     17                     18
                      A                      A                      A
 Frequencies --    873.9424               908.6795               927.0748
 Red. masses --      3.2152                 2.2538                 1.8572
 Frc consts  --      1.4468                 1.0964                 0.9404
 IR Inten    --     42.6190                 0.9038                 7.8734

                     19                     20                     21
                      A                      A                      A
 Frequencies --    957.5125              1009.5044              1042.0669
 Red. masses --      1.3949                 1.3924                 2.3422
 Frc consts  --      0.7535                 0.8361                 1.4985
 IR Inten    --     17.7726                 2.0170                20.0623

                     22                     23                     24
                      A                      A                      A
 Frequencies --   1058.2530              1064.6009              1096.9440
 Red. masses --      1.8783                 2.8473                 1.6289
 Frc consts  --      1.2394                 1.9013                 1.1548
 IR Inten    --      6.2879                93.8225                 3.3452

                     25                     26                     27
                      A                      A                      A
 Frequencies --   1109.5474              1129.5734              1163.6706
 Red. masses --      2.2753                 1.7312                 2.4785
 Frc consts  --      1.6503                 1.3014                 1.9774
 IR Inten    --      2.0796                20.3311                16.3029

                     28                     29                     30
                      A                      A                      A
 Frequencies --   1175.4790              1243.5125              1297.0178
 Red. masses --      1.7684                 1.5111                 1.5287
 Frc consts  --      1.4397                 1.3767                 1.5152
 IR Inten    --     21.3994                 5.7601                13.7239

                     31                     32                     33
                      A                      A                      A
 Frequencies --   1334.8705              1381.9977              1408.6529
 Red. masses --      1.7349                 1.4200                 1.3398
 Frc consts  --      1.8214                 1.5979                 1.5663
 IR Inten    --     12.5129                26.6451                14.0737

                     34                     35                     36
                      A                      A                      A
 Frequencies --   1412.7784              1418.7798              1423.6617
 Red. masses --      2.0861                 1.4077                 1.5374
 Frc consts  --      2.4532                 1.6695                 1.8359
 IR Inten    --     24.4780                 5.4481                15.2020

                     37                     38                     39
                      A                      A                      A
 Frequencies --   1485.4105              1490.3419              1491.1447
 Red. masses --      1.0565                 1.0644                 1.0487
 Frc consts  --      1.3735                 1.3929                 1.3739
 IR Inten    --      2.2614                 6.1592                 4.6435

                     40                     41                     42
                      A                      A                      A
 Frequencies --   1504.1990              1797.3855              2893.1065
 Red. masses --      1.0742                10.0069                 1.0826
 Frc consts  --      1.4320                19.0472                 5.3388
 IR Inten    --      2.0253               162.0850               103.7908

                     43                     44                     45
                      A                      A                      A
 Frequencies --   3028.5559              3037.1892              3041.1531
 Red. masses --      1.0833                 1.0365                 1.0386
 Frc consts  --      5.8541                 5.6335                 5.6593
 IR Inten    --     41.0598                18.0398                28.7870

                     46                     47                     48
                      A                      A                      A
 Frequencies --   3101.8673              3109.5765              3114.5824
 Red. masses --      1.1006                 1.1005                 1.0883
 Frc consts  --      6.2390                 6.2694                 6.2199
 IR Inten    --     17.4552                18.0027                 9.5392

                     49                     50                     51
                      A                      A                      A
 Frequencies --   3121.1320              3144.8946              3197.3272
 Red. masses --      1.1026                 1.0981                 1.0933
 Frc consts  --      6.3286                 6.3991                 6.5849
 IR Inten    --     21.1740                 8.4195                 4.2600

 - Thermochemistry -
 -------------------
 Temperature   298.150 Kelvin.  Pressure   1.00000 Atm.
 Atom     1 has atomic number  6 and mass  12.00000

 Molecular mass:   126.06808 amu.
 Principal axes and moments of inertia in atomic units:
                           1         2         3
     Eigenvalues --   690.477761340.559821691.76589
           X            0.99812  -0.05840  -0.01887
           Y            0.05830   0.99828  -0.00552
           Z            0.01916   0.00441   0.99981
 This molecule is an asymmetric top.
 Rotational symmetry number  1.
 Warning -- assumption of classical behavior for rotation
           may cause significant error
 Rotational temperatures (Kelvin)      0.12544     0.06461     0.05120
 Rotational constants (GHZ):           2.61376     1.34626     1.06678
 Zero-point vibrational energy     411185.4 (Joules/Mol)
                                   98.27566 (Kcal/Mol)
 Warning -- explicit consideration of  12 degrees of freedom as
           vibrations may cause significant error
 Vibrational temperatures:    141.31   210.34   254.56   273.02   308.17
          (Kelvin)            325.67   384.58   494.83   522.20   629.62
                              672.25   798.48  1042.06  1088.91  1125.27
                             1257.41  1307.39  1333.85  1377.65  1452.45
                             1499.30  1522.59  1531.72  1578.26  1596.39
                             1625.20  1674.26  1691.25  1789.13  1866.12
                             1920.58  1988.38  2026.73  2032.67  2041.31
                             2048.33  2137.17  2144.27  2145.42  2164.20
                             2586.03  4162.53  4357.41  4369.83  4375.54
                             4462.89  4473.98  4481.18  4490.61  4524.80
                             4600.23

 Zero-point correction=                           0.156612 (Hartree/Particle)
 Thermal correction to Energy=                    0.165765
 Thermal correction to Enthalpy=                  0.166709
 Thermal correction to Gibbs Free Energy=         0.122960
 Sum of electronic and zero-point Energies=           -423.005231
 Sum of electronic and thermal Energies=              -422.996079
 Sum of electronic and thermal Enthalpies=            -422.995135
 Sum of electronic and thermal Free Energies=         -423.038884

                     E (Thermal)             CV                S
                      KCal/Mol        Cal/Mol-Kelvin    Cal/Mol-Kelvin
 Total                  104.019             33.875             92.079
 Electronic               0.000              0.000              0.000
 Translational            0.889              2.981             40.409
 Rotational               0.889              2.981             28.839
 Vibrational            102.242             27.914             22.831
 Vibration     1          0.604              1.950              3.489
 Vibration     2          0.617              1.907              2.721
 Vibration     3          0.628              1.871              2.361
 Vibration     4          0.633              1.854              2.230
 Vibration     5          0.644              1.819              2.008
 Vibration     6          0.650              1.801              1.908
 Vibration     7          0.672              1.733              1.614
 Vibration     8          0.723              1.588              1.194
 Vibration     9          0.737              1.549              1.109
 Vibration    10          0.798              1.388              0.834
 Vibration    11          0.825              1.323              0.745
 Vibration    12          0.910              1.129              0.534

 Optimization completed.
    -- Stationary point found.
 Normal termination of Gaussian 09 at Tue Jan 28 00:26:47 2020.
