 Gaussian 09, Revision D.01,
 Gaussian 09:  ES64L-G09RevD.01 24-Apr-2013

 -----------------------------
 # b3lyp 6-31G(2df,p) opt Freq
 -----------------------------

 -----
 titel
 -----
 Symbolic Z-matrix:
 Charge =  0 Multiplicity = 1

 SCF Done:  E(RB3LYP) =  -423.148627449     A.U. after   13 cycles
 Optimization completed.
    -- Stationary point found.
 Normal termination of Gaussian 09 at Mon Jan 27 12:22:29 2020.

 ----------------------------------------------------------------------
 #N Geom=AllCheck Guess=TCheck SCRF=Check GenChk RB3LYP/6-31G(2df,p) Fr
 eq
 ----------------------------------------------------------------------

 Structure from the checkpoint file:  "/scratch/puck/g09_46319c6a-4003-488c-aaa8-72569a693840/Gau-52466.chk"
 -----
 titel
 -----
 Charge =  0 Multiplicity = 1

                         Standard orientation:
 ---------------------------------------------------------------------
 Center     Atomic      Atomic             Coordinates (Angstroms)
 Number     Number       Type             X           Y           Z
 ---------------------------------------------------------------------
      1          6           0       -2.236123    0.661744    0.114661
      2          8           0       -2.135408   -0.777842   -0.066030
      3          6           0       -0.729795   -0.623688   -0.364514
      4          6           0        0.291689   -1.630270    0.125097
      5          8           0        1.570936   -1.176707   -0.300096
      6          6           0        2.080378    0.000367    0.330709
      7          6           0        1.574082    1.347932   -0.178568
      8          6           0        0.291388    1.718359   -0.147871
      9          6           0       -0.714613    0.732681    0.349617
     10          1           0       -2.571409    1.155629   -0.808779
     11          1           0       -2.902476    0.928293    0.939637
     12          1           0       -0.585483   -0.496691   -1.448102
     13          1           0        0.245710   -1.734306    1.221008
     14          1           0        0.153806   -2.619508   -0.322115
     15          1           0        1.904170   -0.065956    1.418499
     16          1           0        3.161509   -0.053334    0.177181
     17          1           0        2.330717    2.037127   -0.543679
     18          1           0       -0.018946    2.699029   -0.497839
     19          1           0       -0.543851    0.543360    1.418405
 ---------------------------------------------------------------------

 SCF Done:  E(RB3LYP) =  -423.148627449     A.U. after    1 cycles

 The electronic state is 1-A.
 Alpha  occ. eigenvalues --  -19.14382 -19.13574 -10.23658 -10.23583 -10.22923
 Alpha  occ. eigenvalues --  -10.22875 -10.19643 -10.19225 -10.18651  -1.04241
 Alpha  occ. eigenvalues --   -1.02796  -0.81041  -0.76548  -0.71732  -0.67063
 Alpha  occ. eigenvalues --   -0.63464  -0.57540  -0.54223  -0.50609  -0.49549
 Alpha  occ. eigenvalues --   -0.48395  -0.45645  -0.43991  -0.43141  -0.41285
 Alpha  occ. eigenvalues --   -0.39038  -0.38614  -0.35551  -0.33270  -0.31601
 Alpha  occ. eigenvalues --   -0.30917  -0.26763  -0.24797  -0.24633
 Alpha virt. eigenvalues --   -0.00313   0.07620   0.09288   0.09905   0.11801
 Alpha virt. eigenvalues --    0.12922   0.14564   0.15453   0.15924   0.17009
 Alpha virt. eigenvalues --    0.18114   0.18942   0.19812   0.20322   0.20664

 Mulliken charges:
               1
     1  C   -0.138006
     2  O   -0.303672
     3  C    0.177178
     4  C   -0.148969
     5  O   -0.244070
     6  C   -0.123033
     7  C   -0.066997
     8  C   -0.110477
     9  C   -0.044056
    10  H    0.101361
    11  H    0.110112
    12  H    0.078887
    13  H    0.090998
    14  H    0.115091
    15  H    0.100942
    16  H    0.113147
    17  H    0.095758
    18  H    0.096973
    19  H    0.098833
 Sum of Mulliken charges =   0.00000

 Dipole moment (field-independent basis, Debye):
    X=              0.5159    Y=              1.8350    Z=              0.8221  Tot=              2.0759
 Quadrupole moment (field-independent basis, Debye-Ang):
   XX=            -55.1121   YY=            -52.7014   ZZ=            -52.9566
   XY=             -1.6405   XZ=              0.8153   YZ=             -1.1735

  Exact polarizability:  92.462  -2.712  76.697  -1.214  -2.875  59.351
 Approx polarizability: 132.266  -5.401 108.945  -4.256  -2.193  94.329

                      1                      2                      3
                      A                      A                      A
 Frequencies --    132.0908               183.9447               247.3725
 Red. masses --      2.3764                 3.9860                 2.5476
 Frc consts  --      0.0244                 0.0795                 0.0919
 IR Inten    --      0.7760                 1.4327                 3.1579

                      4                      5                      6
                      A                      A                      A
 Frequencies --    306.1887               346.2504               360.9685
 Red. masses --      4.0449                 2.7247                 3.7001
 Frc consts  --      0.2234                 0.1925                 0.2841
 IR Inten    --      7.8683                 5.2580                 0.6139

                      7                      8                      9
                      A                      A                      A
 Frequencies --    455.4179               461.7265               515.6688
 Red. masses --      3.0486                 2.9099                 2.7752
 Frc consts  --      0.3725                 0.3655                 0.4348
 IR Inten    --      1.1661                 1.5874                 2.1196

                     10                     11                     12
                      A                      A                      A
 Frequencies --    652.2300               701.5121               748.7852
 Red. masses --      3.1405                 1.7057                 3.2695
 Frc consts  --      0.7871                 0.4946                 1.0801
 IR Inten    --      8.4788                15.5521                14.0471

                     13                     14                     15
                      A                      A                      A
 Frequencies --    852.3910               875.7290               945.3017
 Red. masses --      2.2440                 3.5285                 2.2361
 Frc consts  --      0.9606                 1.5943                 1.1773
 IR Inten    --     11.8734                19.4958                19.1302

                     16                     17                     18
                      A                      A                      A
 Frequencies --    955.8058               970.1348               981.0428
 Red. masses --      2.2094                 1.9514                 1.7370
 Frc consts  --      1.1892                 1.0821                 0.9850
 IR Inten    --      3.5282                14.1684                25.2498

                     19                     20                     21
                      A                      A                      A
 Frequencies --   1002.5536              1019.0644              1075.7536
 Red. masses --      2.2438                 4.4223                 3.3410
 Frc consts  --      1.3288                 2.7058                 2.2780
 IR Inten    --     24.5364                63.4167                15.2605

                     22                     23                     24
                      A                      A                      A
 Frequencies --   1106.6850              1128.5219              1148.2012
 Red. masses --      2.3156                 3.0077                 2.7060
 Frc consts  --      1.6709                 2.2569                 2.1019
 IR Inten    --     15.7406                55.9519                11.5898

                     25                     26                     27
                      A                      A                      A
 Frequencies --   1163.0474              1184.2781              1209.6452
 Red. masses --      1.5052                 1.6135                 1.3038
 Frc consts  --      1.1996                 1.3333                 1.1240
 IR Inten    --      5.7476                 2.9723                13.4055

                     28                     29                     30
                      A                      A                      A
 Frequencies --   1225.5517              1260.9186              1289.5085
 Red. masses --      1.2050                 1.2226                 1.2415
 Frc consts  --      1.0664                 1.1453                 1.2163
 IR Inten    --      1.6485                 5.1313                 1.0708

                     31                     32                     33
                      A                      A                      A
 Frequencies --   1314.2917              1320.0386              1345.2407
 Red. masses --      1.2844                 1.1730                 1.2590
 Frc consts  --      1.3072                 1.2042                 1.3424
 IR Inten    --     14.6486                 6.2634                 1.9769

                     34                     35                     36
                      A                      A                      A
 Frequencies --   1384.5262              1400.3528              1414.3619
 Red. masses --      1.4140                 1.2500                 1.6164
 Frc consts  --      1.5970                 1.4443                 1.9051
 IR Inten    --      1.2668                 8.9060                 0.2881

                     37                     38                     39
                      A                      A                      A
 Frequencies --   1426.4376              1479.5676              1499.9356
 Red. masses --      1.6254                 1.0821                 1.0931
 Frc consts  --      1.9485                 1.3957                 1.4489
 IR Inten    --      5.3657                 2.9228                 4.2006

                     40                     41                     42
                      A                      A                      A
 Frequencies --   1520.9013              1690.0043              2952.8831
 Red. masses --      1.1207                 6.9229                 1.0709
 Frc consts  --      1.5273                11.6496                 5.5018
 IR Inten    --      1.0556                 1.7743                38.0564

                     43                     44                     45
                      A                      A                      A
 Frequencies --   2979.1196              2991.7013              3000.6809
 Red. masses --      1.0698                 1.0793                 1.0697
 Frc consts  --      5.5940                 5.6916                 5.6751
 IR Inten    --     27.5785                34.2926                36.4839

                     46                     47                     48
                      A                      A                      A
 Frequencies --   3012.1992              3083.1064              3086.6324
 Red. masses --      1.0779                 1.0942                 1.0919
 Frc consts  --      5.7622                 6.1283                 6.1291
 IR Inten    --     69.0126                33.5507                36.3453

                     49                     50                     51
                      A                      A                      A
 Frequencies --   3088.2621              3154.6597              3177.2760
 Red. masses --      1.1012                 1.0839                 1.0979
 Frc consts  --      6.1882                 6.3556                 6.5304
 IR Inten    --     41.2996                 4.2997                28.1698

 - Thermochemistry -
 -------------------
 Temperature   298.150 Kelvin.  Pressure   1.00000 Atm.
 Atom     1 has atomic number  6 and mass  12.00000

 Molecular mass:   126.06808 amu.
 Principal axes and moments of inertia in atomic units:
                           1         2         3
     Eigenvalues --   636.485031144.401451661.53006
           X            0.99988  -0.01429   0.00598
           Y            0.01438   0.99976  -0.01632
           Z           -0.00574   0.01640   0.99985
 This molecule is an asymmetric top.
 Rotational symmetry number  1.
 Warning -- assumption of classical behavior for rotation
           may cause significant error
 Rotational temperatures (Kelvin)      0.13608     0.07568     0.05213
 Rotational constants (GHZ):           2.83548     1.57702     1.08619
 Zero-point vibrational energy     423648.3 (Joules/Mol)
                                  101.25438 (Kcal/Mol)
 Warning -- explicit consideration of   9 degrees of freedom as
           vibrations may cause significant error
 Vibrational temperatures:    190.05   264.66   355.91   440.54   498.18
          (Kelvin)            519.35   655.24   664.32   741.93   938.41
                             1009.32  1077.33  1226.40  1259.98  1360.08
                             1375.19  1395.81  1411.50  1442.45  1466.20
                             1547.77  1592.27  1623.69  1652.00  1673.36
                             1703.91  1740.41  1763.29  1814.18  1855.31
                             1890.97  1899.24  1935.50  1992.02  2014.79
                             2034.95  2052.32  2128.77  2158.07  2188.24
                             2431.54  4248.53  4286.28  4304.39  4317.31
                             4333.88  4435.90  4440.97  4443.31  4538.85
                             4571.39

 Zero-point correction=                           0.161359 (Hartree/Particle)
 Thermal correction to Energy=                    0.168765
 Thermal correction to Enthalpy=                  0.169709
 Thermal correction to Gibbs Free Energy=         0.129655
 Sum of electronic and zero-point Energies=           -422.987268
 Sum of electronic and thermal Energies=              -422.979862
 Sum of electronic and thermal Enthalpies=            -422.978918
 Sum of electronic and thermal Free Energies=         -423.018972

                     E (Thermal)             CV                S
                      KCal/Mol        Cal/Mol-Kelvin    Cal/Mol-Kelvin
 Total                  105.902             29.524             84.301
 Electronic               0.000              0.000              0.000
 Translational            0.889              2.981             40.409
 Rotational               0.889              2.981             28.583
 Vibrational            104.124             23.562             15.310
 Vibration     1          0.612              1.921              2.915
 Vibration     2          0.631              1.862              2.288
 Vibration     3          0.661              1.767              1.749
 Vibration     4          0.697              1.662              1.383
 Vibration     5          0.724              1.583              1.183
 Vibration     6          0.735              1.553              1.118
 Vibration     7          0.814              1.349              0.780
 Vibration     8          0.819              1.335              0.761
 Vibration     9          0.871              1.215              0.620

 Optimization completed.
    -- Stationary point found.
 Normal termination of Gaussian 09 at Mon Jan 27 13:10:06 2020.
