 Gaussian 09, Revision D.01,
 Gaussian 09:  ES64L-G09RevD.01 24-Apr-2013

 -----------------------------
 # b3lyp 6-31G(2df,p) opt Freq
 -----------------------------

 -----
 titel
 -----
 Symbolic Z-matrix:
 Charge =  0 Multiplicity = 1

 SCF Done:  E(RB3LYP) =  -423.168818647     A.U. after   14 cycles
 Optimization completed.
    -- Stationary point found.
 Normal termination of Gaussian 09 at Tue Jan 28 03:58:33 2020.

 ----------------------------------------------------------------------
 #N Geom=AllCheck Guess=TCheck SCRF=Check GenChk RB3LYP/6-31G(2df,p) Fr
 eq
 ----------------------------------------------------------------------

 Structure from the checkpoint file:  "/scratch/puck/g09_6a1ff1f3-c7db-49d7-909e-f57cf4680919/Gau-95032.chk"
 -----
 titel
 -----
 Charge =  0 Multiplicity = 1

                         Standard orientation:
 ---------------------------------------------------------------------
 Center     Atomic      Atomic             Coordinates (Angstroms)
 Number     Number       Type             X           Y           Z
 ---------------------------------------------------------------------
      1          8           0       -2.590088    0.828493    0.482846
      2          6           0       -1.783364   -0.001927   -0.306622
      3          6           0       -1.182477   -1.331590    0.285616
      4          6           0        0.122922   -1.032217   -0.529645
      5          8           0        1.417269   -1.270743   -0.021935
      6          6           0        2.026252   -0.177356    0.654712
      7          6           0        1.896167    1.156335   -0.107779
      8          6           0        0.424781    1.442300   -0.312424
      9          6           0       -0.347225    0.396303   -0.581429
     10          1           0       -2.062406    1.106240    1.240347
     11          1           0       -2.361594   -0.207391   -1.213157
     12          1           0       -1.008691   -1.220224    1.359649
     13          1           0       -1.708331   -2.267471    0.086230
     14          1           0        0.077406   -1.540547   -1.499922
     15          1           0        1.594922   -0.051371    1.660503
     16          1           0        3.075046   -0.464606    0.772428
     17          1           0        2.374224    1.949883    0.476373
     18          1           0        2.439793    1.089332   -1.058668
     19          1           0        0.019848    2.433067   -0.125657
 ---------------------------------------------------------------------

 SCF Done:  E(RB3LYP) =  -423.168818647     A.U. after    1 cycles

 The electronic state is 1-A.
 Alpha  occ. eigenvalues --  -19.14202 -19.14049 -10.24127 -10.23388 -10.23092
 Alpha  occ. eigenvalues --  -10.19094 -10.18603 -10.18562 -10.18331  -1.03350
 Alpha  occ. eigenvalues --   -1.02538  -0.84628  -0.79230  -0.70676  -0.66033
 Alpha  occ. eigenvalues --   -0.61391  -0.60702  -0.53190  -0.50867  -0.49511
 Alpha  occ. eigenvalues --   -0.47080  -0.44937  -0.42714  -0.40456  -0.40141
 Alpha  occ. eigenvalues --   -0.39289  -0.37595  -0.37227  -0.35088  -0.33757
 Alpha  occ. eigenvalues --   -0.28484  -0.27476  -0.24710  -0.24352
 Alpha virt. eigenvalues --    0.00604   0.08011   0.09922   0.10696   0.11914
 Alpha virt. eigenvalues --    0.13687   0.14568   0.15425   0.16135   0.16308
 Alpha virt. eigenvalues --    0.18352   0.19154   0.19531   0.20115   0.21641

 Mulliken charges:
               1
     1  O   -0.423885
     2  C    0.077188
     3  C   -0.313638
     4  C    0.092844
     5  O   -0.269730
     6  C   -0.070456
     7  C   -0.254725
     8  C   -0.242468
     9  C    0.207672
    10  H    0.275823
    11  H    0.103190
    12  H    0.106130
    13  H    0.105153
    14  H    0.093517
    15  H    0.085611
    16  H    0.108019
    17  H    0.104666
    18  H    0.119478
    19  H    0.095610
 Sum of Mulliken charges =   0.00000

 Dipole moment (field-independent basis, Debye):
    X=              0.9617    Y=              0.7266    Z=              0.7004  Tot=              1.3941
 Quadrupole moment (field-independent basis, Debye-Ang):
   XX=            -57.7039   YY=            -53.9142   ZZ=            -50.5855
   XY=              5.1383   XZ=              1.1098   YZ=              2.4814

  Exact polarizability:  90.486   9.454  80.567   2.922   3.423  62.501
 Approx polarizability: 124.093  14.566 124.086   5.146   8.788  98.107

                      1                      2                      3
                      A                      A                      A
 Frequencies --    114.5463               129.3695               223.1063
 Red. masses --      3.4023                 3.4766                 2.7749
 Frc consts  --      0.0263                 0.0343                 0.0814
 IR Inten    --      3.3907                 0.5375                 3.2019

                      4                      5                      6
                      A                      A                      A
 Frequencies --    308.5244               337.3993               358.7355
 Red. masses --      1.8881                 2.1740                 1.4370
 Frc consts  --      0.1059                 0.1458                 0.1090
 IR Inten    --      0.4663                11.1568                78.0626

                      7                      8                      9
                      A                      A                      A
 Frequencies --    431.0844               459.0624               504.6886
 Red. masses --      4.0642                 3.3692                 3.1800
 Frc consts  --      0.4450                 0.4183                 0.4772
 IR Inten    --      0.4444                 4.8147                 2.7588

                     10                     11                     12
                      A                      A                      A
 Frequencies --    534.9714               666.6454               680.9792
 Red. masses --      4.8887                 2.1262                 2.1574
 Frc consts  --      0.8243                 0.5567                 0.5895
 IR Inten    --      7.4046                 6.9062                 4.5663

                     13                     14                     15
                      A                      A                      A
 Frequencies --    781.2975               807.3276               850.7229
 Red. masses --      3.2046                 2.4597                 1.4112
 Frc consts  --      1.1526                 0.9446                 0.6018
 IR Inten    --      0.2072                 5.4329                11.4729

                     16                     17                     18
                      A                      A                      A
 Frequencies --    880.1260               932.4304               948.2473
 Red. masses --      2.4685                 3.1940                 2.4230
 Frc consts  --      1.1266                 1.6361                 1.2837
 IR Inten    --      1.9145                33.9946                13.7868

                     19                     20                     21
                      A                      A                      A
 Frequencies --    981.7825              1028.5140              1038.1429
 Red. masses --      2.8120                 2.8753                 2.1041
 Frc consts  --      1.5970                 1.7920                 1.3361
 IR Inten    --     10.6595                17.5517                28.8890

                     22                     23                     24
                      A                      A                      A
 Frequencies --   1059.2538              1081.4352              1090.7448
 Red. masses --      2.9519                 1.9832                 1.6350
 Frc consts  --      1.9514                 1.3665                 1.1461
 IR Inten    --     32.3376                 7.9530                 2.8108

                     25                     26                     27
                      A                      A                      A
 Frequencies --   1120.3506              1168.0718              1180.1234
 Red. masses --      2.0804                 2.0583                 1.5123
 Frc consts  --      1.5385                 1.6546                 1.2409
 IR Inten    --     46.6175                86.9155                38.8432

                     28                     29                     30
                      A                      A                      A
 Frequencies --   1224.1665              1245.1754              1258.3319
 Red. masses --      1.2949                 1.4339                 1.4843
 Frc consts  --      1.1433                 1.3099                 1.3848
 IR Inten    --     11.4879                 6.6709                20.7937

                     31                     32                     33
                      A                      A                      A
 Frequencies --   1289.7013              1302.1478              1334.5560
 Red. masses --      1.3343                 1.4804                 1.4428
 Frc consts  --      1.3076                 1.4789                 1.5140
 IR Inten    --     19.4982                 1.3224                 7.5745

                     34                     35                     36
                      A                      A                      A
 Frequencies --   1342.4794              1380.2749              1410.2989
 Red. masses --      1.5211                 1.2971                 1.3110
 Frc consts  --      1.6151                 1.4560                 1.5363
 IR Inten    --      5.2686                 8.2508                25.7101

                     37                     38                     39
                      A                      A                      A
 Frequencies --   1436.3848              1471.5179              1473.6246
 Red. masses --      1.2558                 1.1073                 1.0998
 Frc consts  --      1.5266                 1.4127                 1.4072
 IR Inten    --     59.9239                 3.5224                 0.8436

                     40                     41                     42
                      A                      A                      A
 Frequencies --   1504.0500              1754.1726              2977.0950
 Red. masses --      1.0896                 8.6205                 1.0707
 Frc consts  --      1.4523                15.6289                 5.5911
 IR Inten    --      1.7280                 1.9382                53.0915

                     43                     44                     45
                      A                      A                      A
 Frequencies --   3027.6214              3033.4538              3060.5572
 Red. masses --      1.0632                 1.0841                 1.0671
 Frc consts  --      5.7422                 5.8773                 5.8893
 IR Inten    --     28.7331                25.4423                26.3772

                     46                     47                     48
                      A                      A                      A
 Frequencies --   3063.0158              3076.3431              3085.1436
 Red. masses --      1.0744                 1.0982                 1.0933
 Frc consts  --      5.9392                 6.1235                 6.1310
 IR Inten    --     27.6491                23.5698                43.7794

                     49                     50                     51
                      A                      A                      A
 Frequencies --   3128.3448              3163.6339              3794.5395
 Red. masses --      1.1093                 1.0912                 1.0655
 Frc consts  --      6.3962                 6.4344                 9.0393
 IR Inten    --     36.6319                13.1567                 9.1257

 - Thermochemistry -
 -------------------
 Temperature   298.150 Kelvin.  Pressure   1.00000 Atm.
 Atom     1 has atomic number  8 and mass  15.99491

 Molecular mass:   126.06808 amu.
 Principal axes and moments of inertia in atomic units:
                           1         2         3
     Eigenvalues --   595.990421286.352181656.69119
           X            0.99890   0.04618   0.00793
           Y           -0.04626   0.99886   0.01134
           Z           -0.00739  -0.01170   0.99990
 This molecule is an asymmetric top.
 Rotational symmetry number  1.
 Warning -- assumption of classical behavior for rotation
           may cause significant error
 Rotational temperatures (Kelvin)      0.14533     0.06733     0.05228
 Rotational constants (GHZ):           3.02814     1.40299     1.08936
 Zero-point vibrational energy     421888.9 (Joules/Mol)
                                  100.83386 (Kcal/Mol)
 Warning -- explicit consideration of  10 degrees of freedom as
           vibrations may cause significant error
 Vibrational temperatures:    164.81   186.13   321.00   443.90   485.44
          (Kelvin)            516.14   620.23   660.49   726.13   769.70
                              959.15   979.78  1124.11  1161.56  1224.00
                             1266.30  1341.56  1364.31  1412.56  1479.80
                             1493.65  1524.03  1555.94  1569.34  1611.93
                             1680.59  1697.93  1761.30  1791.53  1810.46
                             1855.59  1873.50  1920.13  1931.53  1985.91
                             2029.10  2066.63  2117.18  2120.21  2163.99
                             2523.86  4283.37  4356.07  4364.46  4403.45
                             4406.99  4426.17  4438.83  4500.98  4551.76
                             5459.49

 Zero-point correction=                           0.160689 (Hartree/Particle)
 Thermal correction to Energy=                    0.168521
 Thermal correction to Enthalpy=                  0.169465
 Thermal correction to Gibbs Free Energy=         0.128476
 Sum of electronic and zero-point Energies=           -423.008130
 Sum of electronic and thermal Energies=              -423.000298
 Sum of electronic and thermal Enthalpies=            -422.999354
 Sum of electronic and thermal Free Energies=         -423.040343

                     E (Thermal)             CV                S
                      KCal/Mol        Cal/Mol-Kelvin    Cal/Mol-Kelvin
 Total                  105.748             31.041             86.269
 Electronic               0.000              0.000              0.000
 Translational            0.889              2.981             40.409
 Rotational               0.889              2.981             28.631
 Vibrational            103.971             25.080             17.229
 Vibration     1          0.607              1.937              3.190
 Vibration     2          0.612              1.924              2.955
 Vibration     3          0.649              1.806              1.934
 Vibration     4          0.698              1.657              1.370
 Vibration     5          0.718              1.601              1.224
 Vibration     6          0.734              1.557              1.128
 Vibration     7          0.792              1.403              0.855
 Vibration     8          0.817              1.341              0.769
 Vibration     9          0.860              1.240              0.647
 Vibration    10          0.890              1.173              0.576

 Normal termination of Gaussian 09 at Tue Jan 28 04:45:39 2020.
