 Gaussian 09, Revision D.01,
 Gaussian 09:  ES64L-G09RevD.01 24-Apr-2013

 -----------------------------
 # b3lyp 6-31G(2df,p) opt Freq
 -----------------------------

 -----
 titel
 -----
 Symbolic Z-matrix:
 Charge =  0 Multiplicity = 1

 SCF Done:  E(RB3LYP) =  -423.121712868     A.U. after   14 cycles
 Optimization completed.
    -- Stationary point found.
 Normal termination of Gaussian 09 at Mon Jan 27 22:07:59 2020.

 ----------------------------------------------------------------------
 #N Geom=AllCheck Guess=TCheck SCRF=Check GenChk RB3LYP/6-31G(2df,p) Fr
 eq
 ----------------------------------------------------------------------

 Structure from the checkpoint file:  "/scratch/puck/g09_8a7415eb-3718-49a5-9684-e463bce5b13f/Gau-159494.chk"
 -----
 titel
 -----
 Charge =  0 Multiplicity = 1

                         Standard orientation:
 ---------------------------------------------------------------------
 Center     Atomic      Atomic             Coordinates (Angstroms)
 Number     Number       Type             X           Y           Z
 ---------------------------------------------------------------------
      1          6           0        2.447877   -0.538635   -0.559928
      2          6           0        1.036960   -0.393955   -0.101033
      3          8           0        0.597938   -1.142051    1.045144
      4          6           0       -0.581555   -0.296305    1.040551
      5          6           0       -1.360560   -0.769390   -0.219901
      6          8           0       -2.599306   -0.127094   -0.426665
      7          6           0       -0.190597   -0.183920   -1.007680
      8          6           0        0.155763    0.784146    0.148045
      9          6           0        0.386118    2.258027    0.238426
     10          1           0        2.650385    0.142363   -1.391975
     11          1           0        3.145234   -0.311655    0.252554
     12          1           0        2.641005   -1.560396   -0.903271
     13          1           0       -1.057735   -0.172524    2.012106
     14          1           0       -1.552285   -1.844447   -0.278993
     15          1           0       -2.426114    0.810408   -0.569950
     16          1           0       -0.109039   -0.022921   -2.076657
     17          1           0        1.023187    2.599883   -0.584585
     18          1           0       -0.550281    2.825823    0.184355
     19          1           0        0.882550    2.526825    1.177696
 ---------------------------------------------------------------------

 SCF Done:  E(RB3LYP) =  -423.121712868     A.U. after    1 cycles

 The electronic state is 1-A.
 Alpha  occ. eigenvalues --  -19.13773 -19.13387 -10.24450 -10.23496 -10.23226
 Alpha  occ. eigenvalues --  -10.20244 -10.19463 -10.19159 -10.18847  -1.06186
 Alpha  occ. eigenvalues --   -1.01833  -0.85440  -0.75827  -0.73634  -0.67628
 Alpha  occ. eigenvalues --   -0.63288  -0.56617  -0.52775  -0.50460  -0.48444
 Alpha  occ. eigenvalues --   -0.45201  -0.44555  -0.43197  -0.41420  -0.41102
 Alpha  occ. eigenvalues --   -0.39626  -0.38783  -0.37534  -0.35328  -0.34370
 Alpha  occ. eigenvalues --   -0.28805  -0.28019  -0.25027  -0.22112
 Alpha virt. eigenvalues --    0.06547   0.08688   0.08991   0.10525   0.12968
 Alpha virt. eigenvalues --    0.13107   0.13517   0.14690   0.15553   0.15665
 Alpha virt. eigenvalues --    0.17477   0.18132   0.20663   0.21604   0.22594

 Mulliken charges:
               1
     1  C   -0.507642
     2  C    0.427897
     3  O   -0.328474
     4  C   -0.029792
     5  C    0.153062
     6  O   -0.443302
     7  C   -0.265677
     8  C    0.203195
     9  C   -0.530293
    10  H    0.125465
    11  H    0.132779
    12  H    0.137128
    13  H    0.085851
    14  H    0.091365
    15  H    0.281216
    16  H    0.087759
    17  H    0.127960
    18  H    0.118801
    19  H    0.132701
 Sum of Mulliken charges =   0.00000

 Dipole moment (field-independent basis, Debye):
    X=              1.2658    Y=              2.2971    Z=             -0.9553  Tot=              2.7914
 Quadrupole moment (field-independent basis, Debye-Ang):
   XX=            -56.4622   YY=            -52.2931   ZZ=            -52.5605
   XY=             -1.4117   XZ=             -2.8239   YZ=              1.1740

  Exact polarizability:  82.109  -0.338  75.212  -2.113   1.237  67.941
 Approx polarizability: 112.869  -2.480 110.069  -0.526  -0.240 106.514

                      1                      2                      3
                      A                      A                      A
 Frequencies --    149.6351               170.3531               183.8980
 Red. masses --      3.6198                 2.5830                 1.0504
 Frc consts  --      0.0478                 0.0442                 0.0209
 IR Inten    --      0.9329                 0.5869                 0.1335

                      4                      5                      6
                      A                      A                      A
 Frequencies --    194.0331               231.8275               270.4118
 Red. masses --      1.0288                 2.4396                 2.8140
 Frc consts  --      0.0228                 0.0773                 0.1212
 IR Inten    --      0.1332                 7.2414                 1.2074

                      7                      8                      9
                      A                      A                      A
 Frequencies --    304.0834               357.1845               392.4092
 Red. masses --      1.2185                 3.3517                 3.2471
 Frc consts  --      0.0664                 0.2519                 0.2946
 IR Inten    --     43.3654                20.4337                 6.9934

                     10                     11                     12
                      A                      A                      A
 Frequencies --    493.7249               576.5477               610.6287
 Red. masses --      5.9401                 4.1503                 3.6217
 Frc consts  --      0.8531                 0.8128                 0.7956
 IR Inten    --      0.5576                 4.9134                 0.5524

                     13                     14                     15
                      A                      A                      A
 Frequencies --    666.8539               762.4606               802.3491
 Red. masses --      3.3903                 3.7472                 3.1361
 Frc consts  --      0.8883                 1.2835                 1.1895
 IR Inten    --      7.4014                 3.8011                 9.4901

                     16                     17                     18
                      A                      A                      A
 Frequencies --    847.4695               869.9915               923.1376
 Red. masses --      2.3858                 2.4336                 1.9330
 Frc consts  --      1.0096                 1.0853                 0.9705
 IR Inten    --      2.2768                14.2650                23.6031

                     19                     20                     21
                      A                      A                      A
 Frequencies --    930.3075               951.2749               980.2119
 Red. masses --      1.6623                 2.7716                 1.9189
 Frc consts  --      0.8476                 1.4777                 1.0863
 IR Inten    --      8.9373                16.4347                14.4132

                     22                     23                     24
                      A                      A                      A
 Frequencies --   1026.9597              1077.9019              1105.6613
 Red. masses --      3.3743                 3.0351                 1.6589
 Frc consts  --      2.0967                 2.0777                 1.1949
 IR Inten    --     19.7915                94.7140                 0.9377

                     25                     26                     27
                      A                      A                      A
 Frequencies --   1108.2467              1122.3550              1137.1539
 Red. masses --      1.9130                 1.8762                 1.7548
 Frc consts  --      1.3843                 1.3925                 1.3369
 IR Inten    --     27.4098                 1.6818                10.9976

                     28                     29                     30
                      A                      A                      A
 Frequencies --   1177.9036              1214.9762              1244.3691
 Red. masses --      1.7976                 2.1334                 1.4726
 Frc consts  --      1.4695                 1.8555                 1.3435
 IR Inten    --     13.1829                38.7663                 7.0634

                     31                     32                     33
                      A                      A                      A
 Frequencies --   1271.1326              1292.2533              1317.0306
 Red. masses --      1.7606                 1.6466                 3.0895
 Frc consts  --      1.6761                 1.6201                 3.1574
 IR Inten    --      2.9740                 7.7408                 6.6742

                     34                     35                     36
                      A                      A                      A
 Frequencies --   1408.6110              1414.1453              1422.2304
 Red. masses --      1.3177                 1.2671                 1.3479
 Frc consts  --      1.5404                 1.4930                 1.6064
 IR Inten    --     10.3275                 1.5216                89.2471

                     37                     38                     39
                      A                      A                      A
 Frequencies --   1471.3725              1479.0757              1487.0968
 Red. masses --      1.1194                 1.2737                 1.3325
 Frc consts  --      1.4278                 1.6417                 1.7362
 IR Inten    --      3.4875                 0.3648                 8.4169

                     40                     41                     42
                      A                      A                      A
 Frequencies --   1494.7916              1514.3722              3020.5107
 Red. masses --      1.0527                 1.7570                 1.0355
 Frc consts  --      1.3859                 2.3740                 5.5660
 IR Inten    --      1.8088                10.6477                38.0423

                     43                     44                     45
                      A                      A                      A
 Frequencies --   3036.3324              3077.6911              3078.8355
 Red. masses --      1.0350                 1.0865                 1.0999
 Frc consts  --      5.6221                 6.0636                 6.1431
 IR Inten    --     21.9998                47.3385                20.6029

                     46                     47                     48
                      A                      A                      A
 Frequencies --   3092.8260              3102.8546              3114.4162
 Red. masses --      1.1003                 1.1015                 1.1006
 Frc consts  --      6.2009                 6.2481                 6.2896
 IR Inten    --     16.1102                14.8917                14.8470

                     49                     50                     51
                      A                      A                      A
 Frequencies --   3136.9554              3183.8351              3795.6538
 Red. masses --      1.0929                 1.0930                 1.0652
 Frc consts  --      6.3368                 6.5277                 9.0421
 IR Inten    --     32.2480                10.4212                 8.5760

 - Thermochemistry -
 -------------------
 Temperature   298.150 Kelvin.  Pressure   1.00000 Atm.
 Atom     1 has atomic number  6 and mass  12.00000

 Molecular mass:   126.06808 amu.
 Principal axes and moments of inertia in atomic units:
                           1         2         3
     Eigenvalues --   698.635821168.487631409.01722
           X            0.99968   0.00062  -0.02544
           Y            0.00042   0.99916   0.04089
           Z            0.02544  -0.04089   0.99884
 This molecule is an asymmetric top.
 Rotational symmetry number  1.
 Warning -- assumption of classical behavior for rotation
           may cause significant error
 Rotational temperatures (Kelvin)      0.12398     0.07412     0.06147
 Rotational constants (GHZ):           2.58324     1.54451     1.28085
 Zero-point vibrational energy     413287.9 (Joules/Mol)
                                   98.77818 (Kcal/Mol)
 Warning -- explicit consideration of  12 degrees of freedom as
           vibrations may cause significant error
 Vibrational temperatures:    215.29   245.10   264.59   279.17   333.55
          (Kelvin)            389.06   437.51   513.91   564.59   710.36
                              829.52   878.56   959.45  1097.01  1154.40
                             1219.32  1251.72  1328.19  1338.50  1368.67
                             1410.30  1477.56  1550.86  1590.80  1594.52
                             1614.82  1636.11  1694.74  1748.08  1790.37
                             1828.87  1859.26  1894.91  2026.67  2034.64
                             2046.27  2116.97  2128.06  2139.60  2150.67
                             2178.84  4345.84  4368.60  4428.11  4429.75
                             4449.88  4464.31  4480.94  4513.37  4580.82
                             5461.09

 Zero-point correction=                           0.157413 (Hartree/Particle)
 Thermal correction to Energy=                    0.166153
 Thermal correction to Enthalpy=                  0.167097
 Thermal correction to Gibbs Free Energy=         0.124624
 Sum of electronic and zero-point Energies=           -422.964300
 Sum of electronic and thermal Energies=              -422.955560
 Sum of electronic and thermal Enthalpies=            -422.954616
 Sum of electronic and thermal Free Energies=         -422.997089

                     E (Thermal)             CV                S
                      KCal/Mol        Cal/Mol-Kelvin    Cal/Mol-Kelvin
 Total                  104.262             33.624             89.391
 Electronic               0.000              0.000              0.000
 Translational            0.889              2.981             40.409
 Rotational               0.889              2.981             28.533
 Vibrational            102.485             27.663             20.449
 Vibration     1          0.618              1.903              2.677
 Vibration     2          0.625              1.879              2.432
 Vibration     3          0.631              1.862              2.288
 Vibration     4          0.635              1.848              2.189
 Vibration     5          0.653              1.792              1.865
 Vibration     6          0.674              1.728              1.594
 Vibration     7          0.695              1.666              1.394
 Vibration     8          0.732              1.560              1.134
 Vibration     9          0.760              1.486              0.991
 Vibration    10          0.849              1.264              0.674
 Vibration    11          0.933              1.082              0.492
 Vibration    12          0.970              1.009              0.432

 Normal termination of Gaussian 09 at Mon Jan 27 23:00:32 2020.
