 Gaussian 09, Revision D.01,
 Gaussian 09:  ES64L-G09RevD.01 24-Apr-2013

 -----------------------------
 # b3lyp 6-31G(2df,p) opt Freq
 -----------------------------

 -----
 titel
 -----
 Symbolic Z-matrix:
 Charge =  0 Multiplicity = 1

 SCF Done:  E(RB3LYP) =  -423.170029597     A.U. after   14 cycles
 Optimization completed.
    -- Stationary point found.
 Normal termination of Gaussian 09 at Tue Jan 28 12:35:58 2020.

 ----------------------------------------------------------------------
 #N Geom=AllCheck Guess=TCheck SCRF=Check GenChk RB3LYP/6-31G(2df,p) Fr
 eq
 ----------------------------------------------------------------------

 Structure from the checkpoint file:  "/scratch/puck/g09_dc685b01-db9c-4cc6-a1d8-e85035b863f7/Gau-141945.chk"
 -----
 titel
 -----
 Charge =  0 Multiplicity = 1

                         Standard orientation:
 ---------------------------------------------------------------------
 Center     Atomic      Atomic             Coordinates (Angstroms)
 Number     Number       Type             X           Y           Z
 ---------------------------------------------------------------------
      1          6           0        2.759754   -0.921634    0.314823
      2          6           0        1.631358   -0.228868   -0.463259
      3          6           0        0.346641   -1.036340   -0.496001
      4          6           0       -0.669339   -0.436476    0.136728
      5          6           0       -2.069019   -0.932489    0.316298
      6          8           0       -3.033648    0.008072   -0.142596
      7          6           0       -0.233621    0.920797    0.599933
      8          8           0        0.159858    1.781641   -0.495321
      9          6           0        1.177869    1.069599    0.206196
     10          1           0        2.458167   -1.118308    1.348793
     11          1           0        3.022561   -1.879105   -0.145013
     12          1           0        3.660474   -0.298602    0.333827
     13          1           0        1.978674   -0.020095   -1.484105
     14          1           0        0.282553   -1.995989   -1.000100
     15          1           0       -2.186265   -1.912815   -0.170854
     16          1           0       -2.294722   -1.073776    1.380965
     17          1           0       -2.784104    0.262136   -1.037697
     18          1           0       -0.700705    1.427217    1.438802
     19          1           0        1.891829    1.684095    0.750404
 ---------------------------------------------------------------------

 SCF Done:  E(RB3LYP) =  -423.170029597     A.U. after    1 cycles

 The electronic state is 1-A.
 Alpha  occ. eigenvalues --  -19.14599 -19.13589 -10.23384 -10.23354 -10.23292
 Alpha  occ. eigenvalues --  -10.19916 -10.18985 -10.18885 -10.18477  -1.06704
 Alpha  occ. eigenvalues --   -1.01612  -0.83233  -0.76433  -0.68876  -0.66194
 Alpha  occ. eigenvalues --   -0.64775  -0.57184  -0.54619  -0.52302  -0.48754
 Alpha  occ. eigenvalues --   -0.45856  -0.44208  -0.43294  -0.41848  -0.40691
 Alpha  occ. eigenvalues --   -0.38860  -0.37186  -0.36603  -0.35595  -0.32442
 Alpha  occ. eigenvalues --   -0.30588  -0.27742  -0.25763  -0.24443
 Alpha virt. eigenvalues --   -0.00381   0.09361   0.09574   0.11035   0.11668
 Alpha virt. eigenvalues --    0.12844   0.14454   0.15134   0.15289   0.16239
 Alpha virt. eigenvalues --    0.17226   0.18115   0.18651   0.21637   0.22195

 Mulliken charges:
               1
     1  C   -0.398779
     2  C   -0.060279
     3  C   -0.201177
     4  C    0.285767
     5  C   -0.172592
     6  O   -0.411993
     7  C   -0.058360
     8  O   -0.267316
     9  C    0.039438
    10  H    0.121764
    11  H    0.120239
    12  H    0.118109
    13  H    0.097746
    14  H    0.097010
    15  H    0.093182
    16  H    0.115179
    17  H    0.289268
    18  H    0.100458
    19  H    0.092336
 Sum of Mulliken charges =   0.00000

 Dipole moment (field-independent basis, Debye):
    X=              1.8194    Y=             -1.7064    Z=              0.2451  Tot=              2.5064
 Quadrupole moment (field-independent basis, Debye-Ang):
   XX=            -56.0696   YY=            -54.7892   ZZ=            -50.6140
   XY=              1.2608   XZ=              1.4599   YZ=              2.6320

  Exact polarizability:  96.282  -2.291  73.494  -5.547   4.327  62.242
 Approx polarizability: 132.281  -9.118 110.897 -13.434   5.260 100.812

                      1                      2                      3
                      A                      A                      A
 Frequencies --     74.6823               106.2875               162.5451
 Red. masses --      3.4450                 4.0818                 3.3708
 Frc consts  --      0.0113                 0.0272                 0.0525
 IR Inten    --      2.0352                 0.3305                 2.3176

                      4                      5                      6
                      A                      A                      A
 Frequencies --    221.8262               261.6174               276.7829
 Red. masses --      1.0919                 2.4035                 2.1410
 Frc consts  --      0.0317                 0.0969                 0.0966
 IR Inten    --      0.3102                 9.0668                14.7156

                      7                      8                      9
                      A                      A                      A
 Frequencies --    348.8156               380.7605               413.6171
 Red. masses --      1.5370                 2.9287                 3.2921
 Frc consts  --      0.1102                 0.2502                 0.3318
 IR Inten    --     50.8979                50.4421                17.5513

                     10                     11                     12
                      A                      A                      A
 Frequencies --    507.8057               581.8978               704.2633
 Red. masses --      3.7341                 4.3646                 3.7214
 Frc consts  --      0.5673                 0.8707                 1.0875
 IR Inten    --      0.6427                13.6768                 1.3128

                     13                     14                     15
                      A                      A                      A
 Frequencies --    714.8661               831.4009               859.7102
 Red. masses --      4.0558                 2.8665                 1.8767
 Frc consts  --      1.2212                 1.1674                 0.8172
 IR Inten    --      1.8295                 8.8325                36.7932

                     16                     17                     18
                      A                      A                      A
 Frequencies --    870.2927               874.5123               898.8477
 Red. masses --      2.0550                 2.4514                 3.1388
 Frc consts  --      0.9171                 1.1046                 1.4941
 IR Inten    --     16.8857                 1.2480                 5.3217

                     19                     20                     21
                      A                      A                      A
 Frequencies --    934.7332               983.4131              1015.4958
 Red. masses --      1.8625                 1.7533                 1.6379
 Frc consts  --      0.9588                 0.9990                 0.9952
 IR Inten    --      3.8964                29.4905                 6.0343

                     22                     23                     24
                      A                      A                      A
 Frequencies --   1045.0626              1059.8981              1089.1521
 Red. masses --      1.8317                 4.4431                 1.2962
 Frc consts  --      1.1787                 2.9408                 0.9059
 IR Inten    --      7.2313                71.6223                 2.1955

                     25                     26                     27
                      A                      A                      A
 Frequencies --   1095.6739              1138.6427              1196.0032
 Red. masses --      2.4649                 1.5455                 1.4139
 Frc consts  --      1.7434                 1.1806                 1.1916
 IR Inten    --      1.6108                 1.6727                21.1391

                     28                     29                     30
                      A                      A                      A
 Frequencies --   1199.4696              1250.7632              1271.8143
 Red. masses --      1.5382                 1.4493                 1.2971
 Frc consts  --      1.3039                 1.3359                 1.2362
 IR Inten    --      0.4709                 4.6561                 1.8560

                     31                     32                     33
                      A                      A                      A
 Frequencies --   1296.8274              1314.8909              1342.8526
 Red. masses --      1.6109                 1.7275                 1.5037
 Frc consts  --      1.5962                 1.7597                 1.5976
 IR Inten    --      4.0081                 1.4493                 4.8370

                     34                     35                     36
                      A                      A                      A
 Frequencies --   1381.0717              1403.0041              1412.5901
 Red. masses --      1.5306                 1.9009                 1.7749
 Frc consts  --      1.7201                 2.2046                 2.0866
 IR Inten    --      0.5359                 4.1679                 8.4245

                     37                     38                     39
                      A                      A                      A
 Frequencies --   1421.4252              1495.3664              1498.8313
 Red. masses --      1.2558                 1.0451                 1.0862
 Frc consts  --      1.4950                 1.3770                 1.4377
 IR Inten    --     81.0994                 4.6428                 1.0215

                     40                     41                     42
                      A                      A                      A
 Frequencies --   1499.4312              1695.3212              2985.9868
 Red. masses --      1.0524                 7.5928                 1.0666
 Frc consts  --      1.3940                12.8575                 5.6030
 IR Inten    --      2.7757                 1.2598                57.0473

                     43                     44                     45
                      A                      A                      A
 Frequencies --   3022.2995              3031.9031              3042.8543
 Red. masses --      1.0823                 1.0348                 1.0947
 Frc consts  --      5.8247                 5.6044                 5.9720
 IR Inten    --     15.6611                27.7490                26.2724

                     46                     47                     48
                      A                      A                      A
 Frequencies --   3101.7879              3108.8018              3136.4702
 Red. masses --      1.1016                 1.1018                 1.0895
 Frc consts  --      6.2442                 6.2738                 6.3151
 IR Inten    --     24.5650                21.9505                24.5211

                     49                     50                     51
                      A                      A                      A
 Frequencies --   3169.2787              3178.7540              3808.3454
 Red. masses --      1.0929                 1.0934                 1.0663
 Frc consts  --      6.4676                 6.5092                 9.1117
 IR Inten    --     23.8618                10.3221                18.6398

 - Thermochemistry -
 -------------------
 Temperature   298.150 Kelvin.  Pressure   1.00000 Atm.
 Atom     1 has atomic number  6 and mass  12.00000

 Molecular mass:   126.06808 amu.
 Principal axes and moments of inertia in atomic units:
                           1         2         3
     Eigenvalues --   563.292711532.432321895.57718
           X            0.99996  -0.00827   0.00370
           Y            0.00818   0.99967   0.02451
           Z           -0.00390  -0.02448   0.99969
 This molecule is an asymmetric top.
 Rotational symmetry number  1.
 Warning -- assumption of classical behavior for rotation
           may cause significant error
 Rotational temperatures (Kelvin)      0.15376     0.05652     0.04569
 Rotational constants (GHZ):           3.20391     1.17770     0.95208
 Zero-point vibrational energy     417010.7 (Joules/Mol)
                                   99.66795 (Kcal/Mol)
 Warning -- explicit consideration of  11 degrees of freedom as
           vibrations may cause significant error
 Vibrational temperatures:    107.45   152.92   233.87   319.16   376.41
          (Kelvin)            398.23   501.87   547.83   595.10   730.62
                              837.22  1013.28  1028.53  1196.20  1236.93
                             1252.16  1258.23  1293.24  1344.87  1414.91
                             1461.07  1503.61  1524.96  1567.04  1576.43
                             1638.25  1720.78  1725.77  1799.57  1829.85
                             1865.84  1891.83  1932.06  1987.05  2018.61
                             2032.40  2045.11  2151.50  2156.48  2157.34
                             2439.19  4296.16  4348.41  4362.23  4377.98
                             4462.78  4472.87  4512.68  4559.88  4573.51
                             5479.35

 Zero-point correction=                           0.158831 (Hartree/Particle)
 Thermal correction to Energy=                    0.167532
 Thermal correction to Enthalpy=                  0.168477
 Thermal correction to Gibbs Free Energy=         0.125272
 Sum of electronic and zero-point Energies=           -423.011199
 Sum of electronic and thermal Energies=              -423.002497
 Sum of electronic and thermal Enthalpies=            -423.001553
 Sum of electronic and thermal Free Energies=         -423.044757

                     E (Thermal)             CV                S
                      KCal/Mol        Cal/Mol-Kelvin    Cal/Mol-Kelvin
 Total                  105.128             32.748             90.931
 Electronic               0.000              0.000              0.000
 Translational            0.889              2.981             40.409
 Rotational               0.889              2.981             28.883
 Vibrational            103.351             26.787             21.640
 Vibration     1          0.599              1.966              4.026
 Vibration     2          0.605              1.944              3.336
 Vibration     3          0.623              1.888              2.520
 Vibration     4          0.648              1.808              1.944
 Vibration     5          0.669              1.743              1.651
 Vibration     6          0.678              1.716              1.553
 Vibration     7          0.726              1.578              1.172
 Vibration     8          0.750              1.511              1.036
 Vibration     9          0.777              1.441              0.914
 Vibration    10          0.863              1.233              0.639
 Vibration    11          0.939              1.070              0.482

 Optimization completed.
    -- Stationary point found.
 Normal termination of Gaussian 09 at Tue Jan 28 13:16:51 2020.
