 Gaussian 09, Revision D.01,
 Gaussian 09:  ES64L-G09RevD.01 24-Apr-2013

 -----------------------------
 # b3lyp 6-31G(2df,p) opt Freq
 -----------------------------

 -----
 titel
 -----
 Symbolic Z-matrix:
 Charge =  0 Multiplicity = 1

 SCF Done:  E(RB3LYP) =  -423.156441521     A.U. after   12 cycles
 Optimization completed.
    -- Stationary point found.
 Normal termination of Gaussian 09 at Mon Jan 27 18:48:37 2020.

 ----------------------------------------------------------------------
 #N Geom=AllCheck Guess=TCheck SCRF=Check GenChk RB3LYP/6-31G(2df,p) Fr
 eq
 ----------------------------------------------------------------------

 Structure from the checkpoint file:  "/scratch/puck/g09_2942c58b-220b-4a17-b30e-9071bead3db9/Gau-116414.chk"
 -----
 titel
 -----
 Charge =  0 Multiplicity = 1

                         Standard orientation:
 ---------------------------------------------------------------------
 Center     Atomic      Atomic             Coordinates (Angstroms)
 Number     Number       Type             X           Y           Z
 ---------------------------------------------------------------------
      1          6           0        2.474693    0.031158   -0.670103
      2          6           0        1.083155    0.010157   -0.091737
      3          6           0        0.762728   -0.976443    1.090162
      4          6           0       -0.573150   -1.269149    0.411161
      5          6           0       -0.110283   -0.592917   -0.880029
      6          6           0       -1.211322    0.022722   -0.082584
      7          8           0       -2.507050   -0.038653   -0.585758
      8          6           0       -0.705816    1.346203    0.492327
      9          8           0        0.701804    1.344911    0.260545
     10          1           0        2.787061   -0.974727   -0.963381
     11          1           0        2.511753    0.681011   -1.549645
     12          1           0        3.185709    0.414715    0.068345
     13          1           0        1.420754   -1.850189    1.073779
     14          1           0        0.765291   -0.539246    2.094316
     15          1           0       -1.177235   -2.164236    0.508122
     16          1           0       -0.179479   -0.891073   -1.917309
     17          1           0       -3.107882   -0.202787    0.148823
     18          1           0       -1.164980    2.186144   -0.042100
     19          1           0       -0.919050    1.459942    1.565573
 ---------------------------------------------------------------------

 SCF Done:  E(RB3LYP) =  -423.156441521     A.U. after    1 cycles

 The electronic state is 1-A.
 Alpha  occ. eigenvalues --  -19.15152 -19.13060 -10.24071 -10.23885 -10.22116
 Alpha  occ. eigenvalues --  -10.19412 -10.18356 -10.18114 -10.17485  -1.04554
 Alpha  occ. eigenvalues --   -1.02588  -0.88001  -0.76728  -0.69670  -0.67380
 Alpha  occ. eigenvalues --   -0.61161  -0.57766  -0.55023  -0.50683  -0.47749
 Alpha  occ. eigenvalues --   -0.46950  -0.43735  -0.42946  -0.41473  -0.40634
 Alpha  occ. eigenvalues --   -0.39106  -0.37733  -0.36290  -0.34054  -0.32110
 Alpha  occ. eigenvalues --   -0.29013  -0.27143  -0.25569  -0.23578
 Alpha virt. eigenvalues --    0.06442   0.09515   0.11032   0.11524   0.12998
 Alpha virt. eigenvalues --    0.14514   0.15381   0.15600   0.16537   0.17317
 Alpha virt. eigenvalues --    0.17965   0.19086   0.19547   0.19934   0.22146

 Mulliken charges:
               1
     1  C   -0.477021
     2  C    0.407989
     3  C   -0.285330
     4  C   -0.146697
     5  C   -0.176374
     6  C    0.377243
     7  O   -0.474191
     8  C   -0.158987
     9  O   -0.297803
    10  H    0.117875
    11  H    0.126999
    12  H    0.127496
    13  H    0.101673
    14  H    0.093791
    15  H    0.084451
    16  H    0.094462
    17  H    0.287338
    18  H    0.109390
    19  H    0.087697
 Sum of Mulliken charges =   0.00000

 Dipole moment (field-independent basis, Debye):
    X=             -0.6068    Y=             -1.3841    Z=              0.9390  Tot=              1.7792
 Quadrupole moment (field-independent basis, Debye-Ang):
   XX=            -49.7781   YY=            -54.2905   ZZ=            -52.9432
   XY=             -1.3804   XZ=             -4.8630   YZ=             -0.1314

  Exact polarizability:  83.767  -2.660  71.122  -2.136  -0.823  68.077
 Approx polarizability: 112.518  -2.588 105.890  -2.575  -1.666 105.461

                      1                      2                      3
                      A                      A                      A
 Frequencies --    198.4098               207.7245               219.3143
 Red. masses --      2.6814                 1.5324                 1.5323
 Frc consts  --      0.0622                 0.0390                 0.0434
 IR Inten    --      7.9973                 0.9487                 2.2060

                      4                      5                      6
                      A                      A                      A
 Frequencies --    270.0357               300.0565               344.0894
 Red. masses --      1.7384                 1.4744                 2.6144
 Frc consts  --      0.0747                 0.0782                 0.1824
 IR Inten    --     24.9578                58.9510                 1.2767

                      7                      8                      9
                      A                      A                      A
 Frequencies --    393.5675               417.8625               464.3452
 Red. masses --      3.3181                 3.4798                 2.1037
 Frc consts  --      0.3028                 0.3580                 0.2672
 IR Inten    --     12.8772                 3.5083                 4.0494

                     10                     11                     12
                      A                      A                      A
 Frequencies --    567.7571               607.7055               658.5859
 Red. masses --      4.5339                 3.8718                 5.5363
 Frc consts  --      0.8611                 0.8425                 1.4148
 IR Inten    --      1.3103                 0.8587                 5.8446

                     13                     14                     15
                      A                      A                      A
 Frequencies --    730.4433               814.8325               852.5710
 Red. masses --      3.6435                 2.7864                 1.6361
 Frc consts  --      1.1454                 1.0900                 0.7007
 IR Inten    --      2.6452                 0.7171                 4.6824

                     16                     17                     18
                      A                      A                      A
 Frequencies --    859.5546               899.6518               910.8313
 Red. masses --      1.9838                 1.8229                 2.7106
 Frc consts  --      0.8635                 0.8693                 1.3249
 IR Inten    --     16.4169                16.4268                14.0947

                     19                     20                     21
                      A                      A                      A
 Frequencies --    955.9091               985.4779               988.6993
 Red. masses --      1.7141                 1.3971                 1.6573
 Frc consts  --      0.9228                 0.7994                 0.9545
 IR Inten    --      0.7797                 1.2502                 8.1954

                     22                     23                     24
                      A                      A                      A
 Frequencies --   1007.8196              1054.6294              1075.0633
 Red. masses --      2.5089                 2.9714                 3.0672
 Frc consts  --      1.5014                 1.9472                 2.0886
 IR Inten    --      4.2918                25.7918                81.8245

                     25                     26                     27
                      A                      A                      A
 Frequencies --   1100.7015              1138.0562              1158.4718
 Red. masses --      1.6636                 1.6949                 2.3280
 Frc consts  --      1.1875                 1.2933                 1.8408
 IR Inten    --      5.9044                23.6428                 7.5599

                     28                     29                     30
                      A                      A                      A
 Frequencies --   1181.4439              1204.1195              1229.2321
 Red. masses --      1.7011                 1.1627                 1.9174
 Frc consts  --      1.3989                 0.9932                 1.7070
 IR Inten    --     14.5735                 4.4022                 1.1749

                     31                     32                     33
                      A                      A                      A
 Frequencies --   1240.3680              1284.6115              1301.3944
 Red. masses --      1.7445                 3.3802                 1.9111
 Frc consts  --      1.5814                 3.2865                 1.9070
 IR Inten    --     43.5419                50.6245                32.9364

                     34                     35                     36
                      A                      A                      A
 Frequencies --   1340.7598              1361.7866              1415.6458
 Red. masses --      1.7733                 2.0565                 1.5012
 Frc consts  --      1.8781                 2.2469                 1.7726
 IR Inten    --     43.0600                 7.7736                12.6524

                     37                     38                     39
                      A                      A                      A
 Frequencies --   1439.8341              1481.6204              1485.1786
 Red. masses --      2.5267                 1.0547                 1.1144
 Frc consts  --      3.0862                 1.3641                 1.4483
 IR Inten    --      8.6963                 2.8926                 0.7371

                     40                     41                     42
                      A                      A                      A
 Frequencies --   1493.4384              1523.8347              2989.3946
 Red. masses --      1.0531                 1.0913                 1.0660
 Frc consts  --      1.3839                 1.4931                 5.6126
 IR Inten    --      1.9285                 1.7845                70.1146

                     43                     44                     45
                      A                      A                      A
 Frequencies --   3037.6196              3041.9056              3052.3303
 Red. masses --      1.0532                 1.0397                 1.0976
 Frc consts  --      5.7256                 5.6680                 6.0251
 IR Inten    --     34.9752                26.3191                41.5163

                     46                     47                     48
                      A                      A                      A
 Frequencies --   3093.8323              3111.8819              3121.1804
 Red. masses --      1.1070                 1.1015                 1.1016
 Frc consts  --      6.2431                 6.2846                 6.3227
 IR Inten    --     22.0143                15.4418                19.5706

                     49                     50                     51
                      A                      A                      A
 Frequencies --   3175.5466              3210.7460              3801.9847
 Red. masses --      1.0910                 1.0964                 1.0663
 Frc consts  --      6.4822                 6.6595                 9.0815
 IR Inten    --     20.6238                 4.8800                24.2286

 - Thermochemistry -
 -------------------
 Temperature   298.150 Kelvin.  Pressure   1.00000 Atm.
 Atom     1 has atomic number  6 and mass  12.00000

 Molecular mass:   126.06808 amu.
 Principal axes and moments of inertia in atomic units:
                           1         2         3
     Eigenvalues --   569.187901167.803921337.74233
           X            0.99950  -0.01996  -0.02432
           Y            0.01978   0.99978  -0.00756
           Z            0.02446   0.00708   0.99968
 This molecule is an asymmetric top.
 Rotational symmetry number  1.
 Warning -- assumption of classical behavior for rotation
           may cause significant error
 Rotational temperatures (Kelvin)      0.15217     0.07417     0.06475
 Rotational constants (GHZ):           3.17073     1.54541     1.34909
 Zero-point vibrational energy     417507.8 (Joules/Mol)
                                   99.78676 (Kcal/Mol)
 Warning -- explicit consideration of  11 degrees of freedom as
           vibrations may cause significant error
 Vibrational temperatures:    285.47   298.87   315.54   388.52   431.71
          (Kelvin)            495.07   566.26   601.21   668.09   816.87
                              874.35   947.56  1050.94  1172.36  1226.66
                             1236.71  1294.40  1310.48  1375.34  1417.88
                             1422.52  1450.03  1517.37  1546.77  1583.66
                             1637.41  1666.78  1699.83  1732.46  1768.59
                             1784.61  1848.27  1872.41  1929.05  1959.30
                             2036.80  2071.60  2131.72  2136.84  2148.72
                             2192.46  4301.07  4370.45  4376.62  4391.62
                             4451.33  4477.30  4490.68  4568.90  4619.54
                             5470.20

 Zero-point correction=                           0.159020 (Hartree/Particle)
 Thermal correction to Energy=                    0.166895
 Thermal correction to Enthalpy=                  0.167839
 Thermal correction to Gibbs Free Energy=         0.127391
 Sum of electronic and zero-point Energies=           -422.997421
 Sum of electronic and thermal Energies=              -422.989547
 Sum of electronic and thermal Enthalpies=            -422.988603
 Sum of electronic and thermal Free Energies=         -423.029051

                     E (Thermal)             CV                S
                      KCal/Mol        Cal/Mol-Kelvin    Cal/Mol-Kelvin
 Total                  104.728             32.017             85.130
 Electronic               0.000              0.000              0.000
 Translational            0.889              2.981             40.409
 Rotational               0.889              2.981             28.277
 Vibrational            102.950             26.056             16.445
 Vibration     1          0.637              1.842              2.148
 Vibration     2          0.641              1.829              2.064
 Vibration     3          0.647              1.812              1.965
 Vibration     4          0.674              1.728              1.596
 Vibration     5          0.693              1.674              1.417
 Vibration     6          0.723              1.587              1.193
 Vibration     7          0.761              1.484              0.987
 Vibration     8          0.781              1.431              0.899
 Vibration     9          0.822              1.329              0.754
 Vibration    10          0.924              1.101              0.509
 Vibration    11          0.967              1.015              0.437

 Normal termination of Gaussian 09 at Mon Jan 27 19:30:45 2020.
