 Gaussian 09, Revision D.01,
 Gaussian 09:  ES64L-G09RevD.01 24-Apr-2013

 -----------------------------
 # b3lyp 6-31G(2df,p) opt Freq
 -----------------------------

 -----
 titel
 -----
 Symbolic Z-matrix:
 Charge =  0 Multiplicity = 1

 SCF Done:  E(RB3LYP) =  -423.202742044     A.U. after   14 cycles
 Optimization completed.
    -- Stationary point found.
 Normal termination of Gaussian 09 at Mon Jan 27 16:53:34 2020.

 ----------------------------------------------------------------------
 #N Geom=AllCheck Guess=TCheck SCRF=Check GenChk RB3LYP/6-31G(2df,p) Fr
 eq
 ----------------------------------------------------------------------

 Structure from the checkpoint file:  "/scratch/puck/g09_441e0073-b946-42b2-83ea-1a6220d14f6f/Gau-84963.chk"
 -----
 titel
 -----
 Charge =  0 Multiplicity = 1

                         Standard orientation:
 ---------------------------------------------------------------------
 Center     Atomic      Atomic             Coordinates (Angstroms)
 Number     Number       Type             X           Y           Z
 ---------------------------------------------------------------------
      1          6           0       -1.166718   -1.050071    1.240754
      2          6           0       -0.536540   -0.203161    0.128455
      3          8           0        0.327569   -0.976474   -0.698394
      4          6           0        1.684654   -1.026941   -0.280684
      5          6           0        2.318356    0.362956   -0.292092
      6          6           0        1.419931    1.321654    0.440413
      7          6           0        0.137510    1.041934    0.664730
      8          6           0       -1.617923    0.312809   -0.836863
      9          8           0       -2.739436    0.598563   -0.513463
     10          1           0       -0.413027   -1.349272    1.973632
     11          1           0       -1.946766   -0.478382    1.748750
     12          1           0       -1.620497   -1.946488    0.809989
     13          1           0        1.763311   -1.460494    0.727494
     14          1           0        2.182582   -1.705697   -0.978035
     15          1           0        3.306772    0.325219    0.182347
     16          1           0        2.482902    0.699398   -1.324534
     17          1           0        1.849422    2.245917    0.817338
     18          1           0       -0.504284    1.714791    1.225794
     19          1           0       -1.241098    0.423224   -1.876196
 ---------------------------------------------------------------------

 SCF Done:  E(RB3LYP) =  -423.202742044     A.U. after    1 cycles

 The electronic state is 1-A.
 Alpha  occ. eigenvalues --  -19.14793 -19.14287 -10.26834 -10.24986 -10.23597
 Alpha  occ. eigenvalues --  -10.19710 -10.19563 -10.19300 -10.17888  -1.05407
 Alpha  occ. eigenvalues --   -1.03954  -0.81283  -0.79728  -0.71130  -0.66232
 Alpha  occ. eigenvalues --   -0.64125  -0.57369  -0.52690  -0.51168  -0.48942
 Alpha  occ. eigenvalues --   -0.47064  -0.44529  -0.43684  -0.41137  -0.40516
 Alpha  occ. eigenvalues --   -0.40192  -0.38509  -0.37723  -0.37141  -0.36744
 Alpha  occ. eigenvalues --   -0.30937  -0.27258  -0.26430  -0.24240
 Alpha virt. eigenvalues --   -0.03321   0.02765   0.08505   0.10987   0.11832
 Alpha virt. eigenvalues --    0.13776   0.14105   0.14923   0.15835   0.16249
 Alpha virt. eigenvalues --    0.16928   0.18849   0.20301   0.21089   0.21969

 Mulliken charges:
               1
     1  C   -0.418129
     2  C    0.232564
     3  O   -0.306297
     4  C   -0.083272
     5  C   -0.259495
     6  C   -0.087935
     7  C   -0.083989
     8  C    0.138825
     9  O   -0.256149
    10  H    0.116957
    11  H    0.138215
    12  H    0.128400
    13  H    0.097957
    14  H    0.110298
    15  H    0.108854
    16  H    0.120923
    17  H    0.099692
    18  H    0.110765
    19  H    0.091816
 Sum of Mulliken charges =   0.00000

 Dipole moment (field-independent basis, Debye):
    X=              3.1270    Y=             -0.0006    Z=              0.7491  Tot=              3.2155
 Quadrupole moment (field-independent basis, Debye-Ang):
   XX=            -57.3985   YY=            -52.6931   ZZ=            -52.5902
   XY=              2.0564   XZ=             -1.4536   YZ=             -0.0159

  Exact polarizability: 100.107   1.981  69.065  -4.532   1.190  66.400
 Approx polarizability: 150.030   2.311  98.721  -8.146   3.869  99.773

                      1                      2                      3
                      A                      A                      A
 Frequencies --     76.4021                86.7570               187.6894
 Red. masses --      3.4092                 3.9961                 1.3470
 Frc consts  --      0.0117                 0.0177                 0.0280
 IR Inten    --      8.0822                 0.0587                 0.2077

                      4                      5                      6
                      A                      A                      A
 Frequencies --    204.7664               256.5992               274.4899
 Red. masses --      1.5759                 2.9899                 2.0141
 Frc consts  --      0.0389                 0.1160                 0.0894
 IR Inten    --      0.5654                 6.1847                 3.1766

                      7                      8                      9
                      A                      A                      A
 Frequencies --    320.3104               397.4009               415.3401
 Red. masses --      2.6805                 3.3008                 4.9994
 Frc consts  --      0.1620                 0.3071                 0.5081
 IR Inten    --      2.7301                 7.4249                 1.4021

                     10                     11                     12
                      A                      A                      A
 Frequencies --    488.3384               529.2879               594.3705
 Red. masses --      3.6643                 3.1903                 3.2093
 Frc consts  --      0.5148                 0.5266                 0.6680
 IR Inten    --      2.1916                 2.6949                 0.9120

                     13                     14                     15
                      A                      A                      A
 Frequencies --    720.5559               743.5960               783.1103
 Red. masses --      2.2188                 1.8960                 2.1622
 Frc consts  --      0.6787                 0.6177                 0.7813
 IR Inten    --     37.2992                16.2216                11.6761

                     16                     17                     18
                      A                      A                      A
 Frequencies --    865.1386               895.7984               915.9292
 Red. masses --      2.6322                 2.6927                 2.2070
 Frc consts  --      1.1607                 1.2731                 1.0909
 IR Inten    --     12.3743                 7.0465                20.5629

                     19                     20                     21
                      A                      A                      A
 Frequencies --    975.1586               996.3662              1010.2371
 Red. masses --      1.9378                 1.5494                 1.3606
 Frc consts  --      1.0857                 0.9062                 0.8182
 IR Inten    --      7.2602                 1.7156                 2.2905

                     22                     23                     24
                      A                      A                      A
 Frequencies --   1011.9534              1080.0526              1102.5104
 Red. masses --      1.7946                 2.0734                 3.6881
 Frc consts  --      1.0828                 1.4250                 2.6413
 IR Inten    --      4.5978                 8.0623                35.7410

                     25                     26                     27
                      A                      A                      A
 Frequencies --   1129.6738              1183.6625              1192.2796
 Red. masses --      2.0454                 2.1704                 2.8024
 Frc consts  --      1.5379                 1.7916                 2.3471
 IR Inten    --     54.4736                 7.8569                 6.6804

                     28                     29                     30
                      A                      A                      A
 Frequencies --   1229.7581              1236.9308              1298.6950
 Red. masses --      1.5294                 1.4056                 1.2696
 Frc consts  --      1.3627                 1.2671                 1.2617
 IR Inten    --     28.6526                 9.8635                 9.5797

                     31                     32                     33
                      A                      A                      A
 Frequencies --   1361.4522              1377.4050              1386.8465
 Red. masses --      1.4817                 1.2007                 1.4255
 Frc consts  --      1.6181                 1.3422                 1.6153
 IR Inten    --      5.8960                 0.6629                 6.4892

                     34                     35                     36
                      A                      A                      A
 Frequencies --   1399.2339              1420.9848              1467.9903
 Red. masses --      1.2558                 1.3890                 1.0940
 Frc consts  --      1.4486                 1.6524                 1.3890
 IR Inten    --     12.6888                 4.6495                 3.5584

                     37                     38                     39
                      A                      A                      A
 Frequencies --   1482.4057              1488.4722              1503.2008
 Red. masses --      1.0559                 1.0558                 1.0876
 Frc consts  --      1.3671                 1.3782                 1.4480
 IR Inten    --      3.8761                 1.4690                 2.3688

                     40                     41                     42
                      A                      A                      A
 Frequencies --   1711.2528              1833.9729              2910.3688
 Red. masses --      6.9002                10.7958                 1.0856
 Frc consts  --     11.9053                21.3940                 5.4179
 IR Inten    --      1.8936               183.6167                78.6855

                     43                     44                     45
                      A                      A                      A
 Frequencies --   2995.1146              3019.2667              3049.7373
 Red. masses --      1.0699                 1.0615                 1.0345
 Frc consts  --      5.6547                 5.7014                 5.6692
 IR Inten    --     39.1667                25.0706                12.9390

                     46                     47                     48
                      A                      A                      A
 Frequencies --   3056.2304              3093.2944              3126.8303
 Red. masses --      1.0973                 1.0953                 1.1032
 Frc consts  --      6.0388                 6.1748                 6.3550
 IR Inten    --     29.1562                35.9042                17.1145

                     49                     50                     51
                      A                      A                      A
 Frequencies --   3135.8538              3157.5441              3182.4080
 Red. masses --      1.1015                 1.0847                 1.0969
 Frc consts  --      6.3816                 6.3719                 6.5454
 IR Inten    --      8.4376                 6.8063                13.7819

 - Thermochemistry -
 -------------------
 Temperature   298.150 Kelvin.  Pressure   1.00000 Atm.
 Atom     1 has atomic number  6 and mass  12.00000

 Molecular mass:   126.06808 amu.
 Principal axes and moments of inertia in atomic units:
                           1         2         3
     Eigenvalues --   603.557701421.139241560.05283
           X            0.99965   0.01516  -0.02189
           Y           -0.01643   0.99812  -0.05907
           Z            0.02095   0.05941   0.99801
 This molecule is an asymmetric top.
 Rotational symmetry number  1.
 Warning -- assumption of classical behavior for rotation
           may cause significant error
 Rotational temperatures (Kelvin)      0.14351     0.06095     0.05552
 Rotational constants (GHZ):           2.99017     1.26993     1.15685
 Zero-point vibrational energy     414883.0 (Joules/Mol)
                                   99.15942 (Kcal/Mol)
 Warning -- explicit consideration of  12 degrees of freedom as
           vibrations may cause significant error
 Vibrational temperatures:    109.93   124.82   270.04   294.61   369.19
          (Kelvin)            394.93   460.85   571.77   597.58   702.61
                              761.53   855.17  1036.72  1069.87  1126.72
                             1244.74  1288.85  1317.82  1403.03  1433.55
                             1453.50  1455.97  1553.95  1586.26  1625.35
                             1703.02  1715.42  1769.35  1779.67  1868.53
                             1958.82  1981.78  1995.36  2013.18  2044.48
                             2112.11  2132.85  2141.58  2162.77  2462.11
                             2638.67  4187.37  4309.30  4344.05  4387.89
                             4397.23  4450.56  4498.81  4511.79  4543.00
                             4578.77

 Zero-point correction=                           0.158021 (Hartree/Particle)
 Thermal correction to Energy=                    0.166872
 Thermal correction to Enthalpy=                  0.167816
 Thermal correction to Gibbs Free Energy=         0.124380
 Sum of electronic and zero-point Energies=           -423.044721
 Sum of electronic and thermal Energies=              -423.035870
 Sum of electronic and thermal Enthalpies=            -423.034926
 Sum of electronic and thermal Free Energies=         -423.078362

                     E (Thermal)             CV                S
                      KCal/Mol        Cal/Mol-Kelvin    Cal/Mol-Kelvin
 Total                  104.714             33.065             91.419
 Electronic               0.000              0.000              0.000
 Translational            0.889              2.981             40.409
 Rotational               0.889              2.981             28.683
 Vibrational            102.936             27.104             22.327
 Vibration     1          0.599              1.965              3.981
 Vibration     2          0.601              1.958              3.732
 Vibration     3          0.632              1.857              2.251
 Vibration     4          0.640              1.833              2.090
 Vibration     5          0.666              1.752              1.685
 Vibration     6          0.677              1.720              1.568
 Vibration     7          0.706              1.635              1.309
 Vibration     8          0.764              1.476              0.972
 Vibration     9          0.779              1.437              0.908
 Vibration    10          0.844              1.276              0.688
 Vibration    11          0.884              1.185              0.589
 Vibration    12          0.952              1.044              0.459

 Optimization completed.
    -- Stationary point found.
 Normal termination of Gaussian 09 at Mon Jan 27 17:36:49 2020.
