 Gaussian 09, Revision D.01,
 Gaussian 09:  ES64L-G09RevD.01 24-Apr-2013

 -----------------------------
 # b3lyp 6-31G(2df,p) opt Freq
 -----------------------------

 -----
 titel
 -----
 Symbolic Z-matrix:
 Charge =  0 Multiplicity = 1

 SCF Done:  E(RB3LYP) =  -423.225959619     A.U. after   14 cycles
 Optimization completed.
    -- Stationary point found.
 Normal termination of Gaussian 09 at Mon Jan 27 10:22:08 2020.

 ----------------------------------------------------------------------
 #N Geom=AllCheck Guess=TCheck SCRF=Check GenChk RB3LYP/6-31G(2df,p) Fr
 eq
 ----------------------------------------------------------------------

 Structure from the checkpoint file:  "/scratch/puck/g09_14f6c4d2-e40b-4ad0-9357-e80fabb17294/Gau-19524.chk"
 -----
 titel
 -----
 Charge =  0 Multiplicity = 1

                         Standard orientation:
 ---------------------------------------------------------------------
 Center     Atomic      Atomic             Coordinates (Angstroms)
 Number     Number       Type             X           Y           Z
 ---------------------------------------------------------------------
      1          6           0        2.501793   -1.446836    0.548253
      2          6           0        1.963664   -0.481614   -0.523309
      3          6           0        0.581720    0.002320   -0.258952
      4          6           0        0.038835    1.223739    0.013227
      5          8           0        0.642008    2.440893    0.117040
      6          6           0       -1.370465    1.037583    0.187242
      7          6           0       -1.598335   -0.291646    0.011488
      8          6           0       -2.827274   -1.126656    0.056709
      9          8           0       -0.429837   -0.934001   -0.259318
     10          1           0        3.508142   -1.793444    0.293196
     11          1           0        2.541207   -0.961498    1.528170
     12          1           0        1.850751   -2.321081    0.633881
     13          1           0        2.626224    0.390625   -0.600039
     14          1           0        2.006527   -0.973296   -1.504909
     15          1           0        1.586251    2.337025   -0.038413
     16          1           0       -2.098356    1.800903    0.411257
     17          1           0       -3.006025   -1.631311   -0.899831
     18          1           0       -2.757770   -1.903652    0.826827
     19          1           0       -3.693949   -0.500740    0.280141
 ---------------------------------------------------------------------

 SCF Done:  E(RB3LYP) =  -423.225959619     A.U. after    1 cycles

 The electronic state is 1-A.
 Alpha  occ. eigenvalues --  -19.18526 -19.16280 -10.22591 -10.22344 -10.21011
 Alpha  occ. eigenvalues --  -10.19609 -10.18704 -10.17653 -10.16564  -1.08970
 Alpha  occ. eigenvalues --   -1.04731  -0.79491  -0.78142  -0.74817  -0.67715
 Alpha  occ. eigenvalues --   -0.61941  -0.58654  -0.57790  -0.49362  -0.47046
 Alpha  occ. eigenvalues --   -0.45633  -0.43940  -0.43198  -0.40479  -0.40040
 Alpha  occ. eigenvalues --   -0.39084  -0.38255  -0.37274  -0.36526  -0.35792
 Alpha  occ. eigenvalues --   -0.34953  -0.32991  -0.24090  -0.19038
 Alpha virt. eigenvalues --    0.02804   0.05731   0.09821   0.10994   0.12439
 Alpha virt. eigenvalues --    0.13244   0.15171   0.16279   0.17115   0.17847
 Alpha virt. eigenvalues --    0.18272   0.18435   0.20515   0.23008   0.23295

 Mulliken charges:
               1
     1  C   -0.364518
     2  C   -0.309000
     3  C    0.205683
     4  C    0.231461
     5  O   -0.442235
     6  C   -0.356324
     7  C    0.370389
     8  C   -0.491616
     9  O   -0.222816
    10  H    0.109899
    11  H    0.118717
    12  H    0.132610
    13  H    0.088030
    14  H    0.118139
    15  H    0.294550
    16  H    0.110537
    17  H    0.136161
    18  H    0.135799
    19  H    0.134535
 Sum of Mulliken charges =   0.00000

 Dipole moment (field-independent basis, Debye):
    X=              0.7167    Y=             -0.5139    Z=             -0.1539  Tot=              0.8952
 Quadrupole moment (field-independent basis, Debye-Ang):
   XX=            -44.3791   YY=            -55.4810   ZZ=            -54.5634
   XY=              2.7566   XZ=             -1.2515   YZ=             -0.3242

  Exact polarizability: 103.624   0.843  85.568  -3.861   2.857  53.483
 Approx polarizability: 137.496   0.731 138.079  -7.628   8.952  81.363

                      1                      2                      3
                      A                      A                      A
 Frequencies --     59.7792               112.8905               127.2578
 Red. masses --      2.4795                 1.4017                 1.9582
 Frc consts  --      0.0052                 0.0105                 0.0187
 IR Inten    --      0.0073                 0.0054                 0.3273

                      4                      5                      6
                      A                      A                      A
 Frequencies --    188.9548               201.4596               262.0263
 Red. masses --      1.5640                 2.0054                 1.3718
 Frc consts  --      0.0329                 0.0480                 0.0555
 IR Inten    --      1.3976                 7.7055                37.5426

                      7                      8                      9
                      A                      A                      A
 Frequencies --    277.1259               283.1045               318.4339
 Red. masses --      2.2184                 1.7418                 4.0400
 Frc consts  --      0.1004                 0.0823                 0.2414
 IR Inten    --     31.4926                12.3834                14.8061

                     10                     11                     12
                      A                      A                      A
 Frequencies --    412.2678               504.2850               592.6863
 Red. masses --      4.4156                 3.2968                 4.4019
 Frc consts  --      0.4422                 0.4940                 0.9110
 IR Inten    --      0.6306                10.4603                 2.0043

                     13                     14                     15
                      A                      A                      A
 Frequencies --    624.4706               646.3391               682.5954
 Red. masses --      4.5752                 4.7735                 4.2151
 Frc consts  --      1.0512                 1.1749                 1.1571
 IR Inten    --      1.7971                 0.0518                 0.1944

                     16                     17                     18
                      A                      A                      A
 Frequencies --    768.7757               790.1309               799.2032
 Red. masses --      1.5036                 1.3543                 2.4673
 Frc consts  --      0.5236                 0.4981                 0.9285
 IR Inten    --      2.8465                20.4753                 2.0026

                     19                     20                     21
                      A                      A                      A
 Frequencies --    962.5243               975.1175              1015.4809
 Red. masses --      2.0110                 2.7741                 2.1603
 Frc consts  --      1.0977                 1.5541                 1.3125
 IR Inten    --      2.1880                15.1505                 3.0779

                     22                     23                     24
                      A                      A                      A
 Frequencies --   1059.7742              1062.8553              1081.3522
 Red. masses --      1.9281                 1.4757                 1.8660
 Frc consts  --      1.2758                 0.9822                 1.2856
 IR Inten    --     11.6548                 2.7169                 4.1890

                     25                     26                     27
                      A                      A                      A
 Frequencies --   1113.2555              1166.7873              1217.8871
 Red. masses --      1.6417                 2.6903                 2.5165
 Frc consts  --      1.1988                 2.1579                 2.1992
 IR Inten    --     29.4919                39.3651                81.0531

                     28                     29                     30
                      A                      A                      A
 Frequencies --   1279.0135              1288.5427              1328.8171
 Red. masses --      2.4042                 1.4116                 2.0874
 Frc consts  --      2.3173                 1.3809                 2.1716
 IR Inten    --     57.9179                37.8045                22.5669

                     31                     32                     33
                      A                      A                      A
 Frequencies --   1362.3313              1406.0273              1415.7538
 Red. masses --      1.6554                 1.2201                 1.2826
 Frc consts  --      1.8102                 1.4211                 1.5146
 IR Inten    --     13.9672                 1.4762                 1.9544

                     34                     35                     36
                      A                      A                      A
 Frequencies --   1468.2240              1472.3088              1482.7035
 Red. masses --      1.1865                 1.0428                 1.3542
 Frc consts  --      1.5069                 1.3318                 1.7540
 IR Inten    --      4.4369                 5.2772                 7.5044

                     37                     38                     39
                      A                      A                      A
 Frequencies --   1495.1283              1500.1534              1510.8844
 Red. masses --      1.0555                 1.4011                 1.3210
 Frc consts  --      1.3902                 1.8578                 1.7767
 IR Inten    --      7.6287                 4.3193                 4.4649

                     40                     41                     42
                      A                      A                      A
 Frequencies --   1616.0202              1691.0434              3007.1237
 Red. masses --      7.2433                 8.1164                 1.0609
 Frc consts  --     11.1450                13.6748                 5.6522
 IR Inten    --      0.2460               102.8187                38.1895

                     43                     44                     45
                      A                      A                      A
 Frequencies --   3028.3166              3038.8626              3040.8429
 Red. masses --      1.0383                 1.0569                 1.0754
 Frc consts  --      5.6103                 5.7507                 5.8590
 IR Inten    --     33.8191                34.0579                21.0286

                     46                     47                     48
                      A                      A                      A
 Frequencies --   3077.3315              3110.3398              3121.0556
 Red. masses --      1.1001                 1.1023                 1.1019
 Frc consts  --      6.1381                 6.2830                 6.3243
 IR Inten    --     16.1702                37.2331                23.8201

                     49                     50                     51
                      A                      A                      A
 Frequencies --   3129.1645              3262.8205              3823.5709
 Red. masses --      1.0981                 1.0976                 1.0657
 Frc consts  --      6.3348                 6.8847                 9.1795
 IR Inten    --     10.3313                 1.7523                27.5890

 - Thermochemistry -
 -------------------
 Temperature   298.150 Kelvin.  Pressure   1.00000 Atm.
 Atom     1 has atomic number  6 and mass  12.00000

 Molecular mass:   126.06808 amu.
 Principal axes and moments of inertia in atomic units:
                           1         2         3
     Eigenvalues --   809.887821327.181452017.95576
           X            0.99989  -0.01458  -0.00001
           Y            0.01458   0.99985  -0.00959
           Z            0.00015   0.00959   0.99995
 This molecule is an asymmetric top.
 Rotational symmetry number  1.
 Warning -- assumption of classical behavior for rotation
           may cause significant error
 Rotational temperatures (Kelvin)      0.10695     0.06526     0.04292
 Rotational constants (GHZ):           2.22838     1.35983     0.89434
 Zero-point vibrational energy     414285.9 (Joules/Mol)
                                   99.01672 (Kcal/Mol)
 Warning -- explicit consideration of  12 degrees of freedom as
           vibrations may cause significant error
 Vibrational temperatures:     86.01   162.42   183.10   271.86   289.86
          (Kelvin)            377.00   398.72   407.32   458.15   593.16
                              725.55   852.74   898.47   929.94   982.10
                             1106.10  1136.82  1149.87  1384.86  1402.97
                             1461.05  1524.78  1529.21  1555.82  1601.72
                             1678.74  1752.27  1840.21  1853.92  1911.87
                             1960.09  2022.96  2036.95  2112.44  2118.32
                             2133.28  2151.15  2158.38  2173.82  2325.09
                             2433.03  4326.57  4357.07  4372.24  4375.09
                             4427.59  4475.08  4490.50  4502.16  4694.47
                             5501.26

 Zero-point correction=                           0.157793 (Hartree/Particle)
 Thermal correction to Energy=                    0.167417
 Thermal correction to Enthalpy=                  0.168361
 Thermal correction to Gibbs Free Energy=         0.123074
 Sum of electronic and zero-point Energies=           -423.068166
 Sum of electronic and thermal Energies=              -423.058542
 Sum of electronic and thermal Enthalpies=            -423.057598
 Sum of electronic and thermal Free Energies=         -423.102885

                     E (Thermal)             CV                S
                      KCal/Mol        Cal/Mol-Kelvin    Cal/Mol-Kelvin
 Total                  105.056             34.957             95.315
 Electronic               0.000              0.000              0.000
 Translational            0.889              2.981             40.409
 Rotational               0.889              2.981             29.163
 Vibrational            103.278             28.996             25.743
 Vibration     1          0.597              1.973              4.464
 Vibration     2          0.607              1.939              3.219
 Vibration     3          0.611              1.926              2.987
 Vibration     4          0.633              1.855              2.238
 Vibration     5          0.638              1.838              2.120
 Vibration     6          0.669              1.742              1.648
 Vibration     7          0.678              1.716              1.551
 Vibration     8          0.682              1.705              1.515
 Vibration     9          0.705              1.638              1.318
 Vibration    10          0.776              1.444              0.919
 Vibration    11          0.860              1.241              0.647
 Vibration    12          0.950              1.047              0.462

 Optimization completed.
    -- Stationary point found.
 Normal termination of Gaussian 09 at Mon Jan 27 11:05:12 2020.
