 Gaussian 09, Revision D.01,
 Gaussian 09:  ES64L-G09RevD.01 24-Apr-2013

 -----------------------------
 # b3lyp 6-31G(2df,p) opt Freq
 -----------------------------

 -----
 titel
 -----
 Symbolic Z-matrix:
 Charge =  0 Multiplicity = 1

 SCF Done:  E(RB3LYP) =  -423.163050552     A.U. after   14 cycles
 Optimization completed.
    -- Stationary point found.
 Normal termination of Gaussian 09 at Mon Jan 27 16:47:18 2020.

 ----------------------------------------------------------------------
 #N Geom=AllCheck Guess=TCheck SCRF=Check GenChk RB3LYP/6-31G(2df,p) Fr
 eq
 ----------------------------------------------------------------------

 Structure from the checkpoint file:  "/scratch/puck/g09_43813246-152a-4104-8944-49a28e624089/Gau-48575.chk"
 -----
 titel
 -----
 Charge =  0 Multiplicity = 1

                         Standard orientation:
 ---------------------------------------------------------------------
 Center     Atomic      Atomic             Coordinates (Angstroms)
 Number     Number       Type             X           Y           Z
 ---------------------------------------------------------------------
      1          6           0        0.470458    1.878582    0.747839
      2          6           0        0.472820    0.418570    0.301577
      3          6           0        0.658799   -0.698272    1.369513
      4          6           0       -0.529572   -1.494685    0.751478
      5          6           0       -0.896267   -0.237408   -0.031843
      6          6           0       -2.197058    0.412636   -0.198597
      7          8           0       -1.519979   -0.209349   -1.302268
      8          6           0        1.402259    0.241471   -0.888930
      9          8           0        2.248278   -0.609504   -0.988863
     10          1           0        0.221439    2.550198   -0.081949
     11          1           0       -0.263262    2.037692    1.543264
     12          1           0        1.453393    2.173692    1.130927
     13          1           0        1.630118   -1.191619    1.341526
     14          1           0        0.451514   -0.337893    2.379237
     15          1           0       -0.189847   -2.294094    0.087926
     16          1           0       -1.284200   -1.891430    1.433628
     17          1           0       -3.097021   -0.098461    0.141615
     18          1           0       -2.270096    1.497976   -0.249096
     19          1           0        1.232936    0.979396   -1.704257
 ---------------------------------------------------------------------

 SCF Done:  E(RB3LYP) =  -423.163050552     A.U. after    1 cycles

 The electronic state is 1-A.
 Alpha  occ. eigenvalues --  -19.15895 -19.14307 -10.27081 -10.25179 -10.24082
 Alpha  occ. eigenvalues --  -10.20782 -10.19405 -10.19031 -10.18892  -1.08021
 Alpha  occ. eigenvalues --   -1.04948  -0.85724  -0.75267  -0.67668  -0.65757
 Alpha  occ. eigenvalues --   -0.63985  -0.59536  -0.52999  -0.50541  -0.49232
 Alpha  occ. eigenvalues --   -0.47632  -0.45135  -0.42681  -0.42464  -0.41815
 Alpha  occ. eigenvalues --   -0.40024  -0.38340  -0.36251  -0.35405  -0.33140
 Alpha  occ. eigenvalues --   -0.32698  -0.30451  -0.27134  -0.24864
 Alpha virt. eigenvalues --   -0.02487   0.07369   0.08992   0.10054   0.11006
 Alpha virt. eigenvalues --    0.11875   0.13635   0.14936   0.15160   0.15766
 Alpha virt. eigenvalues --    0.17257   0.17606   0.18820   0.19728   0.21589

 Mulliken charges:
               1
     1  C   -0.479391
     2  C    0.119880
     3  C   -0.270629
     4  C   -0.318027
     5  C    0.418927
     6  C   -0.265025
     7  O   -0.271754
     8  C    0.140309
     9  O   -0.252494
    10  H    0.126933
    11  H    0.124690
    12  H    0.131269
    13  H    0.129027
    14  H    0.101946
    15  H    0.132614
    16  H    0.108070
    17  H    0.119772
    18  H    0.117290
    19  H    0.086593
 Sum of Mulliken charges =   0.00000

 Dipole moment (field-independent basis, Debye):
    X=             -1.7162    Y=              1.7988    Z=              2.3441  Tot=              3.4170
 Quadrupole moment (field-independent basis, Debye-Ang):
   XX=            -56.5499   YY=            -51.3703   ZZ=            -55.7151
   XY=              2.1169   XZ=             -0.5003   YZ=             -2.0834

  Exact polarizability:  82.561  -3.754  75.874  -1.331  -3.002  68.369
 Approx polarizability: 118.624 -11.787 109.695  -2.548  -1.408 104.575

                      1                      2                      3
                      A                      A                      A
 Frequencies --     67.4454                78.9363               193.5676
 Red. masses --      4.5717                 3.6508                 2.6823
 Frc consts  --      0.0123                 0.0134                 0.0592
 IR Inten    --      3.1358                 1.1604                 3.5363

                      4                      5                      6
                      A                      A                      A
 Frequencies --    211.6353               240.0517               278.0371
 Red. masses --      1.3186                 1.9675                 2.6333
 Frc consts  --      0.0348                 0.0668                 0.1199
 IR Inten    --      0.7656                 2.4829                 4.8752

                      7                      8                      9
                      A                      A                      A
 Frequencies --    299.7122               336.6686               415.4732
 Red. masses --      2.3065                 2.4597                 2.9736
 Frc consts  --      0.1221                 0.1643                 0.3024
 IR Inten    --      2.6566                 0.6938                 2.3857

                     10                     11                     12
                      A                      A                      A
 Frequencies --    447.6945               531.6184               595.5409
 Red. masses --      2.9634                 5.0757                 3.6986
 Frc consts  --      0.3500                 0.8452                 0.7729
 IR Inten    --      2.5464                 7.3875                 0.6716

                     13                     14                     15
                      A                      A                      A
 Frequencies --    698.7419               757.0872               849.3092
 Red. masses --      2.5645                 1.6193                 2.3890
 Frc consts  --      0.7377                 0.5469                 1.0153
 IR Inten    --      4.4532                12.8306                28.4452

                     16                     17                     18
                      A                      A                      A
 Frequencies --    872.4520               882.5036               910.8871
 Red. masses --      2.4181                 1.9082                 2.8535
 Frc consts  --      1.0844                 0.8756                 1.3949
 IR Inten    --     13.6478                 3.2533                27.2909

                     19                     20                     21
                      A                      A                      A
 Frequencies --    929.8002               956.4273               998.7411
 Red. masses --      1.8879                 2.6377                 1.6129
 Frc consts  --      0.9616                 1.4216                 0.9479
 IR Inten    --     11.7652                 3.5560                 2.1538

                     22                     23                     24
                      A                      A                      A
 Frequencies --   1008.2146              1119.1160              1130.2696
 Red. masses --      1.8025                 1.3162                 2.1320
 Frc consts  --      1.0795                 0.9712                 1.6047
 IR Inten    --      5.4072                 4.8154                12.7503

                     25                     26                     27
                      A                      A                      A
 Frequencies --   1138.3864              1157.9002              1171.8597
 Red. masses --      1.5389                 1.8722                 1.6464
 Frc consts  --      1.1750                 1.4789                 1.3321
 IR Inten    --      3.7438                 4.0964                 2.9529

                     28                     29                     30
                      A                      A                      A
 Frequencies --   1205.9376              1223.8950              1236.4785
 Red. masses --      2.5595                 1.5949                 1.6856
 Frc consts  --      2.1931                 1.4075                 1.5184
 IR Inten    --      5.0062                 2.9554                 4.4261

                     31                     32                     33
                      A                      A                      A
 Frequencies --   1271.8127              1285.2473              1401.5539
 Red. masses --      1.6753                 1.9567                 1.3012
 Frc consts  --      1.5966                 1.9043                 1.5060
 IR Inten    --      2.4050                 6.9387                 5.4835

                     34                     35                     36
                      A                      A                      A
 Frequencies --   1415.8602              1425.6662              1468.0981
 Red. masses --      2.0299                 1.2579                 1.0861
 Frc consts  --      2.3975                 1.5063                 1.3792
 IR Inten    --     13.6206                 7.6913                 3.9819

                     37                     38                     39
                      A                      A                      A
 Frequencies --   1487.9106              1493.9389              1495.6820
 Red. masses --      1.1508                 1.0629                 1.0503
 Frc consts  --      1.5010                 1.3977                 1.3843
 IR Inten    --      8.0335                 8.0638                 4.9341

                     40                     41                     42
                      A                      A                      A
 Frequencies --   1531.5196              1823.9495              2887.7803
 Red. masses --      1.4760                10.7045                 1.0833
 Frc consts  --      2.0397                20.9818                 5.3226
 IR Inten    --     11.3973               153.6497                93.2498

                     43                     44                     45
                      A                      A                      A
 Frequencies --   3027.7368              3068.3633              3079.1822
 Red. masses --      1.0354                 1.0580                 1.0616
 Frc consts  --      5.5921                 5.8687                 5.9303
 IR Inten    --     19.7072                20.6709                19.0241

                     46                     47                     48
                      A                      A                      A
 Frequencies --   3081.9113              3093.5002              3107.7141
 Red. masses --      1.0503                 1.1004                 1.1013
 Frc consts  --      5.8778                 6.2046                 6.2670
 IR Inten    --     21.6198                21.1194                16.7908

                     49                     50                     51
                      A                      A                      A
 Frequencies --   3121.3457              3147.4978              3168.9566
 Red. masses --      1.1072                 1.1065                 1.1192
 Frc consts  --      6.3558                 6.4585                 6.6220
 IR Inten    --     12.5623                 9.7269                19.5498

 - Thermochemistry -
 -------------------
 Temperature   298.150 Kelvin.  Pressure   1.00000 Atm.
 Atom     1 has atomic number  6 and mass  12.00000

 Molecular mass:   126.06808 amu.
 Principal axes and moments of inertia in atomic units:
                           1         2         3
     Eigenvalues --   793.083961255.721521295.01913
           X            0.99987   0.01585   0.00147
           Y           -0.01539   0.98620  -0.16487
           Z           -0.00407   0.16482   0.98631
 This molecule is an asymmetric top.
 Rotational symmetry number  1.
 Warning -- assumption of classical behavior for rotation
           may cause significant error
 Rotational temperatures (Kelvin)      0.10921     0.06898     0.06688
 Rotational constants (GHZ):           2.27560     1.43721     1.39360
 Zero-point vibrational energy     411692.5 (Joules/Mol)
                                   98.39687 (Kcal/Mol)
 Warning -- explicit consideration of  12 degrees of freedom as
           vibrations may cause significant error
 Vibrational temperatures:     97.04   113.57   278.50   304.50   345.38
          (Kelvin)            400.03   431.22   484.39   597.77   644.13
                              764.88   856.85  1005.33  1089.28  1221.96
                             1255.26  1269.72  1310.56  1337.77  1376.08
                             1436.96  1450.59  1610.16  1626.20  1637.88
                             1665.96  1686.04  1735.07  1760.91  1779.01
                             1829.85  1849.18  2016.52  2037.10  2051.21
                             2112.26  2140.77  2149.44  2151.95  2203.51
                             2624.25  4154.87  4356.23  4414.68  4430.25
                             4434.18  4450.85  4471.30  4490.91  4528.54
                             4559.42

 Zero-point correction=                           0.156805 (Hartree/Particle)
 Thermal correction to Energy=                    0.165824
 Thermal correction to Enthalpy=                  0.166768
 Thermal correction to Gibbs Free Energy=         0.122914
 Sum of electronic and zero-point Energies=           -423.006245
 Sum of electronic and thermal Energies=              -422.997227
 Sum of electronic and thermal Enthalpies=            -422.996283
 Sum of electronic and thermal Free Energies=         -423.040137

                     E (Thermal)             CV                S
                      KCal/Mol        Cal/Mol-Kelvin    Cal/Mol-Kelvin
 Total                  104.056             33.498             92.299
 Electronic               0.000              0.000              0.000
 Translational            0.889              2.981             40.409
 Rotational               0.889              2.981             28.646
 Vibrational            102.279             27.536             23.244
 Vibration     1          0.598              1.970              4.227
 Vibration     2          0.600              1.963              3.917
 Vibration     3          0.635              1.849              2.193
 Vibration     4          0.643              1.823              2.030
 Vibration     5          0.657              1.779              1.802
 Vibration     6          0.679              1.714              1.546
 Vibration     7          0.692              1.674              1.419
 Vibration     8          0.717              1.602              1.228
 Vibration     9          0.779              1.437              0.907
 Vibration    10          0.807              1.366              0.803
 Vibration    11          0.887              1.180              0.584
 Vibration    12          0.953              1.041              0.457

 Optimization completed.
    -- Stationary point found.
 Normal termination of Gaussian 09 at Mon Jan 27 17:30:59 2020.
