 Gaussian 09, Revision D.01,
 Gaussian 09:  ES64L-G09RevD.01 24-Apr-2013

 -----------------------------
 # b3lyp 6-31G(2df,p) opt Freq
 -----------------------------

 -----
 titel
 -----
 Symbolic Z-matrix:
 Charge =  0 Multiplicity = 1

 SCF Done:  E(RB3LYP) =  -423.145555265     A.U. after   14 cycles
 Optimization completed.
    -- Stationary point found.
 Normal termination of Gaussian 09 at Mon Jan 27 14:21:57 2020.

 ----------------------------------------------------------------------
 #N Geom=AllCheck Guess=TCheck SCRF=Check GenChk RB3LYP/6-31G(2df,p) Fr
 eq
 ----------------------------------------------------------------------

 Structure from the checkpoint file:  "/scratch/puck/g09_8c897883-569b-4cfe-8f6a-fb1bfa002430/Gau-77980.chk"
 -----
 titel
 -----
 Charge =  0 Multiplicity = 1

                         Standard orientation:
 ---------------------------------------------------------------------
 Center     Atomic      Atomic             Coordinates (Angstroms)
 Number     Number       Type             X           Y           Z
 ---------------------------------------------------------------------
      1          6           0       -1.434399   -0.910664    1.384343
      2          6           0       -1.126758   -0.340148   -0.012563
      3          6           0       -1.944523   -1.066478   -1.089438
      4          8           0        0.239608   -0.584811   -0.379967
      5          6           0        1.240205    0.046249    0.385359
      6          6           0        2.538246   -0.033288   -0.398765
      7          8           0        3.621631    0.171071    0.080247
      8          6           0       -1.419377    1.103656   -0.045776
      9          6           0       -1.660656    2.281288   -0.069520
     10          1           0       -0.880083   -0.383619    2.164427
     11          1           0       -2.499855   -0.809961    1.606105
     12          1           0       -1.164961   -1.970537    1.410279
     13          1           0       -1.695966   -0.671963   -2.076647
     14          1           0       -1.706689   -2.133366   -1.065889
     15          1           0       -3.014204   -0.932971   -0.913036
     16          1           0        1.011417    1.111770    0.549787
     17          1           0        1.388413   -0.419487    1.369527
     18          1           0        2.392756   -0.284764   -1.472513
     19          1           0       -1.877167    3.321136   -0.096111
 ---------------------------------------------------------------------

 SCF Done:  E(RB3LYP) =  -423.145555265     A.U. after    1 cycles

 The electronic state is 1-A.
 Alpha  occ. eigenvalues --  -19.15720 -19.14190 -10.27507 -10.27273 -10.24001
 Alpha  occ. eigenvalues --  -10.19127 -10.18996 -10.18764 -10.18686  -1.05576
 Alpha  occ. eigenvalues --   -1.04453  -0.82154  -0.74762  -0.72232  -0.70173
 Alpha  occ. eigenvalues --   -0.62230  -0.58482  -0.54539  -0.51344  -0.48761
 Alpha  occ. eigenvalues --   -0.47362  -0.45937  -0.43766  -0.42486  -0.40647
 Alpha  occ. eigenvalues --   -0.39631  -0.38830  -0.37232  -0.36838  -0.33776
 Alpha  occ. eigenvalues --   -0.28782  -0.27917  -0.27514  -0.25443
 Alpha virt. eigenvalues --   -0.02564   0.03096   0.04504   0.08208   0.11532
 Alpha virt. eigenvalues --    0.11766   0.12757   0.13953   0.14392   0.15715
 Alpha virt. eigenvalues --    0.17590   0.18357   0.18545   0.19388   0.19928

 Mulliken charges:
               1
     1  C   -0.414013
     2  C    0.182783
     3  C   -0.405016
     4  O   -0.276758
     5  C   -0.163011
     6  C    0.147379
     7  O   -0.240428
     8  C    0.354401
     9  C   -0.511831
    10  H    0.128963
    11  H    0.130164
    12  H    0.125969
    13  H    0.134619
    14  H    0.125219
    15  H    0.126320
    16  H    0.133846
    17  H    0.123158
    18  H    0.092883
    19  H    0.205353
 Sum of Mulliken charges =   0.00000

 Dipole moment (field-independent basis, Debye):
    X=             -3.0848    Y=              0.0471    Z=              0.2656  Tot=              3.0966
 Quadrupole moment (field-independent basis, Debye-Ang):
   XX=            -64.3445   YY=            -48.3961   ZZ=            -52.6439
   XY=             -1.0899   XZ=             -1.3658   YZ=             -0.6793

  Exact polarizability:  86.237  -2.951  83.357   1.961   0.516  66.534
 Approx polarizability: 114.581  -7.319 131.402   5.133   2.507  95.428

                      1                      2                      3
                      A                      A                      A
 Frequencies --     48.5057                68.0367               111.8094
 Red. masses --      4.0067                 2.3549                 3.4725
 Frc consts  --      0.0056                 0.0064                 0.0256
 IR Inten    --      0.5269                 6.7746                 3.9572

                      4                      5                      6
                      A                      A                      A
 Frequencies --    139.2247               176.3584               200.7051
 Red. masses --      3.4380                 2.7965                 2.3846
 Frc consts  --      0.0393                 0.0512                 0.0566
 IR Inten    --      3.2229                 0.3786                 5.6370

                      7                      8                      9
                      A                      A                      A
 Frequencies --    213.5679               264.4215               308.9171
 Red. masses --      1.0947                 1.1840                 3.2732
 Frc consts  --      0.0294                 0.0488                 0.1840
 IR Inten    --      0.5570                 1.2934                 1.1331

                     10                     11                     12
                      A                      A                      A
 Frequencies --    346.5357               389.5250               419.8750
 Red. masses --      3.0988                 3.1586                 3.9072
 Frc consts  --      0.2192                 0.2824                 0.4058
 IR Inten    --      7.3379                 0.5495                 4.8708

                     13                     14                     15
                      A                      A                      A
 Frequencies --    532.2326               573.1455               600.8103
 Red. masses --      4.4872                 4.4223                 4.2987
 Frc consts  --      0.7489                 0.8559                 0.9142
 IR Inten    --      9.3484                12.8178                 5.1344

                     16                     17                     18
                      A                      A                      A
 Frequencies --    632.5331               678.0784               719.1653
 Red. masses --      1.2306                 1.2583                 4.0226
 Frc consts  --      0.2901                 0.3409                 1.2258
 IR Inten    --     43.9432                35.1628                 0.8966

                     19                     20                     21
                      A                      A                      A
 Frequencies --    750.4450               886.6696               934.0056
 Red. masses --      1.3517                 2.7795                 1.5143
 Frc consts  --      0.4485                 1.2875                 0.7783
 IR Inten    --      1.3731                29.2948                 0.6479

                     22                     23                     24
                      A                      A                      A
 Frequencies --    955.6467              1019.7257              1054.9035
 Red. masses --      2.1809                 1.3386                 3.3527
 Frc consts  --      1.1735                 0.8201                 2.1982
 IR Inten    --      8.9633                 3.6280                34.9469

                     25                     26                     27
                      A                      A                      A
 Frequencies --   1116.9654              1125.7461              1184.0866
 Red. masses --      1.8899                 5.5209                 2.4291
 Frc consts  --      1.3892                 4.1223                 2.0066
 IR Inten    --      6.9175               116.6982               106.1616

                     28                     29                     30
                      A                      A                      A
 Frequencies --   1202.3085              1243.7024              1250.9798
 Red. masses --      3.2390                 1.1359                 2.8651
 Frc consts  --      2.7586                 1.0352                 2.6417
 IR Inten    --     27.4672                 5.4054                43.6861

                     31                     32                     33
                      A                      A                      A
 Frequencies --   1355.2638              1391.3813              1406.9640
 Red. masses --      1.2939                 1.2361                 1.2949
 Frc consts  --      1.4003                 1.4099                 1.5103
 IR Inten    --      2.1396                10.8617                 1.5386

                     34                     35                     36
                      A                      A                      A
 Frequencies --   1412.3502              1473.4653              1478.1034
 Red. masses --      1.2226                 1.0543                 1.0622
 Frc consts  --      1.4369                 1.3487                 1.3673
 IR Inten    --      7.2041                 4.9882                 4.8223

                     37                     38                     39
                      A                      A                      A
 Frequencies --   1481.8071              1492.3536              1505.5694
 Red. masses --      1.0555                 1.0564                 1.0532
 Frc consts  --      1.3655                 1.3861                 1.4066
 IR Inten    --      3.7022                 1.4973                 5.3480

                     40                     41                     42
                      A                      A                      A
 Frequencies --   1843.6036              2227.3099              2898.3623
 Red. masses --     10.6391                 5.8882                 1.0844
 Frc consts  --     21.3054                17.2106                 5.3672
 IR Inten    --    178.9282                 2.6265                81.2218

                     43                     44                     45
                      A                      A                      A
 Frequencies --   2983.4323              3032.2140              3047.0567
 Red. masses --      1.0583                 1.0972                 1.0357
 Frc consts  --      5.5497                 5.9439                 5.6658
 IR Inten    --     30.9608                14.8812                14.7869

                     46                     47                     48
                      A                      A                      A
 Frequencies --   3053.7938              3125.4089              3128.9134
 Red. masses --      1.0344                 1.1027                 1.1020
 Frc consts  --      5.6833                 6.3464                 6.3567
 IR Inten    --     11.6303                 4.3040                17.9767

                     49                     50                     51
                      A                      A                      A
 Frequencies --   3133.4622              3141.7498              3498.0237
 Red. masses --      1.1021                 1.1030                 1.1626
 Frc consts  --      6.3757                 6.4144                 8.3816
 IR Inten    --     24.6516                15.5155                63.6588

 - Thermochemistry -
 -------------------
 Temperature   298.150 Kelvin.  Pressure   1.00000 Atm.
 Atom     1 has atomic number  6 and mass  12.00000

 Molecular mass:   126.06808 amu.
 Principal axes and moments of inertia in atomic units:
                           1         2         3
     Eigenvalues --   694.826171956.358542197.98376
           X            0.99985   0.01707  -0.00112
           Y           -0.01708   0.99984  -0.00431
           Z            0.00104   0.00433   0.99999
 This molecule is an asymmetric top.
 Rotational symmetry number  1.
 Warning -- assumption of classical behavior for rotation
           may cause significant error
 Rotational temperatures (Kelvin)      0.12466     0.04427     0.03941
 Rotational constants (GHZ):           2.59740     0.92250     0.82109
 Zero-point vibrational energy     402299.5 (Joules/Mol)
                                   96.15188 (Kcal/Mol)
 Warning -- explicit consideration of  15 degrees of freedom as
           vibrations may cause significant error
 Vibrational temperatures:     69.79    97.89   160.87   200.31   253.74
          (Kelvin)            288.77   307.28   380.44   444.46   498.59
                              560.44   604.11   765.76   824.63   864.43
                              910.07   975.60  1034.72  1079.72  1275.72
                             1343.82  1374.96  1467.16  1517.77  1607.06
                             1619.70  1703.63  1729.85  1789.41  1799.88
                             1949.92  2001.88  2024.30  2032.05  2119.99
                             2126.66  2131.99  2147.16  2166.18  2652.53
                             3204.60  4170.09  4292.49  4362.67  4384.03
                             4393.72  4496.76  4501.80  4508.35  4520.27
                             5032.87

 Zero-point correction=                           0.153228 (Hartree/Particle)
 Thermal correction to Energy=                    0.163998
 Thermal correction to Enthalpy=                  0.164942
 Thermal correction to Gibbs Free Energy=         0.116785
 Sum of electronic and zero-point Energies=           -422.992327
 Sum of electronic and thermal Energies=              -422.981557
 Sum of electronic and thermal Enthalpies=            -422.980613
 Sum of electronic and thermal Free Energies=         -423.028771

                     E (Thermal)             CV                S
                      KCal/Mol        Cal/Mol-Kelvin    Cal/Mol-Kelvin
 Total                  102.910             38.085            101.356
 Electronic               0.000              0.000              0.000
 Translational            0.889              2.981             40.409
 Rotational               0.889              2.981             29.481
 Vibrational            101.133             32.124             31.466
 Vibration     1          0.595              1.978              4.877
 Vibration     2          0.598              1.969              4.209
 Vibration     3          0.607              1.940              3.237
 Vibration     4          0.615              1.914              2.815
 Vibration     5          0.628              1.871              2.367
 Vibration     6          0.638              1.839              2.127
 Vibration     7          0.644              1.820              2.013
 Vibration     8          0.671              1.738              1.632
 Vibration     9          0.698              1.657              1.368
 Vibration    10          0.725              1.582              1.182
 Vibration    11          0.757              1.493              1.002
 Vibration    12          0.783              1.427              0.892
 Vibration    13          0.887              1.179              0.582
 Vibration    14          0.929              1.089              0.498
 Vibration    15          0.959              1.030              0.448

 Optimization completed.
    -- Stationary point found.
 Normal termination of Gaussian 09 at Mon Jan 27 14:57:07 2020.
