 Gaussian 09, Revision D.01,
 Gaussian 09:  ES64L-G09RevD.01 24-Apr-2013

 -----------------------------
 # b3lyp 6-31G(2df,p) opt Freq
 -----------------------------

 -----
 titel
 -----
 Symbolic Z-matrix:
 Charge =  0 Multiplicity = 1

 SCF Done:  E(RB3LYP) =  -423.192252152     A.U. after   14 cycles
 Optimization completed.
    -- Stationary point found.
 Normal termination of Gaussian 09 at Mon Jan 27 13:39:03 2020.

 ----------------------------------------------------------------------
 #N Geom=AllCheck Guess=TCheck SCRF=Check GenChk RB3LYP/6-31G(2df,p) Fr
 eq
 ----------------------------------------------------------------------

 Structure from the checkpoint file:  "/scratch/puck/g09_d5dc0d5e-f5f0-455d-9fd3-eda4175ddcf0/Gau-2310.chk"
 -----
 titel
 -----
 Charge =  0 Multiplicity = 1

                         Standard orientation:
 ---------------------------------------------------------------------
 Center     Atomic      Atomic             Coordinates (Angstroms)
 Number     Number       Type             X           Y           Z
 ---------------------------------------------------------------------
      1          8           0        2.990373    0.350556   -0.205314
      2          6           0        2.122452   -0.471874   -0.334612
      3          6           0        0.810692   -0.475188    0.448459
      4          6           0        0.334298    0.942129    0.802879
      5          6           0       -0.556441    1.575567   -0.279127
      6          6           0       -1.958092    1.010722   -0.315994
      7          6           0       -2.311999   -0.251890   -0.080847
      8          6           0       -1.380677   -1.410769    0.170903
      9          8           0       -0.076849   -1.227364   -0.352499
     10          1           0        2.212958   -1.328121   -1.037014
     11          1           0        1.027960   -1.024378    1.385864
     12          1           0       -0.216411    0.925545    1.748603
     13          1           0        1.234484    1.545305    0.961339
     14          1           0       -0.623412    2.651452   -0.084800
     15          1           0       -0.078879    1.483034   -1.264078
     16          1           0       -2.748642    1.725006   -0.535366
     17          1           0       -3.367447   -0.516968   -0.095629
     18          1           0       -1.332837   -1.658053    1.246135
     19          1           0       -1.777363   -2.300538   -0.332510
 ---------------------------------------------------------------------

 SCF Done:  E(RB3LYP) =  -423.192252152     A.U. after    1 cycles

 The electronic state is 1-A.
 Alpha  occ. eigenvalues --  -19.15162 -19.14700 -10.27225 -10.24462 -10.24039
 Alpha  occ. eigenvalues --  -10.18995 -10.18697 -10.18606 -10.18378  -1.05711
 Alpha  occ. eigenvalues --   -1.04312  -0.80768  -0.79257  -0.70101  -0.68927
 Alpha  occ. eigenvalues --   -0.61642  -0.55815  -0.54215  -0.50821  -0.49762
 Alpha  occ. eigenvalues --   -0.47094  -0.44944  -0.43977  -0.43636  -0.41659
 Alpha  occ. eigenvalues --   -0.38919  -0.38325  -0.37194  -0.34741  -0.33679
 Alpha  occ. eigenvalues --   -0.32632  -0.26810  -0.25560  -0.24724
 Alpha virt. eigenvalues --   -0.02922   0.01708   0.08140   0.10620   0.12182
 Alpha virt. eigenvalues --    0.12629   0.13975   0.14545   0.16013   0.16350
 Alpha virt. eigenvalues --    0.17520   0.18841   0.19739   0.22307   0.23353

 Mulliken charges:
               1
     1  O   -0.243283
     2  C    0.147314
     3  C    0.021971
     4  C   -0.241334
     5  C   -0.245524
     6  C   -0.050737
     7  C   -0.046958
     8  C   -0.133232
     9  O   -0.253141
    10  H    0.097008
    11  H    0.092728
    12  H    0.102243
    13  H    0.129331
    14  H    0.104436
    15  H    0.122086
    16  H    0.089718
    17  H    0.087425
    18  H    0.101109
    19  H    0.118840
 Sum of Mulliken charges =   0.00000

 Dipole moment (field-independent basis, Debye):
    X=             -2.2586    Y=             -0.6955    Z=              0.9322  Tot=              2.5404
 Quadrupole moment (field-independent basis, Debye-Ang):
   XX=            -59.0557   YY=            -50.9759   ZZ=            -53.0787
   XY=             -2.1496   XZ=              0.4137   YZ=             -1.2655

  Exact polarizability:  87.828   5.363  84.113  -0.345  -1.301  58.930
 Approx polarizability: 116.848  15.612 130.216  -1.776  -2.773  92.803

                      1                      2                      3
                      A                      A                      A
 Frequencies --     55.2214               108.2432               173.1484
 Red. masses --      4.1530                 2.6568                 2.8318
 Frc consts  --      0.0075                 0.0183                 0.0500
 IR Inten    --      0.6839                 8.8092                 2.2683

                      4                      5                      6
                      A                      A                      A
 Frequencies --    238.3981               270.6511               318.3079
 Red. masses --      2.5249                 4.1913                 3.2866
 Frc consts  --      0.0845                 0.1809                 0.1962
 IR Inten    --      4.4828                 3.0634                 3.3634

                      7                      8                      9
                      A                      A                      A
 Frequencies --    336.1548               412.6776               491.5100
 Red. masses --      2.9740                 2.6388                 3.7076
 Frc consts  --      0.1980                 0.2648                 0.5277
 IR Inten    --      1.6672                 1.2338                 1.0727

                     10                     11                     12
                      A                      A                      A
 Frequencies --    590.1459               616.3660               676.9738
 Red. masses --      2.8445                 1.9891                 1.5814
 Frc consts  --      0.5837                 0.4452                 0.4270
 IR Inten    --      8.1114                12.9788                17.2271

                     13                     14                     15
                      A                      A                      A
 Frequencies --    756.6372               773.9260               855.5166
 Red. masses --      3.1294                 2.8029                 3.3661
 Frc consts  --      1.0556                 0.9891                 1.4516
 IR Inten    --     17.6752                 4.5615                 7.7271

                     16                     17                     18
                      A                      A                      A
 Frequencies --    907.0473               932.0972               963.3942
 Red. masses --      2.7447                 2.6657                 1.5897
 Frc consts  --      1.3305                 1.3645                 0.8693
 IR Inten    --      1.5246                21.9453                 0.1703

                     19                     20                     21
                      A                      A                      A
 Frequencies --    981.6550               999.0519              1039.5929
 Red. masses --      2.3286                 1.1943                 2.0084
 Frc consts  --      1.3221                 0.7023                 1.2789
 IR Inten    --     11.8787                 1.5387                 9.2249

                     22                     23                     24
                      A                      A                      A
 Frequencies --   1050.7807              1090.0624              1107.5989
 Red. masses --      2.1171                 2.3086                 2.5139
 Frc consts  --      1.3772                 1.6162                 1.8171
 IR Inten    --      6.8608                 5.1062                 2.2691

                     25                     26                     27
                      A                      A                      A
 Frequencies --   1176.5783              1194.9763              1230.0007
 Red. masses --      3.9110                 1.1883                 1.0948
 Frc consts  --      3.1899                 0.9998                 0.9759
 IR Inten    --    129.1543                 8.2723                 7.1577

                     28                     29                     30
                      A                      A                      A
 Frequencies --   1256.8444              1291.6329              1320.4272
 Red. masses --      1.1285                 1.2286                 1.4887
 Frc consts  --      1.0503                 1.2076                 1.5293
 IR Inten    --      1.9827                29.0558                 3.7258

                     31                     32                     33
                      A                      A                      A
 Frequencies --   1352.4175              1374.7376              1378.1872
 Red. masses --      1.3619                 1.3197                 1.4632
 Frc consts  --      1.4676                 1.4694                 1.6374
 IR Inten    --      5.4345                 0.4360                 3.0158

                     34                     35                     36
                      A                      A                      A
 Frequencies --   1399.5618              1411.0393              1419.2316
 Red. masses --      1.2703                 1.3575                 1.4652
 Frc consts  --      1.4661                 1.5924                 1.7388
 IR Inten    --      7.2851                10.3159                 2.4313

                     37                     38                     39
                      A                      A                      A
 Frequencies --   1475.8706              1482.0759              1490.4866
 Red. masses --      1.0870                 1.0901                 1.0802
 Frc consts  --      1.3950                 1.4108                 1.4138
 IR Inten    --      3.2159                 5.6797                 8.3951

                     40                     41                     42
                      A                      A                      A
 Frequencies --   1731.3120              1839.9198              2908.6690
 Red. masses --      6.8226                10.7305                 1.0820
 Frc consts  --     12.0490                21.4027                 5.3936
 IR Inten    --      1.7158               127.1318                60.3286

                     43                     44                     45
                      A                      A                      A
 Frequencies --   2914.9516              2950.3371              3019.6792
 Red. masses --      1.0821                 1.0712                 1.0664
 Frc consts  --      5.4170                 5.4937                 5.7289
 IR Inten    --     74.1723                50.1724                17.6425

                     46                     47                     48
                      A                      A                      A
 Frequencies --   3047.1397              3048.6165              3065.1825
 Red. masses --      1.0642                 1.0886                 1.0905
 Frc consts  --      5.8220                 5.9611                 6.0363
 IR Inten    --     13.3212                33.3254                29.1194

                     49                     50                     51
                      A                      A                      A
 Frequencies --   3092.4538              3136.2753              3160.1339
 Red. masses --      1.1036                 1.0831                 1.0955
 Frc consts  --      6.2182                 6.2772                 6.4458
 IR Inten    --     10.7367                 6.9295                35.8494

 - Thermochemistry -
 -------------------
 Temperature   298.150 Kelvin.  Pressure   1.00000 Atm.
 Atom     1 has atomic number  8 and mass  15.99491

 Molecular mass:   126.06808 amu.
 Principal axes and moments of inertia in atomic units:
                           1         2         3
     Eigenvalues --   581.561611436.297201822.91109
           X            0.99999  -0.00335   0.00209
           Y            0.00338   0.99993  -0.01090
           Z           -0.00205   0.01091   0.99994
 This molecule is an asymmetric top.
 Rotational symmetry number  1.
 Warning -- assumption of classical behavior for rotation
           may cause significant error
 Rotational temperatures (Kelvin)      0.14893     0.06030     0.04751
 Rotational constants (GHZ):           3.10327     1.25652     0.99003
 Zero-point vibrational energy     418178.0 (Joules/Mol)
                                   99.94693 (Kcal/Mol)
 Warning -- explicit consideration of  11 degrees of freedom as
           vibrations may cause significant error
 Vibrational temperatures:     79.45   155.74   249.12   343.00   389.41
          (Kelvin)            457.97   483.65   593.75   707.17   849.09
                              886.81   974.01  1088.63  1113.51  1230.90
                             1305.04  1341.08  1386.11  1412.38  1437.41
                             1495.74  1511.84  1568.35  1593.59  1692.83
                             1719.30  1769.69  1808.32  1858.37  1899.80
                             1945.82  1977.94  1982.90  2013.65  2030.17
                             2041.96  2123.45  2132.37  2144.48  2490.97
                             2647.23  4184.92  4193.96  4244.87  4344.64
                             4384.15  4386.27  4410.11  4449.35  4512.39
                             4546.72

 Zero-point correction=                           0.159276 (Hartree/Particle)
 Thermal correction to Energy=                    0.167682
 Thermal correction to Enthalpy=                  0.168626
 Thermal correction to Gibbs Free Energy=         0.125782
 Sum of electronic and zero-point Energies=           -423.032977
 Sum of electronic and thermal Energies=              -423.024570
 Sum of electronic and thermal Enthalpies=            -423.023626
 Sum of electronic and thermal Free Energies=         -423.066470

                     E (Thermal)             CV                S
                      KCal/Mol        Cal/Mol-Kelvin    Cal/Mol-Kelvin
 Total                  105.222             31.523             90.173
 Electronic               0.000              0.000              0.000
 Translational            0.889              2.981             40.409
 Rotational               0.889              2.981             28.811
 Vibrational            103.445             25.561             20.953
 Vibration     1          0.596              1.975              4.621
 Vibration     2          0.606              1.943              3.300
 Vibration     3          0.627              1.876              2.401
 Vibration     4          0.656              1.782              1.815
 Vibration     5          0.674              1.727              1.592
 Vibration     6          0.705              1.639              1.319
 Vibration     7          0.717              1.603              1.230
 Vibration     8          0.776              1.443              0.917
 Vibration     9          0.847              1.269              0.680
 Vibration    10          0.947              1.053              0.467
 Vibration    11          0.976              0.997              0.422

 Optimization completed.
    -- Stationary point found.
 Normal termination of Gaussian 09 at Mon Jan 27 15:31:31 2020.
