 Gaussian 09, Revision D.01,
 Gaussian 09:  ES64L-G09RevD.01 24-Apr-2013

 -----------------------------
 # b3lyp 6-31G(2df,p) opt Freq
 -----------------------------

 -----
 titel
 -----
 Symbolic Z-matrix:
 Charge =  0 Multiplicity = 1

 SCF Done:  E(RB3LYP) =  -423.152456420     A.U. after   14 cycles
 Optimization completed.
    -- Stationary point found.
 Normal termination of Gaussian 09 at Mon Jan 27 14:12:59 2020.

 ----------------------------------------------------------------------
 #N Geom=AllCheck Guess=TCheck SCRF=Check GenChk RB3LYP/6-31G(2df,p) Fr
 eq
 ----------------------------------------------------------------------

 Structure from the checkpoint file:  "/scratch/puck/g09_f46f2378-1e3d-47ed-a0ac-31962e14bf8e/Gau-171153.chk"
 -----
 titel
 -----
 Charge =  0 Multiplicity = 1

                         Standard orientation:
 ---------------------------------------------------------------------
 Center     Atomic      Atomic             Coordinates (Angstroms)
 Number     Number       Type             X           Y           Z
 ---------------------------------------------------------------------
      1          6           0        2.449711    1.275061   -0.413771
      2          6           0        2.096225   -0.129756    0.041788
      3          8           0        2.729949   -0.701658    0.897894
      4          6           0        0.897722   -0.800489   -0.632981
      5          6           0       -0.390634   -0.003454   -0.516269
      6          6           0       -1.678396   -0.805929   -0.441991
      7          6           0       -2.858360    0.150176   -0.314354
      8          8           0       -2.228488    0.843118    0.799835
      9          6           0       -1.146009   -0.088244    0.777957
     10          1           0        2.520179    1.328015   -1.505767
     11          1           0        1.663037    1.974969   -0.110410
     12          1           0        3.394103    1.580428    0.037764
     13          1           0        1.135584   -0.954931   -1.694610
     14          1           0        0.787194   -1.787256   -0.173824
     15          1           0       -0.412415    0.951881   -1.037827
     16          1           0       -1.727344   -1.860015   -0.679794
     17          1           0       -3.069616    0.819521   -1.156902
     18          1           0       -3.783420   -0.336593    0.014203
     19          1           0       -0.740535   -0.431897    1.723058
 ---------------------------------------------------------------------

 SCF Done:  E(RB3LYP) =  -423.152456420     A.U. after    1 cycles

 The electronic state is 1-A.
 Alpha  occ. eigenvalues --  -19.14185 -19.12869 -10.27169 -10.24431 -10.24082
 Alpha  occ. eigenvalues --  -10.20718 -10.20348 -10.19973 -10.18964  -1.05581
 Alpha  occ. eigenvalues --   -1.03956  -0.85156  -0.76643  -0.71981  -0.69831
 Alpha  occ. eigenvalues --   -0.59745  -0.55807  -0.53981  -0.50813  -0.49523
 Alpha  occ. eigenvalues --   -0.46449  -0.46260  -0.44551  -0.43155  -0.41012
 Alpha  occ. eigenvalues --   -0.39958  -0.38720  -0.37112  -0.34944  -0.34567
 Alpha  occ. eigenvalues --   -0.33033  -0.28294  -0.24720  -0.23393
 Alpha virt. eigenvalues --   -0.01251   0.07018   0.08852   0.10576   0.11425
 Alpha virt. eigenvalues --    0.11936   0.13691   0.14248   0.15054   0.15262
 Alpha virt. eigenvalues --    0.16714   0.17557   0.18562   0.19735   0.21436

 Mulliken charges:
               1
     1  C   -0.479589
     2  C    0.393641
     3  O   -0.295751
     4  C   -0.337656
     5  C   -0.056438
     6  C   -0.147313
     7  C   -0.097012
     8  O   -0.288709
     9  C    0.105130
    10  H    0.132595
    11  H    0.153284
    12  H    0.142922
    13  H    0.118564
    14  H    0.120353
    15  H    0.092764
    16  H    0.103660
    17  H    0.106296
    18  H    0.113721
    19  H    0.119539
 Sum of Mulliken charges =   0.00000

 Dipole moment (field-independent basis, Debye):
    X=             -1.1556    Y=             -0.0838    Z=             -2.6629  Tot=              2.9040
 Quadrupole moment (field-independent basis, Debye-Ang):
   XX=            -57.8617   YY=            -53.3659   ZZ=            -53.8882
   XY=              6.9583   XZ=             -2.2142   YZ=             -0.3675

  Exact polarizability:  92.548   0.999  68.570   3.879  -2.766  66.807
 Approx polarizability: 116.564  -3.005 104.275   8.855  -4.407 109.711

                      1                      2                      3
                      A                      A                      A
 Frequencies --     18.6863                58.8930               106.3393
 Red. masses --      3.9531                 3.2906                 2.7417
 Frc consts  --      0.0008                 0.0067                 0.0183
 IR Inten    --      4.7770                 0.3245                 0.8410

                      4                      5                      6
                      A                      A                      A
 Frequencies --    130.8057               233.6266               282.6782
 Red. masses --      1.2753                 2.8217                 3.6004
 Frc consts  --      0.0129                 0.0907                 0.1695
 IR Inten    --      0.8957                 0.3362                 1.2694

                      7                      8                      9
                      A                      A                      A
 Frequencies --    340.2141               395.1142               439.8856
 Red. masses --      2.2591                 2.5101                 3.6820
 Frc consts  --      0.1541                 0.2309                 0.4198
 IR Inten    --      5.0472                 1.5666                 3.0809

                     10                     11                     12
                      A                      A                      A
 Frequencies --    543.5733               584.9069               754.6512
 Red. masses --      3.3206                 2.4675                 3.2537
 Frc consts  --      0.5781                 0.4974                 1.0917
 IR Inten    --     15.5375                 1.1568                 4.2019

                     13                     14                     15
                      A                      A                      A
 Frequencies --    771.6449               791.8431               843.3614
 Red. masses --      2.1955                 2.5329                 1.5325
 Frc consts  --      0.7702                 0.9357                 0.6422
 IR Inten    --      4.5706                11.3854                 4.8345

                     16                     17                     18
                      A                      A                      A
 Frequencies --    911.0179               922.6267               953.0050
 Red. masses --      1.8659                 2.6375                 3.5168
 Frc consts  --      0.9124                 1.3228                 1.8819
 IR Inten    --     12.3016                 4.3717                17.9857

                     19                     20                     21
                      A                      A                      A
 Frequencies --    987.8367               992.7014              1026.0274
 Red. masses --      1.5552                 2.0475                 1.9896
 Frc consts  --      0.8941                 1.1888                 1.2340
 IR Inten    --     21.9136                46.2971                 6.7322

                     22                     23                     24
                      A                      A                      A
 Frequencies --   1036.4925              1049.2719              1083.7061
 Red. masses --      1.5714                 2.3267                 2.6822
 Frc consts  --      0.9946                 1.5093                 1.8559
 IR Inten    --      0.8037                21.2768                 7.5460

                     25                     26                     27
                      A                      A                      A
 Frequencies --   1108.3876              1124.7263              1155.6892
 Red. masses --      1.5242                 2.1274                 1.5886
 Frc consts  --      1.1033                 1.5856                 1.2501
 IR Inten    --      1.2981                 6.4104                18.4918

                     28                     29                     30
                      A                      A                      A
 Frequencies --   1159.5109              1225.6923              1246.6513
 Red. masses --      1.2435                 2.3397                 1.4572
 Frc consts  --      0.9850                 2.0709                 1.3343
 IR Inten    --      1.6612                26.1885                27.4419

                     31                     32                     33
                      A                      A                      A
 Frequencies --   1249.2015              1274.0825              1325.0977
 Red. masses --      1.5165                 1.4542                 1.6063
 Frc consts  --      1.3943                 1.3908                 1.6617
 IR Inten    --     21.3783                13.6775                 2.6332

                     34                     35                     36
                      A                      A                      A
 Frequencies --   1344.7979              1381.6097              1428.6456
 Red. masses --      1.4199                 1.3212                 2.4645
 Frc consts  --      1.5129                 1.4859                 2.9637
 IR Inten    --      5.9153                37.4894                 5.1078

                     37                     38                     39
                      A                      A                      A
 Frequencies --   1462.8468              1465.3780              1479.9556
 Red. masses --      1.0639                 1.0714                 1.0527
 Frc consts  --      1.3414                 1.3555                 1.3585
 IR Inten    --      5.6781                 7.2223                11.1290

                     40                     41                     42
                      A                      A                      A
 Frequencies --   1515.3388              1814.5387              3017.5458
 Red. masses --      1.1053                10.5990                 1.0647
 Frc consts  --      1.4953                20.5612                 5.7121
 IR Inten    --      1.1262               160.6620                18.7471

                     43                     44                     45
                      A                      A                      A
 Frequencies --   3023.2417              3038.0700              3072.9351
 Red. masses --      1.0549                 1.0371                 1.1113
 Frc consts  --      5.6805                 5.6399                 6.1831
 IR Inten    --     77.3327                 2.5527                35.6508

                     46                     47                     48
                      A                      A                      A
 Frequencies --   3090.4451              3098.9164              3121.0082
 Red. masses --      1.0955                 1.0983                 1.0884
 Frc consts  --      6.1647                 6.2142                 6.2464
 IR Inten    --      3.5617                10.6633                18.1813

                     49                     50                     51
                      A                      A                      A
 Frequencies --   3153.4485              3177.7761              3203.7509
 Red. masses --      1.1017                 1.0912                 1.0963
 Frc consts  --      6.4551                 6.4923                 6.6298
 IR Inten    --     10.0453                12.3838                 8.1493

 - Thermochemistry -
 -------------------
 Temperature   298.150 Kelvin.  Pressure   1.00000 Atm.
 Atom     1 has atomic number  6 and mass  12.00000

 Molecular mass:   126.06808 amu.
 Principal axes and moments of inertia in atomic units:
                           1         2         3
     Eigenvalues --   454.252082099.518212162.56277
           X            0.99969   0.02396  -0.00661
           Y           -0.02449   0.99484  -0.09848
           Z            0.00422   0.09861   0.99512
 This molecule is an asymmetric top.
 Rotational symmetry number  1.
 Warning -- assumption of classical behavior for rotation
           may cause significant error
 Rotational temperatures (Kelvin)      0.19067     0.04125     0.04005
 Rotational constants (GHZ):           3.97299     0.85960     0.83454
 Zero-point vibrational energy     412820.5 (Joules/Mol)
                                   98.66647 (Kcal/Mol)
 Warning -- explicit consideration of  11 degrees of freedom as
           vibrations may cause significant error
 Vibrational temperatures:     26.89    84.73   153.00   188.20   336.14
          (Kelvin)            406.71   489.49   568.48   632.90   782.08
                              841.55  1085.77  1110.22  1139.28  1213.41
                             1310.75  1327.45  1371.16  1421.27  1428.27
                             1476.22  1491.28  1509.67  1559.21  1594.72
                             1618.23  1662.78  1668.28  1763.50  1793.65
                             1797.32  1833.12  1906.52  1934.86  1987.83
                             2055.50  2104.71  2108.35  2129.32  2180.23
                             2610.71  4341.57  4349.77  4371.10  4421.26
                             4446.46  4458.64  4490.43  4537.10  4572.11
                             4609.48

 Zero-point correction=                           0.157235 (Hartree/Particle)
 Thermal correction to Energy=                    0.166329
 Thermal correction to Enthalpy=                  0.167273
 Thermal correction to Gibbs Free Energy=         0.121325
 Sum of electronic and zero-point Energies=           -422.995221
 Sum of electronic and thermal Energies=              -422.986127
 Sum of electronic and thermal Enthalpies=            -422.985183
 Sum of electronic and thermal Free Energies=         -423.031132

                     E (Thermal)             CV                S
                      KCal/Mol        Cal/Mol-Kelvin    Cal/Mol-Kelvin
 Total                  104.373             32.626             96.707
 Electronic               0.000              0.000              0.000
 Translational            0.889              2.981             40.409
 Rotational               0.889              2.981             29.113
 Vibrational            102.596             26.664             27.186
 Vibration     1          0.593              1.986              6.769
 Vibration     2          0.596              1.974              4.494
 Vibration     3          0.605              1.944              3.335
 Vibration     4          0.612              1.923              2.934
 Vibration     5          0.654              1.789              1.851
 Vibration     6          0.682              1.706              1.517
 Vibration     7          0.720              1.595              1.211
 Vibration     8          0.762              1.481              0.981
 Vibration     9          0.800              1.383              0.827
 Vibration    10          0.899              1.154              0.558
 Vibration    11          0.942              1.064              0.476

 Optimization completed.
    -- Stationary point found.
 Normal termination of Gaussian 09 at Mon Jan 27 14:54:57 2020.
