 Gaussian 09, Revision D.01,
 Gaussian 09:  ES64L-G09RevD.01 24-Apr-2013

 -----------------------------
 # b3lyp 6-31G(2df,p) opt Freq
 -----------------------------

 -----
 titel
 -----
 Symbolic Z-matrix:
 Charge =  0 Multiplicity = 1

 SCF Done:  E(RB3LYP) =  -423.220266710     A.U. after   14 cycles
 Optimization completed.
    -- Stationary point found.
 Normal termination of Gaussian 09 at Tue Jan 28 00:42:23 2020.

 ----------------------------------------------------------------------
 #N Geom=AllCheck Guess=TCheck SCRF=Check GenChk RB3LYP/6-31G(2df,p) Fr
 eq
 ----------------------------------------------------------------------

 Structure from the checkpoint file:  "/scratch/puck/g09_f4fb654f-1f8d-4ee7-abff-cb3bc1d40efd/Gau-71663.chk"
 -----
 titel
 -----
 Charge =  0 Multiplicity = 1

                         Standard orientation:
 ---------------------------------------------------------------------
 Center     Atomic      Atomic             Coordinates (Angstroms)
 Number     Number       Type             X           Y           Z
 ---------------------------------------------------------------------
      1          6           0       -2.935167    0.034042   -0.194124
      2          6           0       -1.439514    0.162591   -0.102282
      3          6           0       -0.845537    1.237633    0.419185
      4          6           0        0.646562    1.425221    0.524416
      5          6           0        1.421473    0.377154   -0.256255
      6          8           0        2.444767    0.612678   -0.854800
      7          6           0        0.811860   -1.025808   -0.197544
      8          8           0        0.814926   -1.470080    1.160676
      9          6           0       -0.645014   -0.998372   -0.660702
     10          1           0       -3.256494   -0.123914   -1.232071
     11          1           0       -3.291710   -0.833154    0.376344
     12          1           0       -3.441997    0.924802    0.185709
     13          1           0       -1.456417    2.050693    0.804892
     14          1           0        0.962387    2.413847    0.175486
     15          1           0        0.956974    1.355230    1.578138
     16          1           0        1.409628   -1.690161   -0.834244
     17          1           0        1.732323   -1.590152    1.428658
     18          1           0       -0.674563   -0.972628   -1.759219
     19          1           0       -1.105654   -1.950109   -0.366863
 ---------------------------------------------------------------------

 SCF Done:  E(RB3LYP) =  -423.220266710     A.U. after    1 cycles

 The electronic state is 1-A.
 Alpha  occ. eigenvalues --  -19.15136 -19.13237 -10.26535 -10.23978 -10.19370
 Alpha  occ. eigenvalues --  -10.19263 -10.19178 -10.18261 -10.18190  -1.04628
 Alpha  occ. eigenvalues --   -1.02633  -0.83423  -0.75654  -0.74726  -0.66699
 Alpha  occ. eigenvalues --   -0.63265  -0.57014  -0.53555  -0.48411  -0.47093
 Alpha  occ. eigenvalues --   -0.46155  -0.44133  -0.43078  -0.41525  -0.41224
 Alpha  occ. eigenvalues --   -0.38982  -0.38518  -0.37698  -0.35927  -0.34934
 Alpha  occ. eigenvalues --   -0.32470  -0.30035  -0.24239  -0.23240
 Alpha virt. eigenvalues --   -0.02033   0.02355   0.07083   0.10335   0.11917
 Alpha virt. eigenvalues --    0.12935   0.14650   0.15409   0.17154   0.17462
 Alpha virt. eigenvalues --    0.17870   0.18379   0.19255   0.20263   0.23302

 Mulliken charges:
               1
     1  C   -0.478460
     2  C    0.327586
     3  C   -0.145800
     4  C   -0.346840
     5  C    0.359700
     6  O   -0.318282
     7  C    0.013152
     8  O   -0.432657
     9  C   -0.311073
    10  H    0.122786
    11  H    0.127442
    12  H    0.121728
    13  H    0.083692
    14  H    0.127475
    15  H    0.136499
    16  H    0.082837
    17  H    0.292779
    18  H    0.119550
    19  H    0.117887
 Sum of Mulliken charges =   0.00000

 Dipole moment (field-independent basis, Debye):
    X=             -1.3556    Y=             -0.5749    Z=              0.6842  Tot=              1.6236
 Quadrupole moment (field-independent basis, Debye-Ang):
   XX=            -55.6139   YY=            -51.4726   ZZ=            -53.7017
   XY=             -3.7394   XZ=              5.9062   YZ=              2.6516

  Exact polarizability:  90.897   5.434  79.279   0.805   7.376  64.032
 Approx polarizability: 124.015  14.183 119.654  -1.523  11.156 103.317

                      1                      2                      3
                      A                      A                      A
 Frequencies --     61.7484               101.2604               179.3370
 Red. masses --      4.5180                 3.4126                 1.2356
 Frc consts  --      0.0101                 0.0206                 0.0234
 IR Inten    --      3.0986                 2.8691                 1.5276

                      4                      5                      6
                      A                      A                      A
 Frequencies --    223.5776               253.9834               316.3905
 Red. masses --      3.8203                 1.8342                 2.6063
 Frc consts  --      0.1125                 0.0697                 0.1537
 IR Inten    --      2.5441                 3.1774                 4.2399

                      7                      8                      9
                      A                      A                      A
 Frequencies --    336.7926               362.8516               420.8491
 Red. masses --      2.0258                 1.2921                 3.4595
 Frc consts  --      0.1354                 0.1002                 0.3610
 IR Inten    --     22.1552                78.7638                 0.5841

                     10                     11                     12
                      A                      A                      A
 Frequencies --    456.3503               475.3691               565.8800
 Red. masses --      2.9424                 4.6390                 3.2088
 Frc consts  --      0.3610                 0.6176                 0.6054
 IR Inten    --      2.4109                15.5788                 1.6198

                     13                     14                     15
                      A                      A                      A
 Frequencies --    606.8526               722.8841               747.6615
 Red. masses --      3.5482                 3.5679                 4.3838
 Frc consts  --      0.7699                 1.0985                 1.4438
 IR Inten    --     10.9858                 2.2305                 3.0169

                     16                     17                     18
                      A                      A                      A
 Frequencies --    800.6742               889.9295               936.4049
 Red. masses --      1.4319                 2.1271                 2.3136
 Frc consts  --      0.5409                 0.9925                 1.1953
 IR Inten    --      3.8045                17.4488                16.8805

                     19                     20                     21
                      A                      A                      A
 Frequencies --    956.9845               971.4152              1009.9289
 Red. masses --      2.5572                 2.1097                 1.6114
 Frc consts  --      1.3798                 1.1729                 0.9683
 IR Inten    --      2.6170                 0.4141                 2.2898

                     22                     23                     24
                      A                      A                      A
 Frequencies --   1052.3179              1069.9554              1092.0429
 Red. masses --      1.6995                 1.7264                 2.6689
 Frc consts  --      1.1088                 1.1644                 1.8752
 IR Inten    --     14.2990                16.8730                25.5032

                     25                     26                     27
                      A                      A                      A
 Frequencies --   1169.1454              1171.6006              1204.7990
 Red. masses --      1.7543                 2.1013                 1.5441
 Frc consts  --      1.4128                 1.6994                 1.3205
 IR Inten    --      6.2741                 4.4382                19.4570

                     28                     29                     30
                      A                      A                      A
 Frequencies --   1220.1795              1258.1044              1310.2230
 Red. masses --      1.1297                 1.5030                 1.6851
 Frc consts  --      0.9910                 1.4017                 1.7044
 IR Inten    --     22.1080                11.1072                12.2535

                     31                     32                     33
                      A                      A                      A
 Frequencies --   1341.0079              1359.0660              1392.5316
 Red. masses --      1.5734                 1.5102                 1.8642
 Frc consts  --      1.6671                 1.6435                 2.1298
 IR Inten    --     20.5458                12.7282                 2.4282

                     34                     35                     36
                      A                      A                      A
 Frequencies --   1408.1935              1414.8333              1442.8234
 Red. masses --      1.3949                 1.2529                 1.0858
 Frc consts  --      1.6298                 1.4776                 1.3318
 IR Inten    --     10.4611                 1.1294                 6.1058

                     37                     38                     39
                      A                      A                      A
 Frequencies --   1460.1691              1478.7940              1491.0852
 Red. masses --      1.0914                 1.0455                 1.0598
 Frc consts  --      1.3710                 1.3471                 1.3882
 IR Inten    --      3.1812                 7.0526                 5.5422

                     40                     41                     42
                      A                      A                      A
 Frequencies --   1746.1490              1821.9646              3001.4849
 Red. masses --      6.9292                11.6262                 1.0683
 Frc consts  --     12.4479                22.7388                 5.6704
 IR Inten    --      0.7108               179.6094                14.6161

                     43                     44                     45
                      A                      A                      A
 Frequencies --   3008.7873              3015.5572              3031.4665
 Red. masses --      1.0607                 1.0422                 1.0834
 Frc consts  --      5.6573                 5.5840                 5.8660
 IR Inten    --      3.5366                42.0422                53.9769

                     46                     47                     48
                      A                      A                      A
 Frequencies --   3048.5458              3060.8856              3073.9453
 Red. masses --      1.0981                 1.0984                 1.0906
 Frc consts  --      6.0128                 6.0632                 6.0715
 IR Inten    --     11.6760                22.8514                10.7252

                     49                     50                     51
                      A                      A                      A
 Frequencies --   3113.2353              3149.1553              3811.2191
 Red. masses --      1.0990                 1.0894                 1.0665
 Frc consts  --      6.2757                 6.3653                 9.1271
 IR Inten    --     18.3693                23.5656                28.9732

 - Thermochemistry -
 -------------------
 Temperature   298.150 Kelvin.  Pressure   1.00000 Atm.
 Atom     1 has atomic number  6 and mass  12.00000

 Molecular mass:   126.06808 amu.
 Principal axes and moments of inertia in atomic units:
                           1         2         3
     Eigenvalues --   679.244121375.520641654.07614
           X            0.99975  -0.01068   0.01950
           Y            0.00923   0.99727   0.07321
           Z           -0.02023  -0.07301   0.99713
 This molecule is an asymmetric top.
 Rotational symmetry number  1.
 Warning -- assumption of classical behavior for rotation
           may cause significant error
 Rotational temperatures (Kelvin)      0.12751     0.06297     0.05236
 Rotational constants (GHZ):           2.65698     1.31204     1.09109
 Zero-point vibrational energy     416398.5 (Joules/Mol)
                                   99.52163 (Kcal/Mol)
 Warning -- explicit consideration of  13 degrees of freedom as
           vibrations may cause significant error
 Vibrational temperatures:     88.84   145.69   258.03   321.68   365.43
          (Kelvin)            455.21   484.57   522.06   605.51   656.59
                              683.95   814.17   873.12  1040.07  1075.72
                             1151.99  1280.41  1347.28  1376.89  1397.65
                             1453.06  1514.05  1539.43  1571.20  1682.14
                             1685.67  1733.43  1755.56  1810.13  1885.12
                             1929.41  1955.39  2003.54  2026.07  2035.63
                             2075.90  2100.85  2127.65  2145.34  2512.32
                             2621.40  4318.46  4328.97  4338.71  4361.60
                             4386.17  4403.93  4422.72  4479.25  4530.93
                             5483.49

 Zero-point correction=                           0.158598 (Hartree/Particle)
 Thermal correction to Energy=                    0.167566
 Thermal correction to Enthalpy=                  0.168510
 Thermal correction to Gibbs Free Energy=         0.124822
 Sum of electronic and zero-point Energies=           -423.061669
 Sum of electronic and thermal Energies=              -423.052700
 Sum of electronic and thermal Enthalpies=            -423.051756
 Sum of electronic and thermal Free Energies=         -423.095445

                     E (Thermal)             CV                S
                      KCal/Mol        Cal/Mol-Kelvin    Cal/Mol-Kelvin
 Total                  105.149             33.676             91.951
 Electronic               0.000              0.000              0.000
 Translational            0.889              2.981             40.409
 Rotational               0.889              2.981             28.826
 Vibrational            103.372             27.715             22.716
 Vibration     1          0.597              1.973              4.401
 Vibration     2          0.604              1.948              3.430
 Vibration     3          0.629              1.868              2.335
 Vibration     4          0.649              1.805              1.930
 Vibration     5          0.665              1.756              1.703
 Vibration     6          0.703              1.642              1.329
 Vibration     7          0.718              1.602              1.227
 Vibration     8          0.737              1.549              1.110
 Vibration     9          0.783              1.425              0.889
 Vibration    10          0.815              1.347              0.777
 Vibration    11          0.832              1.305              0.723
 Vibration    12          0.922              1.105              0.512
 Vibration    13          0.966              1.017              0.438

 Optimization completed.
    -- Stationary point found.
 Normal termination of Gaussian 09 at Tue Jan 28 01:24:00 2020.
