 Gaussian 09, Revision D.01,
 Gaussian 09:  ES64L-G09RevD.01 24-Apr-2013

 -----------------------------
 # b3lyp 6-31G(2df,p) opt Freq
 -----------------------------

 -----
 titel
 -----
 Symbolic Z-matrix:
 Charge =  0 Multiplicity = 1

 SCF Done:  E(RB3LYP) =  -423.159231505     A.U. after   14 cycles
 Optimization completed.
    -- Stationary point found.
 Normal termination of Gaussian 09 at Tue Jan 28 14:09:49 2020.

 ----------------------------------------------------------------------
 #N Geom=AllCheck Guess=TCheck SCRF=Check GenChk RB3LYP/6-31G(2df,p) Fr
 eq
 ----------------------------------------------------------------------

 Structure from the checkpoint file:  "/scratch/puck/g09_fd2e2b31-6fc2-49b4-9e6d-59bb4a755b65/Gau-3989.chk"
 -----
 titel
 -----
 Charge =  0 Multiplicity = 1

                         Standard orientation:
 ---------------------------------------------------------------------
 Center     Atomic      Atomic             Coordinates (Angstroms)
 Number     Number       Type             X           Y           Z
 ---------------------------------------------------------------------
      1          6           0       -3.404269    0.164765   -0.085397
      2          8           0       -2.062476    0.309381    0.313588
      3          6           0       -1.164869   -0.399375   -0.514834
      4          6           0        0.229994   -0.165707   -0.013803
      5          6           0        0.771251    1.256490    0.139184
      6          6           0        2.263580    1.081143   -0.054597
      7          6           0        2.594200   -0.183237   -0.330155
      8          6           0        1.376685   -1.048576   -0.302774
      9          8           0        0.716885   -1.068786    0.985695
     10          1           0       -3.731302   -0.886211   -0.045489
     11          1           0       -4.015607    0.751080    0.604614
     12          1           0       -3.568573    0.535290   -1.110306
     13          1           0       -1.381859   -1.479041   -0.501807
     14          1           0       -1.252384   -0.048979   -1.558955
     15          1           0        0.335875    1.932043   -0.608032
     16          1           0        0.521180    1.670600    1.121800
     17          1           0        2.962674    1.902541    0.056510
     18          1           0        3.592501   -0.561863   -0.509738
     19          1           0        1.302792   -1.973243   -0.868604
 ---------------------------------------------------------------------

 SCF Done:  E(RB3LYP) =  -423.159231505     A.U. after    1 cycles

 The electronic state is 1-A.
 Alpha  occ. eigenvalues --  -19.14226 -19.14130 -10.23544 -10.23311 -10.23224
 Alpha  occ. eigenvalues --  -10.22564 -10.18878 -10.18807 -10.18303  -1.06483
 Alpha  occ. eigenvalues --   -1.03423  -0.81711  -0.75369  -0.70156  -0.66605
 Alpha  occ. eigenvalues --   -0.63122  -0.56106  -0.54792  -0.51627  -0.48252
 Alpha  occ. eigenvalues --   -0.47864  -0.45349  -0.43017  -0.42228  -0.41288
 Alpha  occ. eigenvalues --   -0.39542  -0.37135  -0.36354  -0.35845  -0.32290
 Alpha  occ. eigenvalues --   -0.30241  -0.26126  -0.25418  -0.24424
 Alpha virt. eigenvalues --    0.00322   0.08308   0.11057   0.11538   0.13410
 Alpha virt. eigenvalues --    0.13702   0.13963   0.15690   0.16312   0.16662
 Alpha virt. eigenvalues --    0.17077   0.17566   0.18247   0.20073   0.20147

 Mulliken charges:
               1
     1  C   -0.220047
     2  O   -0.236561
     3  C   -0.165009
     4  C    0.417978
     5  C   -0.321741
     6  C   -0.080963
     7  C   -0.079699
     8  C   -0.082727
     9  O   -0.296693
    10  H    0.106778
    11  H    0.129316
    12  H    0.101750
    13  H    0.096672
    14  H    0.086303
    15  H    0.112078
    16  H    0.135680
    17  H    0.102231
    18  H    0.102598
    19  H    0.092059
 Sum of Mulliken charges =   0.00000

 Dipole moment (field-independent basis, Debye):
    X=             -0.3878    Y=              0.4959    Z=             -2.2482  Tot=              2.3346
 Quadrupole moment (field-independent basis, Debye-Ang):
   XX=            -46.2990   YY=            -51.4648   ZZ=            -55.6988
   XY=              1.0279   XZ=              0.0327   YZ=              2.8746

  Exact polarizability:  94.802  -2.671  78.847  -2.676   4.054  57.053
 Approx polarizability: 115.094  -8.809 127.242  -5.629   5.194  93.944

                      1                      2                      3
                      A                      A                      A
 Frequencies --     66.9470                99.3288               123.6321
 Red. masses --      3.2223                 2.2176                 3.3303
 Frc consts  --      0.0085                 0.0129                 0.0300
 IR Inten    --      0.9498                 3.4643                 0.4924

                      4                      5                      6
                      A                      A                      A
 Frequencies --    224.3076               255.2449               324.9591
 Red. masses --      1.4186                 2.1680                 2.9842
 Frc consts  --      0.0421                 0.0832                 0.1857
 IR Inten    --      1.7000                 1.1189                 1.6697

                      7                      8                      9
                      A                      A                      A
 Frequencies --    351.3191               382.8487               423.4248
 Red. masses --      4.0799                 2.5058                 2.8299
 Frc consts  --      0.2967                 0.2164                 0.2989
 IR Inten    --      0.3560                 3.2784                 5.6889

                     10                     11                     12
                      A                      A                      A
 Frequencies --    532.3756               700.9745               726.5557
 Red. masses --      2.5872                 4.1828                 2.5342
 Frc consts  --      0.4320                 1.2109                 0.7882
 IR Inten    --      9.3675                 0.1368                20.7731

                     13                     14                     15
                      A                      A                      A
 Frequencies --    742.6202               821.0568               864.8330
 Red. masses --      2.4262                 3.9445                 3.0833
 Frc consts  --      0.7883                 1.5667                 1.3587
 IR Inten    --      5.9731                11.6350                14.8423

                     16                     17                     18
                      A                      A                      A
 Frequencies --    914.0104               940.0495               945.1324
 Red. masses --      3.5551                 1.7135                 1.6101
 Frc consts  --      1.7499                 0.8921                 0.8474
 IR Inten    --     37.8136                 7.0454                 4.0412

                     19                     20                     21
                      A                      A                      A
 Frequencies --    967.3575               982.5990              1000.8756
 Red. masses --      1.8234                 3.0628                 2.4363
 Frc consts  --      1.0053                 1.7423                 1.4380
 IR Inten    --     10.6340                 3.8020                11.7527

                     22                     23                     24
                      A                      A                      A
 Frequencies --   1044.2305              1073.7426              1136.8114
 Red. masses --      1.9303                 1.7335                 1.1779
 Frc consts  --      1.2402                 1.1775                 0.8969
 IR Inten    --      2.7245                 3.6541                 5.2204

                     25                     26                     27
                      A                      A                      A
 Frequencies --   1153.8373              1174.4322              1190.8182
 Red. masses --      3.8541                 1.2601                 1.3359
 Frc consts  --      3.0231                 1.0241                 1.1162
 IR Inten    --    143.6700                 3.3380                 6.2197

                     28                     29                     30
                      A                      A                      A
 Frequencies --   1215.5225              1231.8087              1255.5311
 Red. masses --      2.0714                 1.5980                 1.4256
 Frc consts  --      1.8032                 1.4286                 1.3241
 IR Inten    --     46.2368                11.2628                 2.4926

                     31                     32                     33
                      A                      A                      A
 Frequencies --   1280.8787              1325.5670              1367.2855
 Red. masses --      1.2000                 2.1106                 1.7148
 Frc consts  --      1.1600                 2.1851                 1.8887
 IR Inten    --      3.9348                16.0927                 5.0484

                     34                     35                     36
                      A                      A                      A
 Frequencies --   1395.7245              1448.8461              1467.2365
 Red. masses --      1.5755                 1.3769                 1.5565
 Frc consts  --      1.8083                 1.7029                 1.9742
 IR Inten    --     29.8911                 8.5112                12.8685

                     37                     38                     39
                      A                      A                      A
 Frequencies --   1481.0405              1485.7226              1496.1083
 Red. masses --      1.3331                 1.0674                 1.0751
 Frc consts  --      1.7229                 1.3882                 1.4178
 IR Inten    --      0.8825                 6.0004                 8.7611

                     40                     41                     42
                      A                      A                      A
 Frequencies --   1518.4430              1661.0286              2944.1887
 Red. masses --      1.0930                 6.0501                 1.0613
 Frc consts  --      1.4849                 9.8349                 5.4203
 IR Inten    --      1.7847                 3.9689                36.3401

                     43                     44                     45
                      A                      A                      A
 Frequencies --   2968.8349              2999.1050              3012.6211
 Red. masses --      1.0401                 1.0950                 1.1027
 Frc consts  --      5.4011                 5.8030                 5.8964
 IR Inten    --     75.0465                47.4201                47.7574

                     46                     47                     48
                      A                      A                      A
 Frequencies --   3034.1653              3078.3064              3116.2724
 Red. masses --      1.0649                 1.0964                 1.0957
 Frc consts  --      5.7760                 6.1214                 6.2694
 IR Inten    --     23.2566                 7.9781                27.9013

                     49                     50                     51
                      A                      A                      A
 Frequencies --   3153.2349              3191.1918              3220.9981
 Red. masses --      1.0905                 1.0868                 1.1032
 Frc consts  --      6.3883                 6.5208                 6.7433
 IR Inten    --     25.3169                 8.8291                18.3999

 - Thermochemistry -
 -------------------
 Temperature   298.150 Kelvin.  Pressure   1.00000 Atm.
 Atom     1 has atomic number  6 and mass  12.00000

 Molecular mass:   126.06808 amu.
 Principal axes and moments of inertia in atomic units:
                           1         2         3
     Eigenvalues --   418.366491801.587122007.58871
           X            0.99996   0.00727   0.00502
           Y           -0.00756   0.99817   0.06005
           Z           -0.00457  -0.06009   0.99818
 This molecule is an asymmetric top.
 Rotational symmetry number  1.
 Rotational temperatures (Kelvin)      0.20703     0.04808     0.04314
 Rotational constants (GHZ):           4.31378     1.00175     0.89896
 Zero-point vibrational energy     415786.0 (Joules/Mol)
                                   99.37523 (Kcal/Mol)
 Warning -- explicit consideration of  10 degrees of freedom as
           vibrations may cause significant error
 Vibrational temperatures:     96.32   142.91   177.88   322.73   367.24
          (Kelvin)            467.54   505.47   550.83   609.21   765.97
                             1008.54  1045.35  1068.46  1181.32  1244.30
                             1315.06  1352.52  1359.83  1391.81  1413.74
                             1440.03  1502.41  1544.87  1635.62  1660.11
                             1689.74  1713.32  1748.86  1772.30  1806.43
                             1842.90  1907.19  1967.22  2008.13  2084.56
                             2111.02  2130.88  2137.62  2152.56  2184.70
                             2389.85  4236.03  4271.49  4315.04  4334.48
                             4365.48  4428.99  4483.62  4536.80  4591.41
                             4634.29

 Zero-point correction=                           0.158365 (Hartree/Particle)
 Thermal correction to Energy=                    0.166950
 Thermal correction to Enthalpy=                  0.167894
 Thermal correction to Gibbs Free Energy=         0.124656
 Sum of electronic and zero-point Energies=           -423.000867
 Sum of electronic and thermal Energies=              -422.992282
 Sum of electronic and thermal Enthalpies=            -422.991337
 Sum of electronic and thermal Free Energies=         -423.034575

                     E (Thermal)             CV                S
                      KCal/Mol        Cal/Mol-Kelvin    Cal/Mol-Kelvin
 Total                  104.763             31.899             91.002
 Electronic               0.000              0.000              0.000
 Translational            0.889              2.981             40.409
 Rotational               0.889              2.981             28.805
 Vibrational            102.985             25.937             21.788
 Vibration     1          0.598              1.970              4.241
 Vibration     2          0.604              1.950              3.467
 Vibration     3          0.610              1.929              3.043
 Vibration     4          0.649              1.804              1.924
 Vibration     5          0.666              1.754              1.694
 Vibration     6          0.709              1.626              1.285
 Vibration     7          0.728              1.573              1.160
 Vibration     8          0.752              1.507              1.028
 Vibration     9          0.786              1.419              0.880
 Vibration    10          0.887              1.178              0.582

 Optimization completed.
    -- Stationary point found.
 Normal termination of Gaussian 09 at Tue Jan 28 14:57:11 2020.
