 Gaussian 09, Revision D.01,
 Gaussian 09:  ES64L-G09RevD.01 24-Apr-2013

 -----------------------------
 # b3lyp 6-31G(2df,p) opt Freq
 -----------------------------

 -----
 titel
 -----
 Symbolic Z-matrix:
 Charge =  0 Multiplicity = 1

 SCF Done:  E(RB3LYP) =  -423.156395024     A.U. after   14 cycles
 Optimization completed.
    -- Stationary point found.
 Normal termination of Gaussian 09 at Mon Jan 27 16:46:19 2020.

 ----------------------------------------------------------------------
 #N Geom=AllCheck Guess=TCheck SCRF=Check GenChk RB3LYP/6-31G(2df,p) Fr
 eq
 ----------------------------------------------------------------------

 Structure from the checkpoint file:  "/scratch/puck/g09_be26ee56-a435-43d2-8e9d-75f4b92395f9/Gau-167661.chk"
 -----
 titel
 -----
 Charge =  0 Multiplicity = 1

                         Standard orientation:
 ---------------------------------------------------------------------
 Center     Atomic      Atomic             Coordinates (Angstroms)
 Number     Number       Type             X           Y           Z
 ---------------------------------------------------------------------
      1          6           0       -0.618510    1.845426   -0.687362
      2          6           0       -0.532523    0.457988   -0.057809
      3          6           0       -0.564483    0.357364    1.481030
      4          8           0        0.740681   -0.270387    1.516088
      5          6           0        0.881253   -0.144257    0.107027
      6          6           0        1.634193   -1.154385   -0.695554
      7          6           0        2.176876    0.258699   -0.518148
      8          6           0       -1.470560   -0.502872   -0.760878
      9          8           0       -2.294513   -1.195164   -0.222505
     10          1           0       -1.607360    2.288143   -0.526834
     11          1           0        0.131336    2.510983   -0.251763
     12          1           0       -0.444535    1.802872   -1.768736
     13          1           0       -0.566214    1.319753    2.005248
     14          1           0       -1.345194   -0.295997    1.878820
     15          1           0        2.113015   -1.950858   -0.136221
     16          1           0        1.264724   -1.447555   -1.672566
     17          1           0        3.017124    0.393023    0.154666
     18          1           0        2.166475    0.926944   -1.373365
     19          1           0       -1.336189   -0.530672   -1.867740
 ---------------------------------------------------------------------

 SCF Done:  E(RB3LYP) =  -423.156395024     A.U. after    1 cycles

 The electronic state is 1-A.
 Alpha  occ. eigenvalues --  -19.14813 -19.14102 -10.27659 -10.25215 -10.23260
 Alpha  occ. eigenvalues --  -10.21430 -10.19791 -10.19243 -10.19211  -1.05822
 Alpha  occ. eigenvalues --   -1.04713  -0.85566  -0.80449  -0.68712  -0.65884
 Alpha  occ. eigenvalues --   -0.61596  -0.60345  -0.52446  -0.51667  -0.49664
 Alpha  occ. eigenvalues --   -0.47511  -0.45423  -0.43072  -0.42595  -0.41354
 Alpha  occ. eigenvalues --   -0.40564  -0.38210  -0.37633  -0.36092  -0.34759
 Alpha  occ. eigenvalues --   -0.31671  -0.29313  -0.25788  -0.23495
 Alpha virt. eigenvalues --   -0.02981   0.07330   0.07955   0.10833   0.11423
 Alpha virt. eigenvalues --    0.12282   0.12867   0.14280   0.15448   0.16187
 Alpha virt. eigenvalues --    0.17249   0.17845   0.18311   0.20942   0.22181

 Mulliken charges:
               1
     1  C   -0.472904
     2  C    0.058743
     3  C   -0.116430
     4  O   -0.310080
     5  C    0.443763
     6  C   -0.340624
     7  C   -0.339921
     8  C    0.129293
     9  O   -0.248727
    10  H    0.131941
    11  H    0.136502
    12  H    0.123583
    13  H    0.101059
    14  H    0.132061
    15  H    0.132731
    16  H    0.117919
    17  H    0.130098
    18  H    0.115632
    19  H    0.075361
 Sum of Mulliken charges =   0.00000

 Dipole moment (field-independent basis, Debye):
    X=              0.9787    Y=              2.1766    Z=             -1.7433  Tot=              2.9554
 Quadrupole moment (field-independent basis, Debye-Ang):
   XX=            -57.7583   YY=            -53.5743   ZZ=            -52.9298
   XY=             -4.2483   XZ=             -1.3338   YZ=              0.9916

  Exact polarizability:  81.630   1.264  72.682  -4.262   1.016  73.281
 Approx polarizability: 115.578   7.292 106.252  -7.351  -1.269 109.705

                      1                      2                      3
                      A                      A                      A
 Frequencies --     59.9815                71.5005               184.9880
 Red. masses --      4.0229                 5.2435                 2.4681
 Frc consts  --      0.0085                 0.0158                 0.0498
 IR Inten    --      1.3409                 4.8279                 0.5603

                      4                      5                      6
                      A                      A                      A
 Frequencies --    208.3146               225.3229               273.5252
 Red. masses --      1.3017                 1.9173                 2.1067
 Frc consts  --      0.0333                 0.0574                 0.0929
 IR Inten    --      0.0856                 2.3192                 5.7209

                      7                      8                      9
                      A                      A                      A
 Frequencies --    291.8695               334.6853               385.9005
 Red. masses --      2.8106                 2.5578                 2.4001
 Frc consts  --      0.1411                 0.1688                 0.2106
 IR Inten    --      2.8499                 1.1343                 2.5174

                     10                     11                     12
                      A                      A                      A
 Frequencies --    488.8428               538.5526               586.3103
 Red. masses --      3.9407                 3.8793                 3.8050
 Frc consts  --      0.5548                 0.6629                 0.7706
 IR Inten    --      0.3531                 6.7566                 1.4504

                     13                     14                     15
                      A                      A                      A
 Frequencies --    725.7884               756.7511               857.4065
 Red. masses --      3.4128                 1.0484                 1.5548
 Frc consts  --      1.0592                 0.3538                 0.6734
 IR Inten    --      9.0569                 1.7469                 6.5433

                     16                     17                     18
                      A                      A                      A
 Frequencies --    875.9065               881.7190               933.1024
 Red. masses --      2.0022                 2.3569                 1.9223
 Frc consts  --      0.9050                 1.0796                 0.9861
 IR Inten    --     14.1171                 7.5023                21.9674

                     19                     20                     21
                      A                      A                      A
 Frequencies --    947.6633               972.1203               991.0460
 Red. masses --      2.2970                 2.1738                 1.8626
 Frc consts  --      1.2154                 1.2104                 1.0778
 IR Inten    --      6.7796                 7.0260                 3.0410

                     22                     23                     24
                      A                      A                      A
 Frequencies --   1014.4809              1028.8841              1050.5851
 Red. masses --      4.3122                 2.3133                 1.5959
 Frc consts  --      2.6148                 1.4428                 1.0378
 IR Inten    --     53.3418                27.9815                31.6768

                     25                     26                     27
                      A                      A                      A
 Frequencies --   1069.0655              1149.0464              1161.4391
 Red. masses --      1.4751                 2.1757                 1.2551
 Frc consts  --      0.9933                 1.6925                 0.9976
 IR Inten    --      0.2222                 4.2946                 2.3186

                     28                     29                     30
                      A                      A                      A
 Frequencies --   1186.8885              1217.9175              1222.0446
 Red. masses --      1.2641                 2.5255                 2.7577
 Frc consts  --      1.0492                 2.2072                 2.4264
 IR Inten    --      0.1325                13.1568                16.2696

                     31                     32                     33
                      A                      A                      A
 Frequencies --   1270.8322              1347.1821              1364.8471
 Red. masses --      2.9500                 1.7749                 2.1323
 Frc consts  --      2.8070                 1.8979                 2.3403
 IR Inten    --      6.2896                12.2242                18.7761

                     34                     35                     36
                      A                      A                      A
 Frequencies --   1404.1931              1426.4298              1447.5199
 Red. masses --      1.2316                 1.2167                 1.0904
 Frc consts  --      1.4308                 1.4586                 1.3461
 IR Inten    --      2.7796                 3.9717                 2.1571

                     37                     38                     39
                      A                      A                      A
 Frequencies --   1486.8631              1493.1477              1496.5707
 Red. masses --      1.2931                 1.0704                 1.1525
 Frc consts  --      1.6843                 1.4061                 1.5209
 IR Inten    --      6.9078                 8.5577                18.8790

                     40                     41                     42
                      A                      A                      A
 Frequencies --   1522.2669              1829.7004              2855.6327
 Red. masses --      1.1618                10.8430                 1.0819
 Frc consts  --      1.5862                21.3875                 5.1982
 IR Inten    --      4.7367               161.2230                98.2256

                     43                     44                     45
                      A                      A                      A
 Frequencies --   3029.6457              3034.6739              3094.6815
 Red. masses --      1.0379                 1.0584                 1.1004
 Frc consts  --      5.6131                 5.7429                 6.2093
 IR Inten    --     19.7749                54.4142                19.6446

                     46                     47                     48
                      A                      A                      A
 Frequencies --   3103.8105              3116.9112              3128.0661
 Red. masses --      1.1059                 1.1012                 1.0521
 Frc consts  --      6.2772                 6.3034                 6.0657
 IR Inten    --     13.7471                12.5147                 9.9160

                     49                     50                     51
                      A                      A                      A
 Frequencies --   3131.9681              3211.8427              3225.8244
 Red. masses --      1.0565                 1.1179                 1.1151
 Frc consts  --      6.1060                 6.7945                 6.8368
 IR Inten    --      4.7968                 0.2732                 7.0262

 - Thermochemistry -
 -------------------
 Temperature   298.150 Kelvin.  Pressure   1.00000 Atm.
 Atom     1 has atomic number  6 and mass  12.00000

 Molecular mass:   126.06808 amu.
 Principal axes and moments of inertia in atomic units:
                           1         2         3
     Eigenvalues --   776.303041288.886821316.49385
           X            0.99856  -0.04593  -0.02771
           Y            0.04440   0.99757  -0.05371
           Z            0.03011   0.05240   0.99817
 This molecule is an asymmetric top.
 Rotational symmetry number  1.
 Warning -- assumption of classical behavior for rotation
           may cause significant error
 Rotational temperatures (Kelvin)      0.11157     0.06720     0.06579
 Rotational constants (GHZ):           2.32479     1.40023     1.37087
 Zero-point vibrational energy     411002.5 (Joules/Mol)
                                   98.23196 (Kcal/Mol)
 Warning -- explicit consideration of  12 degrees of freedom as
           vibrations may cause significant error
 Vibrational temperatures:     86.30   102.87   266.16   299.72   324.19
          (Kelvin)            393.54   419.93   481.54   555.22   703.33
                              774.86   843.57  1044.25  1088.79  1233.62
                             1260.23  1268.60  1342.52  1363.47  1398.66
                             1425.89  1459.61  1480.33  1511.56  1538.14
                             1653.22  1671.05  1707.67  1752.31  1758.25
                             1828.44  1938.29  1963.71  2020.32  2052.31
                             2082.66  2139.26  2148.30  2153.23  2190.20
                             2632.53  4108.61  4358.98  4366.21  4452.55
                             4465.69  4484.53  4500.58  4506.20  4621.12
                             4641.24

 Zero-point correction=                           0.156543 (Hartree/Particle)
 Thermal correction to Energy=                    0.165651
 Thermal correction to Enthalpy=                  0.166596
 Thermal correction to Gibbs Free Energy=         0.122381
 Sum of electronic and zero-point Energies=           -422.999852
 Sum of electronic and thermal Energies=              -422.990744
 Sum of electronic and thermal Enthalpies=            -422.989799
 Sum of electronic and thermal Free Energies=         -423.034014

                     E (Thermal)             CV                S
                      KCal/Mol        Cal/Mol-Kelvin    Cal/Mol-Kelvin
 Total                  103.948             33.662             93.058
 Electronic               0.000              0.000              0.000
 Translational            0.889              2.981             40.409
 Rotational               0.889              2.981             28.667
 Vibrational            102.170             27.701             23.982
 Vibration     1          0.597              1.973              4.458
 Vibration     2          0.598              1.968              4.112
 Vibration     3          0.631              1.860              2.277
 Vibration     4          0.642              1.828              2.058
 Vibration     5          0.650              1.802              1.916
 Vibration     6          0.676              1.722              1.574
 Vibration     7          0.687              1.689              1.463
 Vibration     8          0.716              1.606              1.237
 Vibration     9          0.755              1.500              1.016
 Vibration    10          0.845              1.275              0.687
 Vibration    11          0.894              1.165              0.568
 Vibration    12          0.943              1.061              0.474

 Optimization completed.
    -- Stationary point found.
 Normal termination of Gaussian 09 at Mon Jan 27 17:32:39 2020.
