 Gaussian 09, Revision D.01,
 Gaussian 09:  ES64L-G09RevD.01 24-Apr-2013

 -----------------------------
 # b3lyp 6-31G(2df,p) opt Freq
 -----------------------------

 -----
 titel
 -----
 Symbolic Z-matrix:
 Charge =  0 Multiplicity = 1

 SCF Done:  E(RB3LYP) =  -423.094616605     A.U. after   12 cycles
 Optimization completed.
    -- Stationary point found.
 Normal termination of Gaussian 09 at Tue Jan 28 09:20:35 2020.

 ----------------------------------------------------------------------
 #N Geom=AllCheck Guess=TCheck SCRF=Check GenChk RB3LYP/6-31G(2df,p) Fr
 eq
 ----------------------------------------------------------------------

 Structure from the checkpoint file:  "/scratch/puck/g09_89dd44ef-ff34-465f-bed8-bd2fb856ab26/Gau-82350.chk"
 -----
 titel
 -----
 Charge =  0 Multiplicity = 1

                         Standard orientation:
 ---------------------------------------------------------------------
 Center     Atomic      Atomic             Coordinates (Angstroms)
 Number     Number       Type             X           Y           Z
 ---------------------------------------------------------------------
      1          8           0       -2.192734   -1.480786   -0.406637
      2          6           0       -1.519467   -0.757229    0.619842
      3          6           0       -0.206115   -0.203827    0.157928
      4          6           0       -0.059849    1.164694   -0.452936
      5          8           0       -1.203208    1.961019   -0.291093
      6          6           0        0.695512    0.838122    0.817399
      7          6           0        1.922434   -0.087848    0.615148
      8          6           0        2.180695   -0.472189   -0.817406
      9          6           0        1.034238   -1.112750   -0.077671
     10          1           0       -2.382810   -0.852835   -1.111647
     11          1           0       -2.139099    0.057653    1.014985
     12          1           0       -1.358908   -1.481271    1.426794
     13          1           0        0.447720    1.320210   -1.402198
     14          1           0       -0.914549    2.864147   -0.123231
     15          1           0        0.500857    1.397926    1.724274
     16          1           0        2.657219   -0.251006    1.393387
     17          1           0        2.055025    0.206890   -1.652407
     18          1           0        3.033160   -1.134537   -0.940377
     19          1           0        0.984233   -2.182885    0.078429
 ---------------------------------------------------------------------

 SCF Done:  E(RB3LYP) =  -423.094616605     A.U. after    1 cycles

 The electronic state is 1-A.
 Alpha  occ. eigenvalues --  -19.15093 -19.12323 -10.23942 -10.21890 -10.19549
 Alpha  occ. eigenvalues --  -10.19311 -10.19198 -10.19171 -10.18995  -1.03610
 Alpha  occ. eigenvalues --   -1.00309  -0.91438  -0.79736  -0.69506  -0.64120
 Alpha  occ. eigenvalues --   -0.61449  -0.56400  -0.53721  -0.52520  -0.49388
 Alpha  occ. eigenvalues --   -0.47511  -0.47270  -0.43318  -0.42598  -0.39484
 Alpha  occ. eigenvalues --   -0.38583  -0.35672  -0.33189  -0.31753  -0.30986
 Alpha  occ. eigenvalues --   -0.30123  -0.26603  -0.25685  -0.21019
 Alpha virt. eigenvalues --    0.06753   0.07125   0.09861   0.10337   0.11197
 Alpha virt. eigenvalues --    0.13760   0.14571   0.15510   0.15909   0.17783
 Alpha virt. eigenvalues --    0.18799   0.19517   0.21128   0.21340   0.23667

 Mulliken charges:
               1
     1  O   -0.420142
     2  C   -0.176234
     3  C    0.309227
     4  C    0.014376
     5  O   -0.438527
     6  C   -0.185349
     7  C   -0.059687
     8  C   -0.310629
     9  C   -0.108889
    10  H    0.284900
    11  H    0.104932
    12  H    0.104188
    13  H    0.084527
    14  H    0.290429
    15  H    0.090994
    16  H    0.091372
    17  H    0.114343
    18  H    0.113241
    19  H    0.096928
 Sum of Mulliken charges =   0.00000

 Dipole moment (field-independent basis, Debye):
    X=              1.6823    Y=              2.0065    Z=              0.2313  Tot=              2.6286
 Quadrupole moment (field-independent basis, Debye-Ang):
   XX=            -55.7984   YY=            -50.8180   ZZ=            -50.7341
   XY=             -4.0157   XZ=              0.3925   YZ=             -0.6913

  Exact polarizability:  81.712  -2.736  75.368  -0.804   0.399  67.277
 Approx polarizability: 111.475   0.982 112.969   2.860   2.252 105.220

                      1                      2                      3
                      A                      A                      A
 Frequencies --     63.9391               134.3891               256.4515
 Red. masses --      3.8618                 3.7085                 1.8468
 Frc consts  --      0.0093                 0.0395                 0.0716
 IR Inten    --      1.3789                 0.0468                13.1828

                      4                      5                      6
                      A                      A                      A
 Frequencies --    262.4015               269.7152               303.5734
 Red. masses --      2.1101                 3.1120                 2.4182
 Frc consts  --      0.0856                 0.1334                 0.1313
 IR Inten    --     34.0766                14.5789                40.9882

                      7                      8                      9
                      A                      A                      A
 Frequencies --    319.1036               362.5871               444.6526
 Red. masses --      1.6988                 1.3973                 3.2755
 Frc consts  --      0.1019                 0.1082                 0.3816
 IR Inten    --     35.9992                86.6591                 3.0682

                     10                     11                     12
                      A                      A                      A
 Frequencies --    457.2674               550.7155               701.2480
 Red. masses --      3.1899                 3.6389                 2.8031
 Frc consts  --      0.3930                 0.6502                 0.8121
 IR Inten    --      3.3954                 3.8026                12.4888

                     13                     14                     15
                      A                      A                      A
 Frequencies --    718.1811               757.9195               851.4287
 Red. masses --      3.7086                 1.6066                 1.9562
 Frc consts  --      1.1270                 0.5438                 0.8355
 IR Inten    --     10.3464                 7.5578                 1.0437

                     16                     17                     18
                      A                      A                      A
 Frequencies --    861.9418               874.6620               923.2970
 Red. masses --      2.9753                 2.2852                 2.1462
 Frc consts  --      1.3024                 1.0300                 1.0780
 IR Inten    --      8.6845                 5.7391                 5.1196

                     19                     20                     21
                      A                      A                      A
 Frequencies --    937.4329               960.2407               983.9718
 Red. masses --      1.9893                 1.4528                 1.8958
 Frc consts  --      1.0300                 0.7892                 1.0815
 IR Inten    --      6.1243                19.1332                 5.4711

                     22                     23                     24
                      A                      A                      A
 Frequencies --   1008.0815              1045.6547              1048.9925
 Red. masses --      1.5157                 1.6519                 2.8282
 Frc consts  --      0.9075                 1.0642                 1.8336
 IR Inten    --     18.7794                12.0689                85.5629

                     25                     26                     27
                      A                      A                      A
 Frequencies --   1065.9794              1080.7283              1094.9811
 Red. masses --      1.3065                 1.7063                 1.5789
 Frc consts  --      0.8747                 1.1742                 1.1154
 IR Inten    --      1.5481                 0.9761                13.5353

                     28                     29                     30
                      A                      A                      A
 Frequencies --   1133.7116              1160.8427              1189.8867
 Red. masses --      3.0760                 1.5530                 1.9704
 Frc consts  --      2.3294                 1.2330                 1.6437
 IR Inten    --     45.7245                24.2702                16.2311

                     31                     32                     33
                      A                      A                      A
 Frequencies --   1236.9304              1247.8129              1272.5974
 Red. masses --      1.6491                 1.6785                 1.3058
 Frc consts  --      1.4866                 1.5398                 1.2460
 IR Inten    --     24.2992                 3.4269                23.4030

                     34                     35                     36
                      A                      A                      A
 Frequencies --   1293.4539              1319.2614              1363.8376
 Red. masses --      1.7715                 1.8806                 1.7261
 Frc consts  --      1.7462                 1.9284                 1.8916
 IR Inten    --     33.0107                 5.3253                 2.6486

                     37                     38                     39
                      A                      A                      A
 Frequencies --   1384.8641              1420.3483              1457.1921
 Red. masses --      1.3188                 1.2821                 2.8704
 Frc consts  --      1.4902                 1.5240                 3.5910
 IR Inten    --      2.3023                69.1916                 9.0821

                     40                     41                     42
                      A                      A                      A
 Frequencies --   1495.1721              1503.6129              3023.1417
 Red. masses --      1.0839                 1.1844                 1.0585
 Frc consts  --      1.4276                 1.5777                 5.6999
 IR Inten    --      4.6112                 1.4605                38.1362

                     43                     44                     45
                      A                      A                      A
 Frequencies --   3068.9234              3109.2912              3134.2474
 Red. masses --      1.1047                 1.0814                 1.0608
 Frc consts  --      6.1300                 6.1599                 6.1400
 IR Inten    --     27.3137                10.8337                37.1630

                     46                     47                     48
                      A                      A                      A
 Frequencies --   3180.1417              3188.3135              3194.1957
 Red. masses --      1.0894                 1.0906                 1.1009
 Frc consts  --      6.4914                 6.5317                 6.6180
 IR Inten    --      8.8272                21.1558                 3.7753

                     49                     50                     51
                      A                      A                      A
 Frequencies --   3207.0313              3807.3737              3811.8809
 Red. masses --      1.1094                 1.0663                 1.0661
 Frc consts  --      6.7224                 9.1073                 9.1266
 IR Inten    --     21.8146                27.3094                17.4249

 - Thermochemistry -
 -------------------
 Temperature   298.150 Kelvin.  Pressure   1.00000 Atm.
 Atom     1 has atomic number  8 and mass  15.99491

 Molecular mass:   126.06808 amu.
 Principal axes and moments of inertia in atomic units:
                           1         2         3
     Eigenvalues --   765.118551180.103161610.27418
           X            0.99950  -0.02779  -0.01488
           Y            0.02771   0.99960  -0.00534
           Z            0.01502   0.00492   0.99988
 This molecule is an asymmetric top.
 Rotational symmetry number  1.
 Warning -- assumption of classical behavior for rotation
           may cause significant error
 Rotational temperatures (Kelvin)      0.11320     0.07340     0.05379
 Rotational constants (GHZ):           2.35877     1.52931     1.12077
 Zero-point vibrational energy     415963.1 (Joules/Mol)
                                   99.41757 (Kcal/Mol)
 Warning -- explicit consideration of  11 degrees of freedom as
           vibrations may cause significant error
 Vibrational temperatures:     91.99   193.36   368.98   377.54   388.06
          (Kelvin)            436.77   459.12   521.68   639.76   657.90
                              792.36  1008.94  1033.30  1090.48  1225.01
                             1240.14  1258.44  1328.42  1348.76  1381.57
                             1415.71  1450.40  1504.46  1509.26  1533.70
                             1554.93  1575.43  1631.16  1670.19  1711.98
                             1779.66  1795.32  1830.98  1860.99  1898.12
                             1962.26  1992.51  2043.56  2096.57  2151.22
                             2163.36  4349.62  4415.49  4473.57  4509.48
                             4575.51  4587.27  4595.73  4614.20  5477.95
                             5484.44

 Zero-point correction=                           0.158432 (Hartree/Particle)
 Thermal correction to Energy=                    0.167036
 Thermal correction to Enthalpy=                  0.167980
 Thermal correction to Gibbs Free Energy=         0.125271
 Sum of electronic and zero-point Energies=           -422.936185
 Sum of electronic and thermal Energies=              -422.927581
 Sum of electronic and thermal Enthalpies=            -422.926637
 Sum of electronic and thermal Free Energies=         -422.969346

                     E (Thermal)             CV                S
                      KCal/Mol        Cal/Mol-Kelvin    Cal/Mol-Kelvin
 Total                  104.816             33.515             89.888
 Electronic               0.000              0.000              0.000
 Translational            0.889              2.981             40.409
 Rotational               0.889              2.981             28.766
 Vibrational            103.039             27.553             20.714
 Vibration     1          0.597              1.972              4.332
 Vibration     2          0.613              1.919              2.882
 Vibration     3          0.666              1.752              1.686
 Vibration     4          0.670              1.742              1.646
 Vibration     5          0.674              1.729              1.598
 Vibration     6          0.695              1.667              1.397
 Vibration     7          0.705              1.637              1.315
 Vibration     8          0.736              1.549              1.111
 Vibration     9          0.804              1.373              0.812
 Vibration    10          0.815              1.345              0.774
 Vibration    11          0.906              1.138              0.543

 Optimization completed.
    -- Stationary point found.
 Normal termination of Gaussian 09 at Tue Jan 28 10:13:40 2020.
