 Gaussian 09, Revision D.01,
 Gaussian 09:  ES64L-G09RevD.01 24-Apr-2013

 -----------------------------
 # b3lyp 6-31G(2df,p) opt Freq
 -----------------------------

 -----
 titel
 -----
 Symbolic Z-matrix:
 Charge =  0 Multiplicity = 1

 SCF Done:  E(RB3LYP) =  -423.200943839     A.U. after   14 cycles
 Optimization completed.
    -- Stationary point found.
 Normal termination of Gaussian 09 at Tue Jan 28 04:01:27 2020.

 ----------------------------------------------------------------------
 #N Geom=AllCheck Guess=TCheck SCRF=Check GenChk RB3LYP/6-31G(2df,p) Fr
 eq
 ----------------------------------------------------------------------

 Structure from the checkpoint file:  "/scratch/puck/g09_027e0c46-eef0-44ad-a97a-6145aa9f71a4/Gau-93603.chk"
 -----
 titel
 -----
 Charge =  0 Multiplicity = 1

                         Standard orientation:
 ---------------------------------------------------------------------
 Center     Atomic      Atomic             Coordinates (Angstroms)
 Number     Number       Type             X           Y           Z
 ---------------------------------------------------------------------
      1          6           0       -2.836423   -0.739718    0.874670
      2          6           0       -2.052609   -0.104339   -0.273560
      3          8           0       -1.587165    1.194585    0.117382
      4          6           0       -0.190684    1.312768   -0.109114
      5          6           0        0.261076   -0.050781   -0.574639
      6          6           0        1.703394   -0.369713   -0.833269
      7          6           0        2.480406   -0.496599    0.473342
      8          8           0        3.450343    0.152559    0.759693
      9          6           0       -0.803067   -0.843423   -0.671100
     10          1           0       -2.188056   -0.893723    1.742144
     11          1           0       -3.662864   -0.086760    1.168716
     12          1           0       -3.252947   -1.705636    0.569873
     13          1           0       -2.728799    0.007206   -1.139093
     14          1           0        0.015041    2.086206   -0.868623
     15          1           0        0.313172    1.634934    0.815752
     16          1           0        1.781362   -1.332035   -1.355155
     17          1           0        2.192082    0.398621   -1.441373
     18          1           0        2.062271   -1.258445    1.170258
     19          1           0       -0.809244   -1.876697   -0.997066
 ---------------------------------------------------------------------

 SCF Done:  E(RB3LYP) =  -423.200943839     A.U. after    1 cycles

 The electronic state is 1-A.
 Alpha  occ. eigenvalues --  -19.14841 -19.13626 -10.28070 -10.23948 -10.23472
 Alpha  occ. eigenvalues --  -10.20927 -10.20497 -10.19177 -10.17799  -1.05556
 Alpha  occ. eigenvalues --   -1.03597  -0.82410  -0.77666  -0.73302  -0.67899
 Alpha  occ. eigenvalues --   -0.59494  -0.58288  -0.55698  -0.50623  -0.48104
 Alpha  occ. eigenvalues --   -0.46978  -0.45040  -0.44357  -0.43612  -0.40907
 Alpha  occ. eigenvalues --   -0.39199  -0.38849  -0.38128  -0.37383  -0.34451
 Alpha  occ. eigenvalues --   -0.31970  -0.28434  -0.25696  -0.23671
 Alpha virt. eigenvalues --   -0.03414   0.01550   0.09831   0.10091   0.11389
 Alpha virt. eigenvalues --    0.12497   0.13458   0.14423   0.15198   0.16453
 Alpha virt. eigenvalues --    0.16804   0.17624   0.18424   0.21284   0.22135

 Mulliken charges:
               1
     1  C   -0.387207
     2  C    0.110591
     3  O   -0.277048
     4  C   -0.154052
     5  C    0.279445
     6  C   -0.383514
     7  C    0.160575
     8  O   -0.229058
     9  C   -0.222053
    10  H    0.118381
    11  H    0.129189
    12  H    0.111253
    13  H    0.082642
    14  H    0.104902
    15  H    0.113766
    16  H    0.128013
    17  H    0.129118
    18  H    0.082728
    19  H    0.102332
 Sum of Mulliken charges =   0.00000

 Dipole moment (field-independent basis, Debye):
    X=             -1.2534    Y=             -2.1419    Z=             -1.3853  Tot=              2.8421
 Quadrupole moment (field-independent basis, Debye-Ang):
   XX=            -63.1404   YY=            -52.1250   ZZ=            -53.2777
   XY=              0.3692   XZ=             -3.0508   YZ=             -0.2886

  Exact polarizability: 102.408  11.996  73.619   1.058   0.619  63.888
 Approx polarizability: 140.193  24.882 114.746   6.119   4.575  94.010

                      1                      2                      3
                      A                      A                      A
 Frequencies --     40.6590                47.4270                92.3626
 Red. masses --      4.0908                 5.7742                 2.6705
 Frc consts  --      0.0040                 0.0077                 0.0134
 IR Inten    --      2.3784                 4.0321                 3.5766

                      4                      5                      6
                      A                      A                      A
 Frequencies --    130.5496               228.9923               236.4842
 Red. masses --      2.6213                 2.2030                 1.1888
 Frc consts  --      0.0263                 0.0681                 0.0392
 IR Inten    --      1.9992                 1.7102                 0.2421

                      7                      8                      9
                      A                      A                      A
 Frequencies --    293.8164               365.8320               422.2288
 Red. masses --      2.6314                 2.5885                 3.6205
 Frc consts  --      0.1338                 0.2041                 0.3803
 IR Inten    --      0.6484                 1.0621                 0.6150

                     10                     11                     12
                      A                      A                      A
 Frequencies --    481.6274               528.4000               628.5410
 Red. masses --      3.0337                 2.2741                 2.9221
 Frc consts  --      0.4146                 0.3741                 0.6802
 IR Inten    --     23.1850                 2.6562                 3.4964

                     13                     14                     15
                      A                      A                      A
 Frequencies --    729.0367               815.9753               843.4208
 Red. masses --      3.4044                 2.0438                 3.1559
 Frc consts  --      1.0661                 0.8017                 1.3227
 IR Inten    --      2.8877                 2.7255                 9.1336

                     16                     17                     18
                      A                      A                      A
 Frequencies --    858.9331               915.1149               919.9666
 Red. masses --      1.4362                 2.6724                 2.0510
 Frc consts  --      0.6243                 1.3186                 1.0227
 IR Inten    --      6.1193                 9.4096                 5.6714

                     19                     20                     21
                      A                      A                      A
 Frequencies --   1008.7162              1021.9600              1029.1598
 Red. masses --      2.0496                 1.8612                 1.9048
 Frc consts  --      1.2287                 1.1453                 1.1887
 IR Inten    --     16.9229                11.0575                19.6678

                     22                     23                     24
                      A                      A                      A
 Frequencies --   1069.3562              1077.7636              1107.7042
 Red. masses --      2.5369                 2.1294                 2.5925
 Frc consts  --      1.7092                 1.4573                 1.8742
 IR Inten    --     11.8632                32.9655                30.1739

                     25                     26                     27
                      A                      A                      A
 Frequencies --   1134.8492              1181.1923              1201.4999
 Red. masses --      2.2210                 1.6692                 1.1265
 Frc consts  --      1.6853                 1.3721                 0.9581
 IR Inten    --     40.7374                 9.3678                 2.7931

                     28                     29                     30
                      A                      A                      A
 Frequencies --   1214.2107              1290.5598              1302.6620
 Red. masses --      1.5687                 1.5852                 1.3150
 Frc consts  --      1.3626                 1.5556                 1.3147
 IR Inten    --      6.6728                 1.1548                 6.7234

                     31                     32                     33
                      A                      A                      A
 Frequencies --   1347.0465              1373.1997              1390.0922
 Red. masses --      1.7529                 1.4213                 1.5550
 Frc consts  --      1.8741                 1.5791                 1.7703
 IR Inten    --      6.2839                23.8642                 3.2116

                     34                     35                     36
                      A                      A                      A
 Frequencies --   1400.3284              1416.1176              1458.3126
 Red. masses --      1.2874                 1.1702                 1.1000
 Frc consts  --      1.4873                 1.3827                 1.3783
 IR Inten    --      4.3832                 5.3756                 6.0852

                     37                     38                     39
                      A                      A                      A
 Frequencies --   1485.7151              1495.1099              1522.0578
 Red. masses --      1.0547                 1.0506                 1.0846
 Frc consts  --      1.3716                 1.3837                 1.4804
 IR Inten    --      2.0373                 2.0487                 1.2657

                     40                     41                     42
                      A                      A                      A
 Frequencies --   1722.2065              1837.8323              2875.0191
 Red. masses --      7.8146                10.0976                 1.0834
 Frc consts  --     13.6561                20.0946                 5.2762
 IR Inten    --     15.3785               190.2930                85.8840

                     43                     44                     45
                      A                      A                      A
 Frequencies --   2945.3519              2960.1575              2988.4101
 Red. masses --      1.0812                 1.0669                 1.0942
 Frc consts  --      5.5260                 5.5083                 5.7576
 IR Inten    --     72.3596                68.8251                40.2511

                     46                     47                     48
                      A                      A                      A
 Frequencies --   3029.3446              3037.4723              3090.8885
 Red. masses --      1.0590                 1.0346                 1.1024
 Frc consts  --      5.7257                 5.6238                 6.2051
 IR Inten    --     13.4794                19.0450                10.9567

                     49                     50                     51
                      A                      A                      A
 Frequencies --   3111.4816              3122.3389              3206.5973
 Red. masses --      1.1010                 1.1029                 1.0954
 Frc consts  --      6.2804                 6.3352                 6.6359
 IR Inten    --     21.2685                23.1184                 5.6977

 - Thermochemistry -
 -------------------
 Temperature   298.150 Kelvin.  Pressure   1.00000 Atm.
 Atom     1 has atomic number  6 and mass  12.00000

 Molecular mass:   126.06808 amu.
 Principal axes and moments of inertia in atomic units:
                           1         2         3
     Eigenvalues --   482.965722137.714062237.57689
           X            0.99976   0.01156  -0.01866
           Y           -0.01260   0.99833  -0.05632
           Z            0.01798   0.05654   0.99824
 This molecule is an asymmetric top.
 Rotational symmetry number  1.
 Warning -- assumption of classical behavior for rotation
           may cause significant error
 Rotational temperatures (Kelvin)      0.17934     0.04052     0.03871
 Rotational constants (GHZ):           3.73679     0.84424     0.80656
 Zero-point vibrational energy     412915.5 (Joules/Mol)
                                   98.68917 (Kcal/Mol)
 Warning -- explicit consideration of  11 degrees of freedom as
           vibrations may cause significant error
 Vibrational temperatures:     58.50    68.24   132.89   187.83   329.47
          (Kelvin)            340.25   422.74   526.35   607.49   692.95
                              760.25   904.33  1048.92  1174.01  1213.49
                             1235.81  1316.64  1323.63  1451.32  1470.37
                             1480.73  1538.56  1550.66  1593.74  1632.79
                             1699.47  1728.69  1746.98  1856.83  1874.24
                             1938.10  1975.73  2000.03  2014.76  2037.47
                             2098.18  2137.61  2151.13  2189.90  2477.87
                             2644.23  4136.51  4237.70  4259.00  4299.65
                             4358.55  4370.24  4447.09  4476.72  4492.34
                             4613.57

 Zero-point correction=                           0.157271 (Hartree/Particle)
 Thermal correction to Energy=                    0.166642
 Thermal correction to Enthalpy=                  0.167586
 Thermal correction to Gibbs Free Energy=         0.121455
 Sum of electronic and zero-point Energies=           -423.043673
 Sum of electronic and thermal Energies=              -423.034302
 Sum of electronic and thermal Enthalpies=            -423.033358
 Sum of electronic and thermal Free Energies=         -423.079489

                     E (Thermal)             CV                S
                      KCal/Mol        Cal/Mol-Kelvin    Cal/Mol-Kelvin
 Total                  104.569             33.015             97.092
 Electronic               0.000              0.000              0.000
 Translational            0.889              2.981             40.409
 Rotational               0.889              2.981             29.226
 Vibrational            102.792             27.054             27.458
 Vibration     1          0.594              1.981              5.227
 Vibration     2          0.595              1.979              4.922
 Vibration     3          0.602              1.955              3.609
 Vibration     4          0.612              1.923              2.938
 Vibration     5          0.652              1.797              1.887
 Vibration     6          0.655              1.785              1.829
 Vibration     7          0.689              1.685              1.452
 Vibration     8          0.739              1.543              1.097
 Vibration     9          0.785              1.422              0.884
 Vibration    10          0.838              1.291              0.706
 Vibration    11          0.883              1.187              0.591

 Normal termination of Gaussian 09 at Tue Jan 28 04:39:55 2020.
