 Gaussian 09, Revision D.01,
 Gaussian 09:  ES64L-G09RevD.01 24-Apr-2013

 -----------------------------
 # b3lyp 6-31G(2df,p) opt Freq
 -----------------------------

 -----
 titel
 -----
 Symbolic Z-matrix:
 Charge =  0 Multiplicity = 1

 SCF Done:  E(RB3LYP) =  -423.157351919     A.U. after   14 cycles
 Optimization completed.
    -- Stationary point found.
 Normal termination of Gaussian 09 at Tue Jan 28 09:37:35 2020.

 ----------------------------------------------------------------------
 #N Geom=AllCheck Guess=TCheck SCRF=Check GenChk RB3LYP/6-31G(2df,p) Fr
 eq
 ----------------------------------------------------------------------

 Structure from the checkpoint file:  "/scratch/puck/g09_436075a2-ba65-4e3e-b8a9-4ec8e3c4e3d0/Gau-132156.chk"
 -----
 titel
 -----
 Charge =  0 Multiplicity = 1

                         Standard orientation:
 ---------------------------------------------------------------------
 Center     Atomic      Atomic             Coordinates (Angstroms)
 Number     Number       Type             X           Y           Z
 ---------------------------------------------------------------------
      1          8           0       -2.900295   -0.525373    0.259104
      2          6           0       -1.973558    0.118556   -0.605394
      3          6           0       -0.568634    0.115860   -0.056634
      4          6           0       -0.140902    1.257750    0.838629
      5          6           0        0.477267    1.114571   -0.532257
      6          6           0        1.795572    0.376295   -0.600325
      7          8           0        2.272274   -0.107557    0.664370
      8          6           0        1.591003   -1.026281   -0.202436
      9          6           0        0.121295   -1.246915    0.126950
     10          1           0       -2.843365   -0.087511    1.115310
     11          1           0       -2.021075   -0.442778   -1.545952
     12          1           0       -2.281369    1.153981   -0.825825
     13          1           0       -0.848897    2.070335    0.974632
     14          1           0        0.494729    1.050132    1.690362
     15          1           0        0.258955    1.846735   -1.301311
     16          1           0        2.566246    0.700059   -1.294110
     17          1           0        2.201138   -1.852231   -0.561622
     18          1           0       -0.302324   -1.969560   -0.580209
     19          1           0       -0.012139   -1.664721    1.129739
 ---------------------------------------------------------------------

 SCF Done:  E(RB3LYP) =  -423.157351919     A.U. after    1 cycles

 The electronic state is 1-A.
 Alpha  occ. eigenvalues --  -19.14896 -19.13393 -10.23748 -10.23419 -10.22906
 Alpha  occ. eigenvalues --  -10.19888 -10.19594 -10.18871 -10.18787  -1.07087
 Alpha  occ. eigenvalues --   -1.01494  -0.87550  -0.74581  -0.70615  -0.67213
 Alpha  occ. eigenvalues --   -0.60585  -0.56728  -0.55542  -0.53492  -0.48968
 Alpha  occ. eigenvalues --   -0.46276  -0.45406  -0.44423  -0.42334  -0.40883
 Alpha  occ. eigenvalues --   -0.38876  -0.36536  -0.35536  -0.34096  -0.31662
 Alpha  occ. eigenvalues --   -0.28934  -0.27969  -0.26724  -0.25161
 Alpha virt. eigenvalues --    0.07507   0.07653   0.09171   0.11894   0.12067
 Alpha virt. eigenvalues --    0.12595   0.14704   0.15435   0.16359   0.17035
 Alpha virt. eigenvalues --    0.17495   0.17784   0.18873   0.21187   0.22217

 Mulliken charges:
               1
     1  O   -0.415778
     2  C   -0.148551
     3  C    0.306527
     4  C   -0.338281
     5  C   -0.119399
     6  C    0.027459
     7  O   -0.255302
     8  C    0.042371
     9  C   -0.315066
    10  H    0.282228
    11  H    0.106390
    12  H    0.082100
    13  H    0.103316
    14  H    0.137352
    15  H    0.085474
    16  H    0.096409
    17  H    0.095587
    18  H    0.109003
    19  H    0.118162
 Sum of Mulliken charges =   0.00000

 Dipole moment (field-independent basis, Debye):
    X=             -0.0160    Y=              0.6967    Z=             -0.9439  Tot=              1.1732
 Quadrupole moment (field-independent basis, Debye-Ang):
   XX=            -60.8470   YY=            -51.3142   ZZ=            -50.6698
   XY=             -4.3133   XZ=             -5.4518   YZ=              0.0922

  Exact polarizability:  80.171  -0.685  75.089  -3.113   0.062  65.948
 Approx polarizability: 107.519   3.649 113.323  -2.073  -0.259 106.245

                      1                      2                      3
                      A                      A                      A
 Frequencies --     89.6289               135.6466               243.8557
 Red. masses --      3.7004                 4.1596                 2.7993
 Frc consts  --      0.0175                 0.0451                 0.0981
 IR Inten    --      4.8170                 1.4456                 5.4744

                      4                      5                      6
                      A                      A                      A
 Frequencies --    302.6849               328.0125               353.9821
 Red. masses --      2.3331                 1.6082                 4.0546
 Frc consts  --      0.1259                 0.1019                 0.2993
 IR Inten    --      9.4411                63.2845                 0.9837

                      7                      8                      9
                      A                      A                      A
 Frequencies --    400.8464               419.7491               568.7397
 Red. masses --      1.6477                 2.3130                 2.9545
 Frc consts  --      0.1560                 0.2401                 0.5631
 IR Inten    --     31.4305                19.7916                 9.6239

                     10                     11                     12
                      A                      A                      A
 Frequencies --    667.2765               698.8129               721.0306
 Red. masses --      3.4844                 5.6778                 4.1609
 Frc consts  --      0.9141                 1.6336                 1.2745
 IR Inten    --      5.7754                 0.4239                 0.9034

                     13                     14                     15
                      A                      A                      A
 Frequencies --    812.4319               833.7907               874.2431
 Red. masses --      2.7845                 2.5711                 2.3578
 Frc consts  --      1.0828                 1.0531                 1.0617
 IR Inten    --     10.9480                 9.1874                21.1425

                     16                     17                     18
                      A                      A                      A
 Frequencies --    898.1243               909.1962               947.9391
 Red. masses --      2.6748                 1.8902                 2.0808
 Frc consts  --      1.2712                 0.9206                 1.1017
 IR Inten    --      3.7834                13.1881                 0.2985

                     19                     20                     21
                      A                      A                      A
 Frequencies --    960.5610               988.3574               999.3392
 Red. masses --      1.5867                 1.8537                 1.9244
 Frc consts  --      0.8626                 1.0669                 1.1323
 IR Inten    --      7.2912                21.0865                 1.4921

                     22                     23                     24
                      A                      A                      A
 Frequencies --   1052.7009              1056.7764              1069.4856
 Red. masses --      2.1046                 2.5956                 1.6932
 Frc consts  --      1.3741                 1.7079                 1.1411
 IR Inten    --     15.2372                50.8685                13.7672

                     25                     26                     27
                      A                      A                      A
 Frequencies --   1082.9832              1097.7744              1113.2551
 Red. masses --      1.3260                 1.7229                 1.3040
 Frc consts  --      0.9163                 1.2233                 0.9522
 IR Inten    --      2.4112                27.3972                 0.7674

                     28                     29                     30
                      A                      A                      A
 Frequencies --   1188.0901              1201.5639              1240.1631
 Red. masses --      1.2519                 1.4232                 1.7266
 Frc consts  --      1.0412                 1.2106                 1.5646
 IR Inten    --     13.0864                 6.1661                10.7263

                     31                     32                     33
                      A                      A                      A
 Frequencies --   1271.8627              1285.6807              1313.3286
 Red. masses --      1.4775                 1.5080                 1.9878
 Frc consts  --      1.4082                 1.4687                 2.0200
 IR Inten    --      8.9731                 6.7742                 1.2494

                     34                     35                     36
                      A                      A                      A
 Frequencies --   1338.8975              1373.6493              1396.7363
 Red. masses --      1.4986                 1.5187                 1.7505
 Frc consts  --      1.5829                 1.6884                 2.0121
 IR Inten    --      2.5086                 3.1667                10.0596

                     37                     38                     39
                      A                      A                      A
 Frequencies --   1420.2616              1427.2687              1469.9231
 Red. masses --      2.0250                 1.5478                 1.1995
 Frc consts  --      2.4066                 1.8577                 1.5271
 IR Inten    --     41.6741                39.3763                 3.2570

                     40                     41                     42
                      A                      A                      A
 Frequencies --   1479.8413              1507.3164              2967.7416
 Red. masses --      1.2475                 1.0971                 1.0701
 Frc consts  --      1.6096                 1.4687                 5.5528
 IR Inten    --      2.8540                 1.0337                57.0905

                     43                     44                     45
                      A                      A                      A
 Frequencies --   3043.9018              3057.0798              3085.9132
 Red. masses --      1.0619                 1.0916                 1.1019
 Frc consts  --      5.7971                 6.0105                 6.1823
 IR Inten    --     16.8267                36.2822                14.8809

                     46                     47                     48
                      A                      A                      A
 Frequencies --   3127.3586              3135.2891              3155.2436
 Red. masses --      1.0562                 1.0887                 1.0925
 Frc consts  --      6.0863                 6.3053                 6.4081
 IR Inten    --     18.7958                27.3245                29.4908

                     49                     50                     51
                      A                      A                      A
 Frequencies --   3179.4790              3227.9737              3805.0212
 Red. masses --      1.0921                 1.1134                 1.0659
 Frc consts  --      6.5049                 6.8357                 9.0924
 IR Inten    --     17.5872                 2.3583                13.3955

 - Thermochemistry -
 -------------------
 Temperature   298.150 Kelvin.  Pressure   1.00000 Atm.
 Atom     1 has atomic number  8 and mass  15.99491

 Molecular mass:   126.06808 amu.
 Principal axes and moments of inertia in atomic units:
                           1         2         3
     Eigenvalues --   484.715741475.019171653.30690
           X            0.99986  -0.01395  -0.00877
           Y            0.01403   0.99986   0.00885
           Z            0.00864  -0.00897   0.99992
 This molecule is an asymmetric top.
 Rotational symmetry number  1.
 Warning -- assumption of classical behavior for rotation
           may cause significant error
 Rotational temperatures (Kelvin)      0.17869     0.05872     0.05239
 Rotational constants (GHZ):           3.72330     1.22354     1.09159
 Zero-point vibrational energy     420647.7 (Joules/Mol)
                                  100.53722 (Kcal/Mol)
 Warning -- explicit consideration of   9 degrees of freedom as
           vibrations may cause significant error
 Vibrational temperatures:    128.96   195.16   350.85   435.50   471.94
          (Kelvin)            509.30   576.73   603.92   818.29   960.06
                             1005.43  1037.40  1168.91  1199.64  1257.84
                             1292.20  1308.13  1363.87  1382.03  1422.02
                             1437.82  1514.60  1520.46  1538.75  1558.17
                             1579.45  1601.72  1709.39  1728.78  1784.32
                             1829.92  1849.81  1889.58  1926.37  1976.37
                             2009.59  2043.44  2053.52  2114.89  2129.16
                             2168.69  4269.91  4379.49  4398.45  4439.94
                             4499.57  4510.98  4539.69  4574.56  4644.33
                             5474.57

 Zero-point correction=                           0.160216 (Hartree/Particle)
 Thermal correction to Energy=                    0.168023
 Thermal correction to Enthalpy=                  0.168967
 Thermal correction to Gibbs Free Energy=         0.127933
 Sum of electronic and zero-point Energies=           -422.997136
 Sum of electronic and thermal Energies=              -422.989329
 Sum of electronic and thermal Enthalpies=            -422.988384
 Sum of electronic and thermal Free Energies=         -423.029419

                     E (Thermal)             CV                S
                      KCal/Mol        Cal/Mol-Kelvin    Cal/Mol-Kelvin
 Total                  105.436             30.991             86.363
 Electronic               0.000              0.000              0.000
 Translational            0.889              2.981             40.409
 Rotational               0.889              2.981             28.560
 Vibrational            103.659             25.029             17.395
 Vibration     1          0.602              1.957              3.668
 Vibration     2          0.613              1.918              2.864
 Vibration     3          0.659              1.773              1.775
 Vibration     4          0.694              1.669              1.402
 Vibration     5          0.711              1.620              1.270
 Vibration     6          0.730              1.567              1.148
 Vibration     7          0.767              1.468              0.960
 Vibration     8          0.782              1.427              0.893
 Vibration     9          0.925              1.099              0.507

 Normal termination of Gaussian 09 at Tue Jan 28 10:21:28 2020.
