 Gaussian 09, Revision D.01,
 Gaussian 09:  ES64L-G09RevD.01 24-Apr-2013

 -----------------------------
 # b3lyp 6-31G(2df,p) opt Freq
 -----------------------------

 -----
 titel
 -----
 Symbolic Z-matrix:
 Charge =  0 Multiplicity = 1

 SCF Done:  E(RB3LYP) =  -423.155368149     A.U. after   14 cycles
 Optimization completed.
    -- Stationary point found.
 Normal termination of Gaussian 09 at Mon Jan 27 12:03:39 2020.

 ----------------------------------------------------------------------
 #N Geom=AllCheck Guess=TCheck SCRF=Check GenChk RB3LYP/6-31G(2df,p) Fr
 eq
 ----------------------------------------------------------------------

 Structure from the checkpoint file:  "/scratch/puck/g09_ac169301-7bd3-4a2e-8163-323c4834a57d/Gau-153998.chk"
 -----
 titel
 -----
 Charge =  0 Multiplicity = 1

                         Standard orientation:
 ---------------------------------------------------------------------
 Center     Atomic      Atomic             Coordinates (Angstroms)
 Number     Number       Type             X           Y           Z
 ---------------------------------------------------------------------
      1          6           0       -2.242940    0.051617    0.704180
      2          6           0       -2.112914   -0.760919   -0.561300
      3          6           0       -0.928057   -0.008522   -0.034071
      4          6           0       -0.340715    1.214940   -0.723116
      5          8           0        0.768719    1.605929    0.091657
      6          6           0        1.328137    0.443816    0.665729
      7          6           0        2.156821   -0.464215   -0.269108
      8          8           0        1.082001   -1.427157   -0.354236
      9          6           0        0.267221   -0.684357    0.587627
     10          1           0       -2.803286    0.979830    0.663288
     11          1           0       -2.326136   -0.478462    1.647572
     12          1           0       -2.103901   -1.842731   -0.485683
     13          1           0       -2.589483   -0.384764   -1.461135
     14          1           0       -0.003731    0.965475   -1.740664
     15          1           0       -1.027623    2.063543   -0.783631
     16          1           0        1.777536    0.713855    1.622000
     17          1           0        2.409924   -0.025031   -1.241065
     18          1           0        3.057983   -0.898015    0.182273
     19          1           0        0.037637   -1.278046    1.478033
 ---------------------------------------------------------------------

 SCF Done:  E(RB3LYP) =  -423.155368149     A.U. after    1 cycles

 The electronic state is 1-A.
 Alpha  occ. eigenvalues --  -19.14281 -19.13183 -10.23458 -10.23346 -10.22953
 Alpha  occ. eigenvalues --  -10.22559 -10.19870 -10.19212 -10.19186  -1.05654
 Alpha  occ. eigenvalues --   -1.01731  -0.86744  -0.73632  -0.71713  -0.68006
 Alpha  occ. eigenvalues --   -0.60826  -0.56929  -0.55635  -0.52185  -0.48929
 Alpha  occ. eigenvalues --   -0.48265  -0.46839  -0.43361  -0.42866  -0.40425
 Alpha  occ. eigenvalues --   -0.38881  -0.36986  -0.36210  -0.34835  -0.29648
 Alpha  occ. eigenvalues --   -0.29593  -0.28639  -0.25539  -0.24743
 Alpha virt. eigenvalues --    0.07150   0.09146   0.09950   0.10349   0.11622
 Alpha virt. eigenvalues --    0.13309   0.14403   0.15286   0.15988   0.16571
 Alpha virt. eigenvalues --    0.18396   0.18605   0.19719   0.20842   0.22706

 Mulliken charges:
               1
     1  C   -0.317179
     2  C   -0.317354
     3  C    0.363454
     4  C   -0.173597
     5  O   -0.266302
     6  C    0.069130
     7  C   -0.107795
     8  O   -0.298100
     9  C   -0.011733
    10  H    0.115196
    11  H    0.115081
    12  H    0.124861
    13  H    0.116068
    14  H    0.103072
    15  H    0.110364
    16  H    0.092167
    17  H    0.108447
    18  H    0.100367
    19  H    0.073855
 Sum of Mulliken charges =   0.00000

 Dipole moment (field-independent basis, Debye):
    X=             -0.6767    Y=              0.1640    Z=              0.5727  Tot=              0.9016
 Quadrupole moment (field-independent basis, Debye-Ang):
   XX=            -49.8798   YY=            -58.2376   ZZ=            -50.9810
   XY=             -0.8206   XZ=              1.4068   YZ=             -2.7220

  Exact polarizability:  88.658  -1.340  67.262  -0.142  -1.824  68.377
 Approx polarizability: 114.471  -0.891 102.392  -0.564  -0.013 103.317

                      1                      2                      3
                      A                      A                      A
 Frequencies --     86.1642               157.3139               206.6644
 Red. masses --      3.2712                 3.1441                 2.9426
 Frc consts  --      0.0143                 0.0458                 0.0740
 IR Inten    --      1.8171                 3.5387                 2.1205

                      4                      5                      6
                      A                      A                      A
 Frequencies --    281.1876               321.8595               406.6901
 Red. masses --      2.8738                 2.1183                 2.7544
 Frc consts  --      0.1339                 0.1293                 0.2684
 IR Inten    --      1.8353                 1.6718                 6.8429

                      7                      8                      9
                      A                      A                      A
 Frequencies --    457.5569               543.7176               653.9507
 Red. masses --      3.6510                 3.8458                 5.7419
 Frc consts  --      0.4504                 0.6699                 1.4468
 IR Inten    --      4.1327                 0.6264                 6.4350

                     10                     11                     12
                      A                      A                      A
 Frequencies --    777.1056               801.5956               812.7770
 Red. masses --      1.0552                 2.6954                 2.3549
 Frc consts  --      0.3754                 1.0204                 0.9166
 IR Inten    --      0.2274                 2.8576                 6.5454

                     13                     14                     15
                      A                      A                      A
 Frequencies --    859.5639               887.2530               917.5822
 Red. masses --      1.7625                 3.3219                 4.0063
 Frc consts  --      0.7673                 1.5408                 1.9874
 IR Inten    --      1.7393                22.1250                 3.9742

                     16                     17                     18
                      A                      A                      A
 Frequencies --    937.0455               960.6950               984.4510
 Red. masses --      1.6101                 1.6057                 2.9616
 Frc consts  --      0.8330                 0.8732                 1.6911
 IR Inten    --     10.0327                 5.5853                16.0048

                     19                     20                     21
                      A                      A                      A
 Frequencies --    988.8929              1009.3632              1018.0199
 Red. masses --      2.3176                 4.1703                 5.8049
 Frc consts  --      1.3353                 2.5033                 3.5445
 IR Inten    --      3.6390                33.0904               109.5221

                     22                     23                     24
                      A                      A                      A
 Frequencies --   1057.5980              1064.5386              1077.3425
 Red. masses --      1.5138                 2.3984                 1.6141
 Frc consts  --      0.9976                 1.6014                 1.1038
 IR Inten    --      6.5551                29.8456                 3.5596

                     25                     26                     27
                      A                      A                      A
 Frequencies --   1095.0645              1126.4201              1167.2823
 Red. masses --      1.7866                 3.1206                 1.2579
 Frc consts  --      1.2623                 2.3329                 1.0098
 IR Inten    --      4.3220                67.0094                21.4166

                     28                     29                     30
                      A                      A                      A
 Frequencies --   1186.1152              1220.7751              1227.1502
 Red. masses --      1.2995                 1.4452                 1.4751
 Frc consts  --      1.0771                 1.2690                 1.3088
 IR Inten    --      0.1536                11.3985                 0.4414

                     31                     32                     33
                      A                      A                      A
 Frequencies --   1243.8969              1290.7032              1303.4644
 Red. masses --      1.5626                 1.5125                 2.1555
 Frc consts  --      1.4245                 1.4846                 2.1577
 IR Inten    --      1.7408                 5.8754                 2.4758

                     34                     35                     36
                      A                      A                      A
 Frequencies --   1329.9505              1348.8515              1372.6966
 Red. masses --      1.2955                 1.3680                 1.5190
 Frc consts  --      1.3500                 1.4664                 1.6864
 IR Inten    --      0.6598                 1.5160                 9.2104

                     37                     38                     39
                      A                      A                      A
 Frequencies --   1415.9381              1471.2147              1505.9941
 Red. masses --      1.9337                 1.0870                 1.3490
 Frc consts  --      2.2842                 1.3862                 1.8027
 IR Inten    --     18.9830                 1.8295                 0.6705

                     40                     41                     42
                      A                      A                      A
 Frequencies --   1510.1012              1519.7912              2989.6810
 Red. masses --      1.1279                 1.1320                 1.0694
 Frc consts  --      1.5155                 1.5405                 5.6315
 IR Inten    --      0.7903                 0.5691                47.1920

                     43                     44                     45
                      A                      A                      A
 Frequencies --   3015.8166              3059.6460              3067.0884
 Red. masses --      1.0564                 1.0882                 1.1086
 Frc consts  --      5.6608                 6.0023                 6.1445
 IR Inten    --     74.4471                36.9655                24.0032

                     46                     47                     48
                      A                      A                      A
 Frequencies --   3088.4431              3109.0090              3126.3467
 Red. masses --      1.0944                 1.0905                 1.0517
 Frc consts  --      6.1502                 6.2106                 6.0562
 IR Inten    --     27.5600                42.2644                18.3792

                     49                     50                     51
                      A                      A                      A
 Frequencies --   3131.4332              3205.2659              3219.6077
 Red. masses --      1.0576                 1.1178                 1.1155
 Frc consts  --      6.1105                 6.7662                 6.8127
 IR Inten    --     12.2834                 0.5712                14.2801

 - Thermochemistry -
 -------------------
 Temperature   298.150 Kelvin.  Pressure   1.00000 Atm.
 Atom     1 has atomic number  6 and mass  12.00000

 Molecular mass:   126.06808 amu.
 Principal axes and moments of inertia in atomic units:
                           1         2         3
     Eigenvalues --   593.639821141.981681420.87133
           X            0.99999  -0.00291   0.00192
           Y            0.00298   0.99934  -0.03610
           Z           -0.00182   0.03611   0.99935
 This molecule is an asymmetric top.
 Rotational symmetry number  1.
 Warning -- assumption of classical behavior for rotation
           may cause significant error
 Rotational temperatures (Kelvin)      0.14590     0.07585     0.06096
 Rotational constants (GHZ):           3.04013     1.58036     1.27017
 Zero-point vibrational energy     422381.5 (Joules/Mol)
                                  100.95161 (Kcal/Mol)
 Warning -- explicit consideration of   8 degrees of freedom as
           vibrations may cause significant error
 Vibrational temperatures:    123.97   226.34   297.34   404.57   463.08
          (Kelvin)            585.14   658.32   782.29   940.89  1118.08
                             1153.32  1169.40  1236.72  1276.56  1320.19
                             1348.20  1382.22  1416.40  1422.79  1452.25
                             1464.70  1521.65  1531.63  1550.05  1575.55
                             1620.67  1679.46  1706.55  1756.42  1765.59
                             1789.69  1857.03  1875.39  1913.50  1940.69
                             1975.00  2037.22  2116.75  2166.79  2172.70
                             2186.64  4301.48  4339.08  4402.14  4412.85
                             4443.58  4473.16  4498.11  4505.43  4611.66
                             4632.29

 Zero-point correction=                           0.160877 (Hartree/Particle)
 Thermal correction to Energy=                    0.168313
 Thermal correction to Enthalpy=                  0.169257
 Thermal correction to Gibbs Free Energy=         0.128860
 Sum of electronic and zero-point Energies=           -422.994492
 Sum of electronic and thermal Energies=              -422.987056
 Sum of electronic and thermal Enthalpies=            -422.986111
 Sum of electronic and thermal Free Energies=         -423.026508

                     E (Thermal)             CV                S
                      KCal/Mol        Cal/Mol-Kelvin    Cal/Mol-Kelvin
 Total                  105.618             29.306             85.022
 Electronic               0.000              0.000              0.000
 Translational            0.889              2.981             40.409
 Rotational               0.889              2.981             28.356
 Vibrational            103.840             23.345             16.257
 Vibration     1          0.601              1.959              3.745
 Vibration     2          0.621              1.894              2.582
 Vibration     3          0.641              1.830              2.073
 Vibration     4          0.681              1.708              1.526
 Vibration     5          0.707              1.632              1.301
 Vibration     6          0.771              1.456              0.938
 Vibration     7          0.816              1.344              0.773
 Vibration     8          0.899              1.153              0.557

 Optimization completed.
    -- Stationary point found.
 Normal termination of Gaussian 09 at Mon Jan 27 12:51:15 2020.
