 Gaussian 09, Revision D.01,
 Gaussian 09:  ES64L-G09RevD.01 24-Apr-2013

 -----------------------------
 # b3lyp 6-31G(2df,p) opt Freq
 -----------------------------

 -----
 titel
 -----
 Symbolic Z-matrix:
 Charge =  0 Multiplicity = 1

 SCF Done:  E(RB3LYP) =  -423.163930589     A.U. after   13 cycles
 Optimization completed.
    -- Stationary point found.
 Normal termination of Gaussian 09 at Mon Jan 27 22:16:08 2020.

 ----------------------------------------------------------------------
 #N Geom=AllCheck Guess=TCheck SCRF=Check GenChk RB3LYP/6-31G(2df,p) Fr
 eq
 ----------------------------------------------------------------------

 Structure from the checkpoint file:  "/scratch/puck/g09_4586fa22-8ddf-43ad-b8e5-ba5fe22d518a/Gau-29121.chk"
 -----
 titel
 -----
 Charge =  0 Multiplicity = 1

                         Standard orientation:
 ---------------------------------------------------------------------
 Center     Atomic      Atomic             Coordinates (Angstroms)
 Number     Number       Type             X           Y           Z
 ---------------------------------------------------------------------
      1          8           0       -2.817317    0.198877    0.076639
      2          6           0       -1.440697    0.369857   -0.110685
      3          6           0       -0.601536   -0.330137    0.921445
      4          6           0       -0.635694   -0.838737   -0.521237
      5          6           0        0.821217   -0.617234   -0.969817
      6          6           0        1.595879   -1.033960    0.292894
      7          6           0        0.880297    0.052434    1.142232
      8          6           0        1.244781    1.274553    0.290673
      9          8           0        1.106810    0.793418   -1.064160
     10          1           0       -3.235223    0.213809   -0.790880
     11          1           0       -1.146031    1.340754   -0.498719
     12          1           0       -1.137605   -0.844650    1.710330
     13          1           0       -1.158593   -1.746740   -0.802088
     14          1           0        1.095185   -1.081178   -1.917438
     15          1           0        1.368845   -2.051027    0.619876
     16          1           0        2.678102   -0.895294    0.206380
     17          1           0        1.172432    0.134643    2.189152
     18          1           0        0.581985    2.132400    0.445611
     19          1           0        2.279484    1.598264    0.464910
 ---------------------------------------------------------------------

 SCF Done:  E(RB3LYP) =  -423.163930589     A.U. after    1 cycles

 The electronic state is 1-A.
 Alpha  occ. eigenvalues --  -19.14041 -19.13205 -10.23260 -10.23224 -10.22284
 Alpha  occ. eigenvalues --  -10.19588 -10.18549 -10.18150 -10.18017  -1.03281
 Alpha  occ. eigenvalues --   -1.02336  -0.86260  -0.76880  -0.73745  -0.62051
 Alpha  occ. eigenvalues --   -0.60790  -0.57489  -0.54179  -0.52529  -0.50413
 Alpha  occ. eigenvalues --   -0.49410  -0.44174  -0.42504  -0.40830  -0.39603
 Alpha  occ. eigenvalues --   -0.37334  -0.35936  -0.35455  -0.34261  -0.31901
 Alpha  occ. eigenvalues --   -0.30515  -0.27015  -0.24872  -0.24258
 Alpha virt. eigenvalues --    0.08011   0.09222   0.11014   0.11551   0.12701
 Alpha virt. eigenvalues --    0.14455   0.14841   0.15706   0.16398   0.17952
 Alpha virt. eigenvalues --    0.18109   0.18619   0.20183   0.21388   0.21901

 Mulliken charges:
               1
     1  O   -0.444686
     2  C    0.074509
     3  C   -0.067963
     4  C   -0.091765
     5  C    0.078509
     6  C   -0.218574
     7  C   -0.066138
     8  C   -0.092413
     9  O   -0.283272
    10  H    0.285461
    11  H    0.106501
    12  H    0.095624
    13  H    0.084182
    14  H    0.074980
    15  H    0.099833
    16  H    0.096935
    17  H    0.069669
    18  H    0.103375
    19  H    0.095233
 Sum of Mulliken charges =   0.00000

 Dipole moment (field-independent basis, Debye):
    X=              0.3168    Y=             -0.8507    Z=              0.0049  Tot=              0.9078
 Quadrupole moment (field-independent basis, Debye-Ang):
   XX=            -53.1925   YY=            -51.9376   ZZ=            -52.6363
   XY=             -0.5353   XZ=              6.5368   YZ=              1.8097

  Exact polarizability:  82.838  -0.057  69.750   3.017   2.680  67.713
 Approx polarizability: 112.176  -0.580 105.265   2.361   3.461 108.185

                      1                      2                      3
                      A                      A                      A
 Frequencies --    210.2767               251.1372               305.8310
 Red. masses --      4.3910                 1.8946                 2.1777
 Frc consts  --      0.1144                 0.0704                 0.1200
 IR Inten    --      1.3765                44.9585                25.2529

                      4                      5                      6
                      A                      A                      A
 Frequencies --    308.4907               398.6485               414.2764
 Red. masses --      2.1198                 3.7413                 2.7393
 Frc consts  --      0.1189                 0.3503                 0.2770
 IR Inten    --     37.7915                 7.8427                 4.3825

                      7                      8                      9
                      A                      A                      A
 Frequencies --    480.2816               539.1227               626.4031
 Red. masses --      1.9492                 4.2357                 4.5066
 Frc consts  --      0.2649                 0.7253                 1.0419
 IR Inten    --      1.2291                 9.1215                 0.4441

                     10                     11                     12
                      A                      A                      A
 Frequencies --    762.5974               781.3702               830.1169
 Red. masses --      2.9867                 3.3045                 2.9306
 Frc consts  --      1.0234                 1.1887                 1.1898
 IR Inten    --      1.0011                 0.6412                10.8384

                     13                     14                     15
                      A                      A                      A
 Frequencies --    845.0419               883.5432               901.8961
 Red. masses --      2.5509                 3.1895                 2.7161
 Frc consts  --      1.0733                 1.4670                 1.3017
 IR Inten    --      9.5151                 8.4416                11.1774

                     16                     17                     18
                      A                      A                      A
 Frequencies --    926.7713               934.7391               952.8587
 Red. masses --      2.3674                 2.4952                 1.8523
 Frc consts  --      1.1980                 1.2845                 0.9909
 IR Inten    --      5.8194                17.4731                 7.7933

                     19                     20                     21
                      A                      A                      A
 Frequencies --    964.5634               989.8668              1000.4986
 Red. masses --      1.8520                 2.3194                 2.1822
 Frc consts  --      1.0152                 1.3390                 1.2870
 IR Inten    --     15.4200                 7.8985                15.7979

                     22                     23                     24
                      A                      A                      A
 Frequencies --   1026.7608              1069.2598              1090.8722
 Red. masses --      1.6033                 1.6368                 1.4315
 Frc consts  --      0.9959                 1.1026                 1.0037
 IR Inten    --      7.4711                20.7640                20.7601

                     25                     26                     27
                      A                      A                      A
 Frequencies --   1102.3582              1135.0092              1144.9364
 Red. masses --      1.7376                 1.2573                 2.1158
 Frc consts  --      1.2440                 0.9543                 1.6341
 IR Inten    --      3.9427                 5.0960                81.2239

                     28                     29                     30
                      A                      A                      A
 Frequencies --   1173.8844              1178.7252              1209.5174
 Red. masses --      2.2057                 1.6640                 1.3135
 Frc consts  --      1.7908                 1.3622                 1.1322
 IR Inten    --      0.9451                15.8278                 2.2903

                     31                     32                     33
                      A                      A                      A
 Frequencies --   1255.6705              1270.9524              1281.4064
 Red. masses --      1.4406                 1.4443                 1.4437
 Frc consts  --      1.3383                 1.3745                 1.3966
 IR Inten    --     10.0952                25.3791                 3.0386

                     34                     35                     36
                      A                      A                      A
 Frequencies --   1291.4554              1299.9981              1317.5937
 Red. masses --      1.7117                 1.2987                 1.5092
 Frc consts  --      1.6820                 1.2931                 1.5437
 IR Inten    --     28.7505                27.9883                 4.7141

                     37                     38                     39
                      A                      A                      A
 Frequencies --   1339.9262              1381.7267              1457.8100
 Red. masses --      1.4474                 1.3849                 1.9562
 Frc consts  --      1.5311                 1.5578                 2.4495
 IR Inten    --      3.5421                 2.6445                14.4319

                     40                     41                     42
                      A                      A                      A
 Frequencies --   1489.8765              1532.6043              3012.3532
 Red. masses --      1.1361                 1.0908                 1.0639
 Frc consts  --      1.4858                 1.5096                 5.6879
 IR Inten    --      1.2789                 0.5420                69.7119

                     43                     44                     45
                      A                      A                      A
 Frequencies --   3057.2152              3064.2902              3116.6213
 Red. masses --      1.0602                 1.1004                 1.0876
 Frc consts  --      5.8381                 6.0877                 6.2242
 IR Inten    --     21.6941                44.0104                47.5214

                     46                     47                     48
                      A                      A                      A
 Frequencies --   3120.5659              3121.7396              3143.4365
 Red. masses --      1.0992                 1.0979                 1.0877
 Frc consts  --      6.3068                 6.3036                 6.3327
 IR Inten    --     26.2644                10.3495                19.8063

                     49                     50                     51
                      A                      A                      A
 Frequencies --   3166.6177              3182.5597              3806.5374
 Red. masses --      1.0900                 1.0913                 1.0661
 Frc consts  --      6.4395                 6.5128                 9.1012
 IR Inten    --     16.5738                 9.6772                24.3466

 - Thermochemistry -
 -------------------
 Temperature   298.150 Kelvin.  Pressure   1.00000 Atm.
 Atom     1 has atomic number  8 and mass  15.99491

 Molecular mass:   126.06808 amu.
 Principal axes and moments of inertia in atomic units:
                           1         2         3
     Eigenvalues --   544.776471260.355151277.82625
           X            0.99966  -0.01253   0.02285
           Y            0.00324   0.92977   0.36812
           Z           -0.02586  -0.36792   0.92950
 This molecule is an asymmetric top.
 Rotational symmetry number  1.
 Warning -- assumption of classical behavior for rotation
           may cause significant error
 Rotational temperatures (Kelvin)      0.15899     0.06872     0.06778
 Rotational constants (GHZ):           3.31281     1.43193     1.41235
 Zero-point vibrational energy     425575.2 (Joules/Mol)
                                  101.71491 (Kcal/Mol)
 Warning -- explicit consideration of   8 degrees of freedom as
           vibrations may cause significant error
 Vibrational temperatures:    302.54   361.33   440.02   443.85   573.57
          (Kelvin)            596.05   691.02   775.68   901.25  1097.21
                             1124.22  1194.35  1215.83  1271.22  1297.63
                             1333.42  1344.88  1370.95  1387.79  1424.20
                             1439.49  1477.28  1538.42  1569.52  1586.05
                             1633.02  1647.31  1688.96  1695.92  1740.22
                             1806.63  1828.61  1843.66  1858.11  1870.40
                             1895.72  1927.85  1987.99  2097.46  2143.60
                             2205.07  4334.10  4398.65  4408.82  4484.12
                             4489.79  4491.48  4522.70  4556.05  4578.99
                             5476.75

 Zero-point correction=                           0.162093 (Hartree/Particle)
 Thermal correction to Energy=                    0.168957
 Thermal correction to Enthalpy=                  0.169901
 Thermal correction to Gibbs Free Energy=         0.131276
 Sum of electronic and zero-point Energies=           -423.001838
 Sum of electronic and thermal Energies=              -422.994974
 Sum of electronic and thermal Enthalpies=            -422.994030
 Sum of electronic and thermal Free Energies=         -423.032654

                     E (Thermal)             CV                S
                      KCal/Mol        Cal/Mol-Kelvin    Cal/Mol-Kelvin
 Total                  106.022             29.109             81.292
 Electronic               0.000              0.000              0.000
 Translational            0.889              2.981             40.409
 Rotational               0.889              2.981             28.264
 Vibrational            104.244             23.148             12.620
 Vibration     1          0.642              1.825              2.041
 Vibration     2          0.663              1.761              1.723
 Vibration     3          0.696              1.663              1.385
 Vibration     4          0.698              1.658              1.370
 Vibration     5          0.765              1.473              0.968
 Vibration     6          0.778              1.439              0.912
 Vibration     7          0.837              1.294              0.709
 Vibration     8          0.894              1.164              0.567

 Optimization completed.
    -- Stationary point found.
 Normal termination of Gaussian 09 at Tue Jan 28 00:34:36 2020.
