 Gaussian 09, Revision D.01,
 Gaussian 09:  ES64L-G09RevD.01 24-Apr-2013

 -----------------------------
 # b3lyp 6-31G(2df,p) opt Freq
 -----------------------------

 -----
 titel
 -----
 Symbolic Z-matrix:
 Charge =  0 Multiplicity = 1

 SCF Done:  E(RB3LYP) =  -423.201848372     A.U. after   14 cycles
 Optimization completed.
    -- Stationary point found.
 Normal termination of Gaussian 09 at Mon Jan 27 22:02:43 2020.

 ----------------------------------------------------------------------
 #N Geom=AllCheck Guess=TCheck SCRF=Check GenChk RB3LYP/6-31G(2df,p) Fr
 eq
 ----------------------------------------------------------------------

 Structure from the checkpoint file:  "/scratch/puck/g09_5ccb7a52-5e10-45c4-8825-9afa29155b8d/Gau-181005.chk"
 -----
 titel
 -----
 Charge =  0 Multiplicity = 1

                         Standard orientation:
 ---------------------------------------------------------------------
 Center     Atomic      Atomic             Coordinates (Angstroms)
 Number     Number       Type             X           Y           Z
 ---------------------------------------------------------------------
      1          6           0       -1.577658    2.115665   -0.088400
      2          6           0       -1.354490    0.638103   -0.062585
      3          6           0       -2.216700   -0.331884    0.230440
      4          6           0       -1.567607   -1.676514    0.091830
      5          8           0       -0.221046   -1.396560   -0.291793
      6          6           0       -0.023892    0.011145   -0.421583
      7          6           0        1.146569    0.454602    0.482064
      8          6           0        2.430416   -0.275141    0.146957
      9          8           0        3.464986    0.271557   -0.142087
     10          1           0       -0.932910    2.634198    0.631220
     11          1           0       -1.343229    2.532897   -1.075727
     12          1           0       -2.614936    2.364571    0.148228
     13          1           0       -3.253546   -0.202536    0.516018
     14          1           0       -1.572851   -2.256221    1.027755
     15          1           0       -2.051791   -2.300380   -0.676073
     16          1           0        0.242972    0.241937   -1.467444
     17          1           0        1.326890    1.529669    0.391149
     18          1           0        0.877144    0.221915    1.520982
     19          1           0        2.350908   -1.381887    0.182601
 ---------------------------------------------------------------------

 SCF Done:  E(RB3LYP) =  -423.201848372     A.U. after    1 cycles

 The electronic state is 1-A.
 Alpha  occ. eigenvalues --  -19.14343 -19.13385 -10.26496 -10.24776 -10.23676
 Alpha  occ. eigenvalues --  -10.20021 -10.19638 -10.19303 -10.18939  -1.04331
 Alpha  occ. eigenvalues --   -1.03892  -0.81684  -0.78524  -0.72517  -0.68634
 Alpha  occ. eigenvalues --   -0.60899  -0.56538  -0.55192  -0.50203  -0.48938
 Alpha  occ. eigenvalues --   -0.45483  -0.44817  -0.43485  -0.42785  -0.41846
 Alpha  occ. eigenvalues --   -0.40586  -0.39377  -0.38145  -0.35900  -0.35489
 Alpha  occ. eigenvalues --   -0.32648  -0.27730  -0.24887  -0.23526
 Alpha virt. eigenvalues --   -0.01792   0.01284   0.08816   0.10578   0.11850
 Alpha virt. eigenvalues --    0.12854   0.13055   0.14444   0.15656   0.15793
 Alpha virt. eigenvalues --    0.16657   0.17547   0.18379   0.20357   0.21476

 Mulliken charges:
               1
     1  C   -0.499830
     2  C    0.314605
     3  C   -0.206998
     4  C   -0.118461
     5  O   -0.280787
     6  C    0.024104
     7  C   -0.288271
     8  C    0.154174
     9  O   -0.243454
    10  H    0.136374
    11  H    0.134046
    12  H    0.130974
    13  H    0.103341
    14  H    0.107914
    15  H    0.108872
    16  H    0.091204
    17  H    0.116449
    18  H    0.118572
    19  H    0.097171
 Sum of Mulliken charges =   0.00000

 Dipole moment (field-independent basis, Debye):
    X=             -3.7579    Y=              0.5328    Z=              0.8197  Tot=              3.8830
 Quadrupole moment (field-independent basis, Debye-Ang):
   XX=            -62.3850   YY=            -51.8153   ZZ=            -52.3854
   XY=             -1.3884   XZ=              1.1495   YZ=             -1.0822

  Exact polarizability:  93.847   8.657  87.020  -4.968  -3.506  56.868
 Approx polarizability: 130.255  21.560 126.825 -11.351  -7.992  89.227

                      1                      2                      3
                      A                      A                      A
 Frequencies --     47.1309                73.6341                87.2678
 Red. masses --      4.1578                 3.8151                 3.4975
 Frc consts  --      0.0054                 0.0122                 0.0157
 IR Inten    --      3.1983                 2.3891                 5.8339

                      4                      5                      6
                      A                      A                      A
 Frequencies --    163.1404               169.4394               241.8464
 Red. masses --      2.1817                 1.1731                 2.1090
 Frc consts  --      0.0342                 0.0198                 0.0727
 IR Inten    --      2.1730                 0.1360                 0.5924

                      7                      8                      9
                      A                      A                      A
 Frequencies --    258.7603               336.3732               430.7652
 Red. masses --      3.1245                 3.0245                 3.3764
 Frc consts  --      0.1233                 0.2016                 0.3691
 IR Inten    --      2.0397                 1.0096                 7.6959

                     10                     11                     12
                      A                      A                      A
 Frequencies --    473.6765               566.1779               603.0822
 Red. masses --      2.7942                 2.3441                 4.0452
 Frc consts  --      0.3694                 0.4427                 0.8668
 IR Inten    --      3.7240                16.4419                 2.6378

                     13                     14                     15
                      A                      A                      A
 Frequencies --    770.9652               802.3502               833.0289
 Red. masses --      5.3962                 1.4673                 2.5837
 Frc consts  --      1.8898                 0.5565                 1.0564
 IR Inten    --      4.5955                 2.9996                 6.4546

                     16                     17                     18
                      A                      A                      A
 Frequencies --    848.2584               927.3630               947.2732
 Red. masses --      1.4786                 3.4129                 2.2892
 Frc consts  --      0.6268                 1.7293                 1.2103
 IR Inten    --     11.6733                 4.5575                10.1058

                     19                     20                     21
                      A                      A                      A
 Frequencies --    999.1635              1037.3484              1045.7137
 Red. masses --      1.8715                 1.7609                 1.8102
 Frc consts  --      1.1008                 1.1164                 1.1663
 IR Inten    --      0.3367                 2.4799                10.2772

                     22                     23                     24
                      A                      A                      A
 Frequencies --   1055.1888              1085.3118              1094.9554
 Red. masses --      1.6785                 2.4068                 2.2621
 Frc consts  --      1.1011                 1.6703                 1.5979
 IR Inten    --     16.3311                73.5166                 7.9893

                     25                     26                     27
                      A                      A                      A
 Frequencies --   1116.1801              1192.1452              1209.0305
 Red. masses --      5.8330                 1.1059                 2.4432
 Frc consts  --      4.2816                 0.9261                 2.1042
 IR Inten    --     73.0454                 2.2751                 6.2590

                     28                     29                     30
                      A                      A                      A
 Frequencies --   1225.5163              1267.2363              1295.8721
 Red. masses --      1.2722                 1.3465                 1.5136
 Frc consts  --      1.1258                 1.2740                 1.4976
 IR Inten    --      5.4038                 0.7435                 6.1066

                     31                     32                     33
                      A                      A                      A
 Frequencies --   1354.9455              1364.1829              1384.5323
 Red. masses --      1.7380                 1.3730                 1.4656
 Frc consts  --      1.8799                 1.5054                 1.6553
 IR Inten    --      0.2385                33.5731                 7.4246

                     34                     35                     36
                      A                      A                      A
 Frequencies --   1417.9983              1421.9946              1452.8061
 Red. masses --      1.2753                 1.2103                 1.1002
 Frc consts  --      1.5108                 1.4420                 1.3682
 IR Inten    --      6.4619                 6.6258                 4.3477

                     37                     38                     39
                      A                      A                      A
 Frequencies --   1480.8655              1489.4066              1524.3438
 Red. masses --      1.0442                 1.0588                 1.0852
 Frc consts  --      1.3492                 1.3839                 1.4857
 IR Inten    --      6.9401                 6.4606                 1.7236

                     40                     41                     42
                      A                      A                      A
 Frequencies --   1733.2127              1827.4043              2918.8942
 Red. masses --      7.3918                 9.7637                 1.0838
 Frc consts  --     13.0829                19.2103                 5.4403
 IR Inten    --      3.8960               196.9941                71.0462

                     43                     44                     45
                      A                      A                      A
 Frequencies --   2950.0002              2976.7639              2994.0348
 Red. masses --      1.0820                 1.0575                 1.1046
 Frc consts  --      5.5476                 5.5212                 5.8340
 IR Inten    --     48.9302                86.9521                45.1944

                     46                     47                     48
                      A                      A                      A
 Frequencies --   3024.0574              3026.8848              3071.8455
 Red. masses --      1.0386                 1.0617                 1.0984
 Frc consts  --      5.5961                 5.7312                 6.1068
 IR Inten    --     22.5201                 8.4241                16.0147

                     49                     50                     51
                      A                      A                      A
 Frequencies --   3103.6707              3118.4827              3210.1278
 Red. masses --      1.0995                 1.0991                 1.0952
 Frc consts  --      6.2404                 6.2977                 6.6498
 IR Inten    --     14.9847                16.8074                 7.1547

 - Thermochemistry -
 -------------------
 Temperature   298.150 Kelvin.  Pressure   1.00000 Atm.
 Atom     1 has atomic number  6 and mass  12.00000

 Molecular mass:   126.06808 amu.
 Principal axes and moments of inertia in atomic units:
                           1         2         3
     Eigenvalues --   639.435391680.086382206.70438
           X            0.99989  -0.01449   0.00103
           Y            0.01450   0.99986  -0.00822
           Z           -0.00091   0.00823   0.99997
 This molecule is an asymmetric top.
 Rotational symmetry number  1.
 Warning -- assumption of classical behavior for rotation
           may cause significant error
 Rotational temperatures (Kelvin)      0.13545     0.05155     0.03925
 Rotational constants (GHZ):           2.82240     1.07420     0.81784
 Zero-point vibrational energy     413014.6 (Joules/Mol)
                                   98.71286 (Kcal/Mol)
 Warning -- explicit consideration of  12 degrees of freedom as
           vibrations may cause significant error
 Vibrational temperatures:     67.81   105.94   125.56   234.72   243.79
          (Kelvin)            347.96   372.30   483.97   619.77   681.51
                              814.60   867.70  1109.25  1154.40  1198.54
                             1220.45  1334.27  1362.91  1437.57  1492.51
                             1504.55  1518.18  1561.52  1575.39  1605.93
                             1715.23  1739.52  1763.24  1823.27  1864.47
                             1949.46  1962.75  1992.03  2040.18  2045.93
                             2090.26  2130.63  2142.92  2193.19  2493.70
                             2629.22  4199.63  4244.39  4282.89  4307.74
                             4350.94  4355.01  4419.69  4465.48  4486.80
                             4618.65

 Zero-point correction=                           0.157309 (Hartree/Particle)
 Thermal correction to Energy=                    0.166705
 Thermal correction to Enthalpy=                  0.167649
 Thermal correction to Gibbs Free Energy=         0.121832
 Sum of electronic and zero-point Energies=           -423.044539
 Sum of electronic and thermal Energies=              -423.035143
 Sum of electronic and thermal Enthalpies=            -423.034199
 Sum of electronic and thermal Free Energies=         -423.080016

                     E (Thermal)             CV                S
                      KCal/Mol        Cal/Mol-Kelvin    Cal/Mol-Kelvin
 Total                  104.609             33.069             96.429
 Electronic               0.000              0.000              0.000
 Translational            0.889              2.981             40.409
 Rotational               0.889              2.981             29.251
 Vibrational            102.832             27.108             26.770
 Vibration     1          0.595              1.979              4.934
 Vibration     2          0.599              1.966              4.054
 Vibration     3          0.601              1.958              3.720
 Vibration     4          0.623              1.888              2.513
 Vibration     5          0.625              1.880              2.442
 Vibration     6          0.658              1.776              1.789
 Vibration     7          0.668              1.748              1.670
 Vibration     8          0.717              1.603              1.229
 Vibration     9          0.792              1.403              0.856
 Vibration    10          0.830              1.308              0.727
 Vibration    11          0.922              1.104              0.512
 Vibration    12          0.961              1.025              0.444

 Normal termination of Gaussian 09 at Mon Jan 27 22:42:18 2020.
