 Gaussian 09, Revision D.01,
 Gaussian 09:  ES64L-G09RevD.01 24-Apr-2013

 -----------------------------
 # b3lyp 6-31G(2df,p) opt Freq
 -----------------------------

 -----
 titel
 -----
 Symbolic Z-matrix:
 Charge =  0 Multiplicity = 1

 SCF Done:  E(RB3LYP) =  -423.130765661     A.U. after   14 cycles
 Optimization completed.
    -- Stationary point found.
 Normal termination of Gaussian 09 at Tue Jan 28 08:11:55 2020.

 ----------------------------------------------------------------------
 #N Geom=AllCheck Guess=TCheck SCRF=Check GenChk RB3LYP/6-31G(2df,p) Fr
 eq
 ----------------------------------------------------------------------

 Structure from the checkpoint file:  "/scratch/puck/g09_a7228a29-8b84-48f5-9ff2-b83c4edbb2b3/Gau-102129.chk"
 -----
 titel
 -----
 Charge =  0 Multiplicity = 1

                         Standard orientation:
 ---------------------------------------------------------------------
 Center     Atomic      Atomic             Coordinates (Angstroms)
 Number     Number       Type             X           Y           Z
 ---------------------------------------------------------------------
      1          6           0        3.711506    0.442891    0.877774
      2          6           0        3.186163   -0.101732   -0.462910
      3          6           0        1.731277   -0.183607   -0.522836
      4          6           0        0.528316   -0.250444   -0.552286
      5          6           0       -0.917517   -0.318596   -0.595873
      6          8           0       -1.481443   -1.498700    0.043816
      7          6           0       -2.463629   -0.706307    0.742264
      8          6           0       -1.748182    0.601612    0.334908
      9          8           0       -2.473930    1.580260   -0.359324
     10          1           0        3.393955   -0.195163    1.706801
     11          1           0        4.804824    0.482151    0.871177
     12          1           0        3.331752    1.451363    1.063057
     13          1           0        3.546185    0.530706   -1.284607
     14          1           0        3.607837   -1.098503   -0.645765
     15          1           0       -1.281559   -0.228729   -1.629346
     16          1           0       -3.463700   -0.790674    0.296228
     17          1           0       -2.508009   -0.955583    1.808138
     18          1           0       -1.140892    1.028595    1.140268
     19          1           0       -2.815013    2.220459    0.271854
 ---------------------------------------------------------------------

 SCF Done:  E(RB3LYP) =  -423.130765661     A.U. after    1 cycles

 The electronic state is 1-A.
 Alpha  occ. eigenvalues --  -19.15023 -19.13237 -10.24786 -10.24314 -10.22499
 Alpha  occ. eigenvalues --  -10.20825 -10.18331 -10.17646 -10.16736  -1.04779
 Alpha  occ. eigenvalues --   -1.02136  -0.79737  -0.75478  -0.72268  -0.68708
 Alpha  occ. eigenvalues --   -0.63511  -0.57819  -0.54522  -0.50849  -0.47313
 Alpha  occ. eigenvalues --   -0.46184  -0.45592  -0.44519  -0.41865  -0.39585
 Alpha  occ. eigenvalues --   -0.38791  -0.37107  -0.36315  -0.34989  -0.32218
 Alpha  occ. eigenvalues --   -0.27862  -0.26086  -0.25136  -0.24150
 Alpha virt. eigenvalues --    0.02721   0.05228   0.06649   0.10681   0.11717
 Alpha virt. eigenvalues --    0.13501   0.13976   0.14732   0.15032   0.15787
 Alpha virt. eigenvalues --    0.17001   0.17657   0.19682   0.20543   0.21709

 Mulliken charges:
               1
     1  C   -0.365394
     2  C   -0.317016
     3  C    0.116038
     4  C    0.033737
     5  C   -0.041078
     6  O   -0.286940
     7  C   -0.099046
     8  C    0.049565
     9  O   -0.422437
    10  H    0.130203
    11  H    0.115321
    12  H    0.126372
    13  H    0.131803
    14  H    0.135039
    15  H    0.107602
    16  H    0.100818
    17  H    0.103711
    18  H    0.089915
    19  H    0.291786
 Sum of Mulliken charges =   0.00000

 Dipole moment (field-independent basis, Debye):
    X=              0.4166    Y=              2.0311    Z=              1.6001  Tot=              2.6190
 Quadrupole moment (field-independent basis, Debye-Ang):
   XX=            -43.4666   YY=            -54.6225   ZZ=            -52.0533
   XY=             -3.5679   XZ=             -4.7579   YZ=              2.6267

  Exact polarizability: 118.253   1.299  64.169  -2.731  -0.022  65.366
 Approx polarizability: 157.191   1.410  93.825  -2.926  -1.019  93.881

                      1                      2                      3
                      A                      A                      A
 Frequencies --     24.5755                63.2993                72.9100
 Red. masses --      2.5152                 2.8629                 3.5078
 Frc consts  --      0.0009                 0.0068                 0.0110
 IR Inten    --      0.4330                 1.5257                 2.4194

                      4                      5                      6
                      A                      A                      A
 Frequencies --    120.8544               177.2937               206.4812
 Red. masses --      3.1970                 1.3395                 1.8662
 Frc consts  --      0.0275                 0.0248                 0.0469
 IR Inten    --      0.3212                76.9211                 9.0318

                      7                      8                      9
                      A                      A                      A
 Frequencies --    231.5243               297.8052               353.7334
 Red. masses --      1.9258                 2.7323                 3.5412
 Frc consts  --      0.0608                 0.1428                 0.2611
 IR Inten    --     14.5430                 0.5817                 2.9666

                     10                     11                     12
                      A                      A                      A
 Frequencies --    394.2377               444.7976               506.8949
 Red. masses --      3.6534                 3.2624                 5.5757
 Frc consts  --      0.3346                 0.3803                 0.8441
 IR Inten    --     10.2643                 3.5752                 4.0197

                     13                     14                     15
                      A                      A                      A
 Frequencies --    555.0113               698.7414               782.3309
 Red. masses --      4.5309                 6.0306                 2.4188
 Frc consts  --      0.8223                 1.7348                 0.8722
 IR Inten    --      0.6554                 6.7006                 8.2382

                     16                     17                     18
                      A                      A                      A
 Frequencies --    784.0567               888.4442               949.9718
 Red. masses --      1.2155                 2.1507                 3.7898
 Frc consts  --      0.4402                 1.0002                 2.0151
 IR Inten    --      1.8949                10.2833                26.7921

                     19                     20                     21
                      A                      A                      A
 Frequencies --    976.1175               995.8081              1014.8167
 Red. masses --      3.1978                 3.4826                 4.4607
 Frc consts  --      1.7952                 2.0347                 2.7066
 IR Inten    --     40.1074                69.2505                48.7399

                     22                     23                     24
                      A                      A                      A
 Frequencies --   1078.5552              1081.5368              1102.8123
 Red. masses --      2.5466                 1.8492                 1.4784
 Frc consts  --      1.7454                 1.2745                 1.0593
 IR Inten    --     25.7239                 1.1962                 0.7789

                     25                     26                     27
                      A                      A                      A
 Frequencies --   1138.0323              1166.5446              1184.7568
 Red. masses --      2.3444                 1.3041                 2.3203
 Frc consts  --      1.7889                 1.0456                 1.9189
 IR Inten    --     94.9796                13.3162                14.7633

                     28                     29                     30
                      A                      A                      A
 Frequencies --   1201.5238              1253.6483              1286.6812
 Red. masses --      1.2654                 1.2606                 1.1491
 Frc consts  --      1.0763                 1.1673                 1.1209
 IR Inten    --      2.0644                11.9377                 0.0631

                     31                     32                     33
                      A                      A                      A
 Frequencies --   1300.6715              1325.3974              1350.7657
 Red. masses --      1.3834                 1.3902                 1.4768
 Frc consts  --      1.3789                 1.4388                 1.5876
 IR Inten    --     46.4111                 5.9676                19.8784

                     34                     35                     36
                      A                      A                      A
 Frequencies --   1364.3323              1409.0868              1445.2688
 Red. masses --      1.5116                 1.2128                 1.5072
 Frc consts  --      1.6578                 1.4188                 1.8549
 IR Inten    --     45.7149                 1.1671                11.7483

                     37                     38                     39
                      A                      A                      A
 Frequencies --   1470.9543              1495.1239              1505.3150
 Red. masses --      1.0734                 1.0396                 1.0555
 Frc consts  --      1.3684                 1.3692                 1.4092
 IR Inten    --      2.4598                 4.7274                 0.9503

                     40                     41                     42
                      A                      A                      A
 Frequencies --   1514.5918              2361.1007              3002.6990
 Red. masses --      1.1139                11.9023                 1.0766
 Frc consts  --      1.5055                39.0942                 5.7193
 IR Inten    --      2.2071                17.4954                32.1689

                     43                     44                     45
                      A                      A                      A
 Frequencies --   3012.6745              3021.3598              3044.6643
 Red. masses --      1.0633                 1.0590                 1.0344
 Frc consts  --      5.6860                 5.6958                 5.6498
 IR Inten    --     65.3039                21.4534                25.8687

                     46                     47                     48
                      A                      A                      A
 Frequencies --   3046.1175              3048.9795              3072.7684
 Red. masses --      1.0884                 1.1007                 1.1063
 Frc consts  --      5.9503                 6.0290                 6.1543
 IR Inten    --     20.1736                 7.9105                56.6251

                     49                     50                     51
                      A                      A                      A
 Frequencies --   3118.0530              3124.2707              3832.2851
 Red. masses --      1.1021                 1.1029                 1.0665
 Frc consts  --      6.3131                 6.3430                 9.2284
 IR Inten    --     30.8697                24.2877                34.5634

 - Thermochemistry -
 -------------------
 Temperature   298.150 Kelvin.  Pressure   1.00000 Atm.
 Atom     1 has atomic number  6 and mass  12.00000

 Molecular mass:   126.06808 amu.
 Principal axes and moments of inertia in atomic units:
                           1         2         3
     Eigenvalues --   535.172092596.651172794.21617
           X            0.99999   0.00430   0.00219
           Y           -0.00437   0.99940   0.03438
           Z           -0.00204  -0.03439   0.99941
 This molecule is an asymmetric top.
 Rotational symmetry number  1.
 Warning -- assumption of classical behavior for rotation
           may cause significant error
 Rotational temperatures (Kelvin)      0.16184     0.03336     0.03100
 Rotational constants (GHZ):           3.37226     0.69503     0.64588
 Zero-point vibrational energy     412115.2 (Joules/Mol)
                                   98.49789 (Kcal/Mol)
 Warning -- explicit consideration of  13 degrees of freedom as
           vibrations may cause significant error
 Vibrational temperatures:     35.36    91.07   104.90   173.88   255.09
          (Kelvin)            297.08   333.11   428.47   508.94   567.22
                              639.96   729.31   798.54  1005.33  1125.60
                             1128.08  1278.27  1366.80  1404.41  1432.74
                             1460.09  1551.80  1556.09  1586.70  1637.37
                             1678.40  1704.60  1728.72  1803.72  1851.24
                             1871.37  1906.95  1943.45  1962.97  2027.36
                             2079.42  2116.37  2151.15  2165.81  2179.16
                             3397.09  4320.21  4334.56  4347.06  4380.59
                             4382.68  4386.80  4421.02  4486.18  4495.12
                             5513.80

 Zero-point correction=                           0.156966 (Hartree/Particle)
 Thermal correction to Energy=                    0.167154
 Thermal correction to Enthalpy=                  0.168098
 Thermal correction to Gibbs Free Energy=         0.119800
 Sum of electronic and zero-point Energies=           -422.973799
 Sum of electronic and thermal Energies=              -422.963612
 Sum of electronic and thermal Enthalpies=            -422.962668
 Sum of electronic and thermal Free Energies=         -423.010966

                     E (Thermal)             CV                S
                      KCal/Mol        Cal/Mol-Kelvin    Cal/Mol-Kelvin
 Total                  104.890             35.187            101.652
 Electronic               0.000              0.000              0.000
 Translational            0.889              2.981             40.409
 Rotational               0.889              2.981             29.742
 Vibrational            103.113             29.226             31.502
 Vibration     1          0.593              1.985              6.225
 Vibration     2          0.597              1.972              4.352
 Vibration     3          0.599              1.967              4.073
 Vibration     4          0.609              1.932              3.087
 Vibration     5          0.628              1.870              2.357
 Vibration     6          0.641              1.831              2.075
 Vibration     7          0.653              1.793              1.867
 Vibration     8          0.691              1.678              1.429
 Vibration     9          0.730              1.568              1.150
 Vibration    10          0.761              1.482              0.984
 Vibration    11          0.804              1.372              0.812
 Vibration    12          0.862              1.235              0.641
 Vibration    13          0.910              1.129              0.534

 Normal termination of Gaussian 09 at Tue Jan 28 08:45:06 2020.
