 Gaussian 09, Revision D.01,
 Gaussian 09:  ES64L-G09RevD.01 24-Apr-2013

 -----------------------------
 # b3lyp 6-31G(2df,p) opt Freq
 -----------------------------

 -----
 titel
 -----
 Symbolic Z-matrix:
 Charge =  0 Multiplicity = 1

 SCF Done:  E(RB3LYP) =  -423.146825451     A.U. after   13 cycles
 Optimization completed.
    -- Stationary point found.
 Normal termination of Gaussian 09 at Mon Jan 27 11:18:16 2020.

 ----------------------------------------------------------------------
 #N Geom=AllCheck Guess=TCheck SCRF=Check GenChk RB3LYP/6-31G(2df,p) Fr
 eq
 ----------------------------------------------------------------------

 Structure from the checkpoint file:  "/scratch/puck/g09_46a93886-7dac-4f89-8f62-94641ea7ba5d/Gau-150395.chk"
 -----
 titel
 -----
 Charge =  0 Multiplicity = 1

                         Standard orientation:
 ---------------------------------------------------------------------
 Center     Atomic      Atomic             Coordinates (Angstroms)
 Number     Number       Type             X           Y           Z
 ---------------------------------------------------------------------
      1          6           0       -1.957051    0.592561   -0.554725
      2          6           0       -1.986291   -0.804610    0.054369
      3          8           0       -0.716624   -1.425610   -0.066562
      4          6           0        0.360507   -0.784420    0.586259
      5          6           0        1.528188   -0.748338   -0.416362
      6          8           0        2.560496    0.084397    0.106742
      7          6           0        1.435864    0.711469   -0.533265
      8          6           0        0.344888    0.799072    0.555234
      9          6           0       -0.998017    1.472628    0.256716
     10          1           0       -1.632779    0.507531   -1.598616
     11          1           0       -2.961852    1.029342   -0.556591
     12          1           0       -2.301453   -0.755312    1.110835
     13          1           0       -2.683997   -1.462277   -0.471845
     14          1           0        0.550453   -1.246910    1.563905
     15          1           0        1.792908   -1.518554   -1.131572
     16          1           0        1.644614    1.377127   -1.363806
     17          1           0        0.778561    1.227406    1.463326
     18          1           0       -1.480450    1.706669    1.214162
     19          1           0       -0.825515    2.434511   -0.240590
 ---------------------------------------------------------------------

 SCF Done:  E(RB3LYP) =  -423.146825451     A.U. after    1 cycles

 The electronic state is 1-A.
 Alpha  occ. eigenvalues --  -19.15005 -19.14160 -10.23553 -10.23463 -10.23204
 Alpha  occ. eigenvalues --  -10.22993 -10.19428 -10.19124 -10.18543  -1.07801
 Alpha  occ. eigenvalues --   -1.03362  -0.81013  -0.78563  -0.67811  -0.66820
 Alpha  occ. eigenvalues --   -0.61871  -0.59474  -0.53924  -0.50884  -0.49512
 Alpha  occ. eigenvalues --   -0.46793  -0.46474  -0.43199  -0.42992  -0.39689
 Alpha  occ. eigenvalues --   -0.38916  -0.38011  -0.35477  -0.33728  -0.32785
 Alpha  occ. eigenvalues --   -0.31049  -0.27875  -0.25737  -0.24742
 Alpha virt. eigenvalues --    0.07473   0.08639   0.11328   0.11718   0.12447
 Alpha virt. eigenvalues --    0.13576   0.14359   0.14982   0.15165   0.15947
 Alpha virt. eigenvalues --    0.16988   0.18634   0.19576   0.20032   0.20369

 Mulliken charges:
               1
     1  C   -0.204889
     2  C   -0.057604
     3  O   -0.270017
     4  C    0.059922
     5  C    0.024700
     6  O   -0.249071
     7  C    0.002305
     8  C   -0.035525
     9  C   -0.242889
    10  H    0.106385
    11  H    0.096170
    12  H    0.085422
    13  H    0.107814
    14  H    0.075268
    15  H    0.108012
    16  H    0.101059
    17  H    0.088753
    18  H    0.103764
    19  H    0.100421
 Sum of Mulliken charges =   0.00000

 Dipole moment (field-independent basis, Debye):
    X=             -2.0548    Y=              1.1061    Z=             -0.3635  Tot=              2.3617
 Quadrupole moment (field-independent basis, Debye-Ang):
   XX=            -56.7433   YY=            -53.1758   ZZ=            -51.4100
   XY=             -1.1609   XZ=             -2.0922   YZ=             -0.5225

  Exact polarizability:  82.759  -0.811  74.049  -1.375  -0.405  65.419
 Approx polarizability: 112.305  -0.713 111.337   0.098   0.165 100.502

                      1                      2                      3
                      A                      A                      A
 Frequencies --    108.9106               143.2600               293.6998
 Red. masses --      3.2681                 2.7961                 2.7736
 Frc consts  --      0.0228                 0.0338                 0.1410
 IR Inten    --      1.0772                 1.6409                 3.5465

                      4                      5                      6
                      A                      A                      A
 Frequencies --    316.8496               357.0436               412.6768
 Red. masses --      2.6866                 2.6609                 5.6540
 Frc consts  --      0.1589                 0.1999                 0.5673
 IR Inten    --      5.0888                 2.8888                 1.7510

                      7                      8                      9
                      A                      A                      A
 Frequencies --    481.8864               528.6073               612.9951
 Red. masses --      2.8942                 6.0903                 2.2968
 Frc consts  --      0.3960                 1.0027                 0.5085
 IR Inten    --      0.5836                 6.8017                 2.6733

                     10                     11                     12
                      A                      A                      A
 Frequencies --    768.8732               822.9881               839.8047
 Red. masses --      3.2428                 2.2419                 2.5523
 Frc consts  --      1.1295                 0.8946                 1.0606
 IR Inten    --      0.3574                 4.7717                11.0077

                     13                     14                     15
                      A                      A                      A
 Frequencies --    844.2229               865.4171               881.4190
 Red. masses --      4.5385                 2.0056                 2.2198
 Frc consts  --      1.9058                 0.8850                 1.0161
 IR Inten    --     12.4544                15.9566                17.5162

                     16                     17                     18
                      A                      A                      A
 Frequencies --    919.7546               942.8210               986.0623
 Red. masses --      1.8479                 2.4965                 2.2750
 Frc consts  --      0.9210                 1.3075                 1.3033
 IR Inten    --      1.6248                 4.6404                18.6623

                     19                     20                     21
                      A                      A                      A
 Frequencies --   1006.0976              1015.2817              1049.5090
 Red. masses --      2.1594                 1.8942                 2.4322
 Frc consts  --      1.2879                 1.1504                 1.5784
 IR Inten    --      2.2442                 4.3882                 6.8100

                     22                     23                     24
                      A                      A                      A
 Frequencies --   1069.4314              1095.4980              1130.5659
 Red. masses --      1.5340                 1.5442                 2.0525
 Frc consts  --      1.0337                 1.0919                 1.5457
 IR Inten    --      0.3912                42.5871                19.4395

                     25                     26                     27
                      A                      A                      A
 Frequencies --   1138.3421              1214.5367              1217.1657
 Red. masses --      3.2237                 1.4690                 1.2722
 Frc consts  --      2.4612                 1.2767                 1.1105
 IR Inten    --     57.4313                 9.4510                 5.4245

                     28                     29                     30
                      A                      A                      A
 Frequencies --   1226.8517              1242.4166              1264.0188
 Red. masses --      1.5362                 1.5425                 1.6045
 Frc consts  --      1.3624                 1.4028                 1.5104
 IR Inten    --     16.8351                13.6148                 3.2311

                     31                     32                     33
                      A                      A                      A
 Frequencies --   1281.7061              1317.1400              1334.3575
 Red. masses --      1.4403                 1.2520                 1.4506
 Frc consts  --      1.3940                 1.2797                 1.5218
 IR Inten    --     20.7639                 4.0227                 3.4951

                     34                     35                     36
                      A                      A                      A
 Frequencies --   1347.7193              1373.2050              1386.8401
 Red. masses --      1.3330                 1.6124                 2.1656
 Frc consts  --      1.4265                 1.7914                 2.4540
 IR Inten    --      2.2027                15.8499                13.0994

                     37                     38                     39
                      A                      A                      A
 Frequencies --   1393.5488              1411.1670              1478.3757
 Red. masses --      1.8411                 1.3364                 1.0880
 Frc consts  --      2.1066                 1.5680                 1.4010
 IR Inten    --      3.4245                 8.7923                 3.1469

                     40                     41                     42
                      A                      A                      A
 Frequencies --   1489.7870              1504.6204              2961.7125
 Red. masses --      1.0922                 1.0933                 1.0711
 Frc consts  --      1.4282                 1.4582                 5.5354
 IR Inten    --      3.5398                 1.6019                56.7802

                     43                     44                     45
                      A                      A                      A
 Frequencies --   3014.2369              3020.4315              3033.7256
 Red. masses --      1.0854                 1.0617                 1.0625
 Frc consts  --      5.8105                 5.7069                 5.7612
 IR Inten    --     68.4713                24.9475                17.9512

                     46                     47                     48
                      A                      A                      A
 Frequencies --   3056.7290              3067.4655              3081.5480
 Red. masses --      1.0972                 1.0866                 1.1017
 Frc consts  --      6.0400                 6.0237                 6.1636
 IR Inten    --     26.4329                31.0056                49.9372

                     49                     50                     51
                      A                      A                      A
 Frequencies --   3085.8454              3173.3782              3193.7230
 Red. masses --      1.0941                 1.0884                 1.1004
 Frc consts  --      6.1383                 6.4576                 6.6131
 IR Inten    --     39.1957                17.8639                16.1649

 - Thermochemistry -
 -------------------
 Temperature   298.150 Kelvin.  Pressure   1.00000 Atm.
 Atom     1 has atomic number  6 and mass  12.00000

 Molecular mass:   126.06808 amu.
 Principal axes and moments of inertia in atomic units:
                           1         2         3
     Eigenvalues --   537.062131212.101491522.24249
           X            0.99986  -0.01638  -0.00319
           Y            0.01637   0.99986  -0.00400
           Z            0.00326   0.00395   0.99999
 This molecule is an asymmetric top.
 Rotational symmetry number  1.
 Warning -- assumption of classical behavior for rotation
           may cause significant error
 Rotational temperatures (Kelvin)      0.16127     0.07146     0.05690
 Rotational constants (GHZ):           3.36040     1.48894     1.18558
 Zero-point vibrational energy     423503.6 (Joules/Mol)
                                  101.21978 (Kcal/Mol)
 Warning -- explicit consideration of   9 degrees of freedom as
           vibrations may cause significant error
 Vibrational temperatures:    156.70   206.12   422.57   455.88   513.71
          (Kelvin)            593.75   693.33   760.55   881.96  1106.24
                             1184.09  1208.29  1214.65  1245.14  1268.16
                             1323.32  1356.51  1418.72  1447.55  1460.76
                             1510.01  1538.67  1576.18  1626.63  1637.82
                             1747.45  1751.23  1765.16  1787.56  1818.64
                             1844.09  1895.07  1919.84  1939.07  1975.73
                             1995.35  2005.00  2030.35  2127.05  2143.47
                             2164.81  4261.24  4336.81  4345.72  4364.85
                             4397.95  4413.39  4433.65  4439.84  4565.78
                             4595.05

 Zero-point correction=                           0.161304 (Hartree/Particle)
 Thermal correction to Energy=                    0.168490
 Thermal correction to Enthalpy=                  0.169434
 Thermal correction to Gibbs Free Energy=         0.129657
 Sum of electronic and zero-point Energies=           -422.985521
 Sum of electronic and thermal Energies=              -422.978335
 Sum of electronic and thermal Enthalpies=            -422.977391
 Sum of electronic and thermal Free Energies=         -423.017168

                     E (Thermal)             CV                S
                      KCal/Mol        Cal/Mol-Kelvin    Cal/Mol-Kelvin
 Total                  105.729             28.796             83.718
 Electronic               0.000              0.000              0.000
 Translational            0.889              2.981             40.409
 Rotational               0.889              2.981             28.385
 Vibrational            103.952             22.835             14.925
 Vibration     1          0.606              1.942              3.288
 Vibration     2          0.616              1.910              2.760
 Vibration     3          0.688              1.685              1.453
 Vibration     4          0.704              1.641              1.326
 Vibration     5          0.732              1.561              1.135
 Vibration     6          0.776              1.443              0.917
 Vibration     7          0.838              1.290              0.705
 Vibration     8          0.884              1.187              0.590
 Vibration     9          0.972              1.004              0.428

 Optimization completed.
    -- Stationary point found.
 Normal termination of Gaussian 09 at Mon Jan 27 12:05:21 2020.
