 Gaussian 09, Revision D.01,
 Gaussian 09:  ES64L-G09RevD.01 24-Apr-2013

 -----------------------------
 # b3lyp 6-31G(2df,p) opt Freq
 -----------------------------

 -----
 titel
 -----
 Symbolic Z-matrix:
 Charge =  0 Multiplicity = 1

 SCF Done:  E(RB3LYP) =  -423.163136522     A.U. after   13 cycles
 Optimization completed.
    -- Stationary point found.
 Normal termination of Gaussian 09 at Mon Jan 27 23:43:01 2020.

 ----------------------------------------------------------------------
 #N Geom=AllCheck Guess=TCheck SCRF=Check GenChk RB3LYP/6-31G(2df,p) Fr
 eq
 ----------------------------------------------------------------------

 Structure from the checkpoint file:  "/scratch/puck/g09_5e44d9dc-a976-4fc3-9be9-1e9b52c9b152/Gau-193806.chk"
 -----
 titel
 -----
 Charge =  0 Multiplicity = 1

                         Standard orientation:
 ---------------------------------------------------------------------
 Center     Atomic      Atomic             Coordinates (Angstroms)
 Number     Number       Type             X           Y           Z
 ---------------------------------------------------------------------
      1          6           0        2.891783    0.176208    0.074273
      2          6           0        1.396081    0.068306   -0.047403
      3          6           0        0.538303    1.331191   -0.169180
      4          6           0       -0.859820    0.953744    0.325692
      5          6           0       -1.661153   -0.091553   -0.381177
      6          8           0       -3.044123    0.030925   -0.213531
      7          6           0       -0.825396   -0.491619    0.820739
      8          6           0        0.562801   -1.003719    0.534184
      9          8           0        0.913439   -1.016134   -0.864346
     10          1           0        3.171583    0.777149    0.945983
     11          1           0        3.339540   -0.815875    0.172610
     12          1           0        3.321038    0.653889   -0.813648
     13          1           0        0.957943    2.114836    0.471673
     14          1           0        0.543403    1.713633   -1.196029
     15          1           0       -1.439126    1.692671    0.867603
     16          1           0       -1.326999   -0.439621   -1.354988
     17          1           0       -3.425361   -0.852078   -0.261328
     18          1           0       -1.328149   -0.795321    1.730958
     19          1           0        0.976006   -1.822968    1.117420
 ---------------------------------------------------------------------

 SCF Done:  E(RB3LYP) =  -423.163136522     A.U. after    1 cycles

 The electronic state is 1-A.
 Alpha  occ. eigenvalues --  -19.14242 -19.13955 -10.23597 -10.23175 -10.22910
 Alpha  occ. eigenvalues --  -10.18714 -10.18672 -10.18552 -10.18257  -1.06442
 Alpha  occ. eigenvalues --   -1.02432  -0.85652  -0.76224  -0.70394  -0.67869
 Alpha  occ. eigenvalues --   -0.58215  -0.56753  -0.55804  -0.52879  -0.47931
 Alpha  occ. eigenvalues --   -0.45338  -0.44574  -0.44264  -0.41292  -0.40157
 Alpha  occ. eigenvalues --   -0.38628  -0.37046  -0.35566  -0.35364  -0.32587
 Alpha  occ. eigenvalues --   -0.29394  -0.27507  -0.25623  -0.23923
 Alpha virt. eigenvalues --    0.07565   0.08476   0.09784   0.11511   0.12016
 Alpha virt. eigenvalues --    0.14057   0.15041   0.16389   0.16717   0.17491
 Alpha virt. eigenvalues --    0.18380   0.18644   0.19592   0.20954   0.21876

 Mulliken charges:
               1
     1  C   -0.479953
     2  C    0.406915
     3  C   -0.309845
     4  C   -0.070980
     5  C    0.093449
     6  O   -0.438163
     7  C   -0.127239
     8  C   -0.043522
     9  O   -0.296367
    10  H    0.120988
    11  H    0.129386
    12  H    0.127613
    13  H    0.104835
    14  H    0.114192
    15  H    0.097822
    16  H    0.109332
    17  H    0.285098
    18  H    0.086721
    19  H    0.089717
 Sum of Mulliken charges =   0.00000

 Dipole moment (field-independent basis, Debye):
    X=              0.7047    Y=             -0.2644    Z=              1.3644  Tot=              1.5582
 Quadrupole moment (field-independent basis, Debye-Ang):
   XX=            -52.1200   YY=            -51.3103   ZZ=            -53.3286
   XY=              6.1127   XZ=              1.0362   YZ=             -1.7445

  Exact polarizability:  89.544   3.800  71.604  -0.765  -2.754  62.274
 Approx polarizability: 112.432   5.369 111.071  -1.327  -2.308 101.506

                      1                      2                      3
                      A                      A                      A
 Frequencies --    150.5037               191.3017               214.5306
 Red. masses --      3.1558                 1.0775                 3.0198
 Frc consts  --      0.0421                 0.0232                 0.0819
 IR Inten    --      0.8999                 0.4844                10.3934

                      4                      5                      6
                      A                      A                      A
 Frequencies --    269.4022               300.1264               321.8137
 Red. masses --      2.2198                 1.7200                 2.3375
 Frc consts  --      0.0949                 0.0913                 0.1426
 IR Inten    --      7.3592                40.3579                46.5058

                      7                      8                      9
                      A                      A                      A
 Frequencies --    354.3630               387.3751               419.9497
 Red. masses --      2.2797                 2.8143                 3.6826
 Frc consts  --      0.1687                 0.2488                 0.3826
 IR Inten    --     11.0426                 5.9647                 5.7302

                     10                     11                     12
                      A                      A                      A
 Frequencies --    542.4843               628.6603               709.2454
 Red. masses --      4.6692                 3.6483                 4.9577
 Frc consts  --      0.8096                 0.8495                 1.4694
 IR Inten    --     12.1399                 2.8020                 4.5083

                     13                     14                     15
                      A                      A                      A
 Frequencies --    724.1708               820.7790               845.2099
 Red. masses --      5.3950                 2.5882                 2.5272
 Frc consts  --      1.6670                 1.0273                 1.0637
 IR Inten    --      1.5892                 5.7836                 3.9726

                     16                     17                     18
                      A                      A                      A
 Frequencies --    852.5872               895.6185               901.1449
 Red. masses --      2.6728                 2.1782                 3.3185
 Frc consts  --      1.1447                 1.0294                 1.5878
 IR Inten    --     12.4808                20.0048                13.9290

                     19                     20                     21
                      A                      A                      A
 Frequencies --    955.5682               977.8674              1024.9201
 Red. masses --      1.6530                 1.7462                 1.8718
 Frc consts  --      0.8893                 0.9838                 1.1585
 IR Inten    --      1.4811                 6.5665                 8.8750

                     22                     23                     24
                      A                      A                      A
 Frequencies --   1036.3315              1046.3906              1080.1142
 Red. masses --      1.5890                 1.6104                 1.5681
 Frc consts  --      1.0055                 1.0389                 1.0779
 IR Inten    --      4.0591                 4.4270                 2.6858

                     25                     26                     27
                      A                      A                      A
 Frequencies --   1101.5122              1120.1987              1147.6592
 Red. masses --      1.3210                 1.7214                 2.7266
 Frc consts  --      0.9444                 1.2727                 2.1159
 IR Inten    --      7.0525                 4.3305               106.2150

                     28                     29                     30
                      A                      A                      A
 Frequencies --   1171.5887              1222.3500              1229.6342
 Red. masses --      1.8390                 1.2796                 2.0098
 Frc consts  --      1.4873                 1.1265                 1.7904
 IR Inten    --      2.7105                 1.8549                10.1132

                     31                     32                     33
                      A                      A                      A
 Frequencies --   1270.3861              1290.0069              1296.4201
 Red. masses --      1.5531                 1.3764                 1.6130
 Frc consts  --      1.4768                 1.3495                 1.5972
 IR Inten    --     16.6457                78.0968                 1.7125

                     34                     35                     36
                      A                      A                      A
 Frequencies --   1323.1460              1341.0968              1408.5217
 Red. masses --      1.7105                 1.5899                 1.3074
 Frc consts  --      1.7644                 1.6848                 1.5282
 IR Inten    --      3.7287                13.8017                 4.1690

                     37                     38                     39
                      A                      A                      A
 Frequencies --   1437.5118              1468.9366              1477.2526
 Red. masses --      2.7816                 1.9789                 1.1636
 Frc consts  --      3.3867                 2.5158                 1.4961
 IR Inten    --      2.8501                12.1090                 2.1747

                     40                     41                     42
                      A                      A                      A
 Frequencies --   1485.8404              1496.7469              3032.6892
 Red. masses --      1.1284                 1.1162                 1.0387
 Frc consts  --      1.4677                 1.4733                 5.6287
 IR Inten    --      8.5237                 2.1263                12.1939

                     43                     44                     45
                      A                      A                      A
 Frequencies --   3040.7509              3078.0458              3095.1978
 Red. masses --      1.0570                 1.1037                 1.1002
 Frc consts  --      5.7581                 6.1611                 6.2104
 IR Inten    --     40.8635                11.5130                21.0402

                     46                     47                     48
                      A                      A                      A
 Frequencies --   3122.1621              3143.0625              3145.2224
 Red. masses --      1.1009                 1.0905                 1.0881
 Frc consts  --      6.3227                 6.3471                 6.3418
 IR Inten    --     13.9608                27.4690                 8.6763

                     49                     50                     51
                      A                      A                      A
 Frequencies --   3177.9539              3190.7772              3806.3957
 Red. masses --      1.0890                 1.0921                 1.0661
 Frc consts  --      6.4803                 6.5511                 9.1004
 IR Inten    --      7.9303                12.8497                23.6514

 - Thermochemistry -
 -------------------
 Temperature   298.150 Kelvin.  Pressure   1.00000 Atm.
 Atom     1 has atomic number  6 and mass  12.00000

 Molecular mass:   126.06808 amu.
 Principal axes and moments of inertia in atomic units:
                           1         2         3
     Eigenvalues --   424.661921544.601661699.72770
           X            0.99986   0.01687   0.00201
           Y           -0.01675   0.99874  -0.04728
           Z           -0.00281   0.04724   0.99888
 This molecule is an asymmetric top.
 Rotational symmetry number  1.
 Rotational temperatures (Kelvin)      0.20396     0.05608     0.05096
 Rotational constants (GHZ):           4.24983     1.16842     1.06178
 Zero-point vibrational energy     417326.4 (Joules/Mol)
                                   99.74340 (Kcal/Mol)
 Warning -- explicit consideration of  10 degrees of freedom as
           vibrations may cause significant error
 Vibrational temperatures:    216.54   275.24   308.66   387.61   431.81
          (Kelvin)            463.02   509.85   557.35   604.21   780.51
                              904.50  1020.44  1041.92  1180.92  1216.07
                             1226.68  1288.59  1296.54  1374.85  1406.93
                             1474.63  1491.05  1505.52  1554.04  1584.83
                             1611.71  1651.22  1685.65  1758.69  1769.17
                             1827.80  1856.03  1865.26  1903.71  1929.54
                             2026.55  2068.26  2113.47  2125.43  2137.79
                             2153.48  4363.36  4374.96  4428.62  4453.29
                             4492.09  4522.16  4525.27  4572.36  4590.81
                             5476.55

 Zero-point correction=                           0.158951 (Hartree/Particle)
 Thermal correction to Energy=                    0.167060
 Thermal correction to Enthalpy=                  0.168004
 Thermal correction to Gibbs Free Energy=         0.126882
 Sum of electronic and zero-point Energies=           -423.004185
 Sum of electronic and thermal Energies=              -422.996077
 Sum of electronic and thermal Enthalpies=            -422.995133
 Sum of electronic and thermal Free Energies=         -423.036254

                     E (Thermal)             CV                S
                      KCal/Mol        Cal/Mol-Kelvin    Cal/Mol-Kelvin
 Total                  104.831             32.331             86.548
 Electronic               0.000              0.000              0.000
 Translational            0.889              2.981             40.409
 Rotational               0.889              2.981             28.502
 Vibrational            103.054             26.370             17.638
 Vibration     1          0.618              1.902              2.666
 Vibration     2          0.634              1.852              2.215
 Vibration     3          0.644              1.819              2.005
 Vibration     4          0.674              1.729              1.600
 Vibration     5          0.693              1.673              1.416
 Vibration     6          0.707              1.632              1.301
 Vibration     7          0.730              1.566              1.147
 Vibration     8          0.756              1.497              1.010
 Vibration     9          0.783              1.427              0.892
 Vibration    10          0.898              1.156              0.560

 Normal termination of Gaussian 09 at Tue Jan 28 00:25:43 2020.
