 Gaussian 09, Revision D.01,
 Gaussian 09:  ES64L-G09RevD.01 24-Apr-2013

 -----------------------------
 # b3lyp 6-31G(2df,p) opt Freq
 -----------------------------

 -----
 titel
 -----
 Symbolic Z-matrix:
 Charge =  0 Multiplicity = 1

 SCF Done:  E(RB3LYP) =  -423.152838142     A.U. after   14 cycles
 Optimization completed.
    -- Stationary point found.
 Normal termination of Gaussian 09 at Tue Jan 28 11:38:08 2020.

 ----------------------------------------------------------------------
 #N Geom=AllCheck Guess=TCheck SCRF=Check GenChk RB3LYP/6-31G(2df,p) Fr
 eq
 ----------------------------------------------------------------------

 Structure from the checkpoint file:  "/scratch/puck/g09_83760a75-0cb3-4314-9bc5-999fdbd2105e/Gau-155352.chk"
 -----
 titel
 -----
 Charge =  0 Multiplicity = 1

                         Standard orientation:
 ---------------------------------------------------------------------
 Center     Atomic      Atomic             Coordinates (Angstroms)
 Number     Number       Type             X           Y           Z
 ---------------------------------------------------------------------
      1          8           0       -3.014501   -0.580429    0.300757
      2          6           0       -2.088403    0.457145    0.542916
      3          6           0       -0.991271    0.471645   -0.522440
      4          8           0       -0.398558   -0.856978   -0.543723
      5          6           0        1.006835   -0.708108   -0.593071
      6          6           0        1.981845   -1.010911    0.607160
      7          6           0        2.592620    0.429862    0.397618
      8          6           0        1.291538    0.729067   -0.315123
      9          6           0        0.159625    1.413307   -0.202527
     10          1           0       -2.484532   -1.375987    0.167212
     11          1           0       -2.645230    1.400654    0.520746
     12          1           0       -1.618653    0.361390    1.535503
     13          1           0       -1.460655    0.651978   -1.502266
     14          1           0        1.402188   -1.123825   -1.530127
     15          1           0        1.432234   -1.076551    1.547677
     16          1           0        2.659808   -1.860572    0.499376
     17          1           0        2.833449    1.024125    1.280208
     18          1           0        3.463206    0.400133   -0.264235
     19          1           0        0.005924    2.405862    0.202431
 ---------------------------------------------------------------------

 SCF Done:  E(RB3LYP) =  -423.152838142     A.U. after    1 cycles

 The electronic state is 1-A.
 Alpha  occ. eigenvalues --  -19.14347 -19.12529 -10.23525 -10.23352 -10.22209
 Alpha  occ. eigenvalues --  -10.20569 -10.19776 -10.19304 -10.18714  -1.04146
 Alpha  occ. eigenvalues --   -1.00566  -0.85517  -0.77719  -0.70899  -0.65941
 Alpha  occ. eigenvalues --   -0.62415  -0.58127  -0.54813  -0.50686  -0.48980
 Alpha  occ. eigenvalues --   -0.47896  -0.45463  -0.43050  -0.42159  -0.39776
 Alpha  occ. eigenvalues --   -0.37239  -0.36842  -0.36031  -0.35225  -0.32320
 Alpha  occ. eigenvalues --   -0.30612  -0.27222  -0.25955  -0.23327
 Alpha virt. eigenvalues --    0.00124   0.08684   0.10335   0.11477   0.12263
 Alpha virt. eigenvalues --    0.12817   0.13425   0.14193   0.14971   0.17216
 Alpha virt. eigenvalues --    0.17563   0.18195   0.19270   0.21076   0.22037

 Mulliken charges:
               1
     1  O   -0.424463
     2  C   -0.050005
     3  C    0.068602
     4  O   -0.309565
     5  C    0.093301
     6  C   -0.255596
     7  C   -0.311486
     8  C    0.229868
     9  C   -0.261138
    10  H    0.292122
    11  H    0.103386
    12  H    0.081926
    13  H    0.089795
    14  H    0.082875
    15  H    0.119668
    16  H    0.105442
    17  H    0.119307
    18  H    0.119480
    19  H    0.106479
 Sum of Mulliken charges =   0.00000

 Dipole moment (field-independent basis, Debye):
    X=              2.7172    Y=              0.7310    Z=              0.4051  Tot=              2.8428
 Quadrupole moment (field-independent basis, Debye-Ang):
   XX=            -57.9553   YY=            -50.8486   ZZ=            -53.0713
   XY=             -2.7868   XZ=              0.6661   YZ=              0.6950

  Exact polarizability:  99.340  -9.517  74.879   2.202   2.257  61.856
 Approx polarizability: 137.659 -17.138 115.656   1.366   4.178  93.609

                      1                      2                      3
                      A                      A                      A
 Frequencies --     71.1194               123.9947               167.5919
 Red. masses --      5.3771                 2.7854                 2.6670
 Frc consts  --      0.0160                 0.0252                 0.0441
 IR Inten    --      0.1552                 4.0916                 0.7424

                      4                      5                      6
                      A                      A                      A
 Frequencies --    267.2522               312.5762               371.8737
 Red. masses --      2.8805                 2.6930                 3.0274
 Frc consts  --      0.1212                 0.1550                 0.2467
 IR Inten    --      0.5086                 1.9728                 5.9717

                      7                      8                      9
                      A                      A                      A
 Frequencies --    408.1433               460.3469               503.8450
 Red. masses --      3.6289                 1.2043                 2.6049
 Frc consts  --      0.3562                 0.1504                 0.3896
 IR Inten    --      5.6555               105.5486                 4.4680

                     10                     11                     12
                      A                      A                      A
 Frequencies --    668.2124               685.7691               714.4403
 Red. masses --      3.5227                 2.2627                 2.9507
 Frc consts  --      0.9267                 0.6269                 0.8874
 IR Inten    --      3.3185                 5.2052                 5.1252

                     13                     14                     15
                      A                      A                      A
 Frequencies --    783.7481               814.0083               833.5616
 Red. masses --      1.7947                 2.5853                 1.8400
 Frc consts  --      0.6495                 1.0093                 0.7532
 IR Inten    --      7.1138                 7.7053                 7.6740

                     16                     17                     18
                      A                      A                      A
 Frequencies --    842.9632               916.1837               947.9267
 Red. masses --      2.0556                 3.1191                 2.2831
 Frc consts  --      0.8606                 1.5426                 1.2087
 IR Inten    --     33.9924                 4.2241                 0.6966

                     19                     20                     21
                      A                      A                      A
 Frequencies --    984.3881              1025.0283              1028.6545
 Red. masses --      2.5044                 2.0428                 2.8630
 Frc consts  --      1.4298                 1.2646                 1.7849
 IR Inten    --     19.6871                 0.9721                 6.1545

                     22                     23                     24
                      A                      A                      A
 Frequencies --   1065.5405              1084.3759              1086.7335
 Red. masses --      2.0794                 2.1036                 2.7729
 Frc consts  --      1.3910                 1.4574                 1.9294
 IR Inten    --     30.0042                40.5333                82.0723

                     25                     26                     27
                      A                      A                      A
 Frequencies --   1120.2018              1135.5327              1170.6905
 Red. masses --      3.2619                 2.3115                 1.3443
 Frc consts  --      2.4116                 1.7561                 1.0855
 IR Inten    --     76.4122                 2.3104                 1.7474

                     28                     29                     30
                      A                      A                      A
 Frequencies --   1209.7873              1220.2977              1236.2198
 Red. masses --      1.2037                 1.2043                 1.3159
 Frc consts  --      1.0380                 1.0566                 1.1848
 IR Inten    --      8.0146                 7.1469                 2.5378

                     31                     32                     33
                      A                      A                      A
 Frequencies --   1245.8859              1286.6484              1304.2413
 Red. masses --      1.4545                 1.5676                 1.8021
 Frc consts  --      1.3302                 1.5290                 1.8061
 IR Inten    --      3.7911                11.8384                 5.9279

                     34                     35                     36
                      A                      A                      A
 Frequencies --   1339.4576              1368.3519              1393.4372
 Red. masses --      1.2567                 1.3987                 1.2553
 Frc consts  --      1.3284                 1.5430                 1.4361
 IR Inten    --      0.4331                31.3582                 8.6155

                     37                     38                     39
                      A                      A                      A
 Frequencies --   1436.1581              1470.1524              1484.7371
 Red. masses --      1.2935                 1.0935                 1.1192
 Frc consts  --      1.5718                 1.3925                 1.4536
 IR Inten    --     69.5921                 2.5733                 0.7332

                     40                     41                     42
                      A                      A                      A
 Frequencies --   1498.4415              1727.6710              2968.2331
 Red. masses --      1.0930                 8.7166                 1.0712
 Frc consts  --      1.4460                15.3292                 5.5605
 IR Inten    --      1.1267                 7.5868                18.4133

                     43                     44                     45
                      A                      A                      A
 Frequencies --   2984.7957              3006.8475              3061.2521
 Red. masses --      1.0797                 1.0840                 1.0606
 Frc consts  --      5.6676                 5.7741                 5.8558
 IR Inten    --     90.6212                58.3119                32.3341

                     46                     47                     48
                      A                      A                      A
 Frequencies --   3068.7442              3070.1336              3121.9905
 Red. masses --      1.0937                 1.0585                 1.1049
 Frc consts  --      6.0682                 5.8781                 6.3449
 IR Inten    --     35.7481                46.4726                11.3896

                     49                     50                     51
                      A                      A                      A
 Frequencies --   3143.2795              3210.1874              3786.0587
 Red. masses --      1.1089                 1.0955                 1.0653
 Frc consts  --      6.4549                 6.6514                 8.9967
 IR Inten    --     28.2101                 4.7989                25.9597

 - Thermochemistry -
 -------------------
 Temperature   298.150 Kelvin.  Pressure   1.00000 Atm.
 Atom     1 has atomic number  8 and mass  15.99491

 Molecular mass:   126.06808 amu.
 Principal axes and moments of inertia in atomic units:
                           1         2         3
     Eigenvalues --   454.895781637.709131829.19220
           X            0.99985  -0.01674   0.00517
           Y            0.01666   0.99973   0.01625
           Z           -0.00544  -0.01616   0.99985
 This molecule is an asymmetric top.
 Rotational symmetry number  1.
 Warning -- assumption of classical behavior for rotation
           may cause significant error
 Rotational temperatures (Kelvin)      0.19040     0.05289     0.04735
 Rotational constants (GHZ):           3.96737     1.10199     0.98663
 Zero-point vibrational energy     420114.8 (Joules/Mol)
                                  100.40985 (Kcal/Mol)
 Warning -- explicit consideration of   9 degrees of freedom as
           vibrations may cause significant error
 Vibrational temperatures:    102.32   178.40   241.13   384.52   449.73
          (Kelvin)            535.04   587.23   662.34   724.92   961.41
                              986.67  1027.92  1127.64  1171.17  1199.31
                             1212.83  1318.18  1363.85  1416.31  1474.79
                             1480.00  1533.07  1560.17  1563.57  1611.72
                             1633.78  1684.36  1740.61  1755.73  1778.64
                             1792.55  1851.20  1876.51  1927.18  1968.75
                             2004.84  2066.31  2115.22  2136.20  2155.92
                             2485.73  4270.62  4294.45  4326.18  4404.45
                             4415.23  4417.23  4491.84  4522.47  4618.74
                             5447.29

 Zero-point correction=                           0.160013 (Hartree/Particle)
 Thermal correction to Energy=                    0.168047
 Thermal correction to Enthalpy=                  0.168992
 Thermal correction to Gibbs Free Energy=         0.127159
 Sum of electronic and zero-point Energies=           -422.992825
 Sum of electronic and thermal Energies=              -422.984791
 Sum of electronic and thermal Enthalpies=            -422.983847
 Sum of electronic and thermal Free Energies=         -423.025679

                     E (Thermal)             CV                S
                      KCal/Mol        Cal/Mol-Kelvin    Cal/Mol-Kelvin
 Total                  105.451             31.136             88.044
 Electronic               0.000              0.000              0.000
 Translational            0.889              2.981             40.409
 Rotational               0.889              2.981             28.701
 Vibrational            103.674             25.174             18.935
 Vibration     1          0.598              1.968              4.122
 Vibration     2          0.610              1.929              3.037
 Vibration     3          0.624              1.882              2.462
 Vibration     4          0.672              1.733              1.614
 Vibration     5          0.701              1.650              1.349
 Vibration     6          0.744              1.530              1.072
 Vibration     7          0.773              1.453              0.933
 Vibration     8          0.818              1.338              0.765
 Vibration     9          0.859              1.241              0.649

 Normal termination of Gaussian 09 at Tue Jan 28 12:22:11 2020.
