 Gaussian 09, Revision D.01,
 Gaussian 09:  ES64L-G09RevD.01 24-Apr-2013

 -----------------------------
 # b3lyp 6-31G(2df,p) opt Freq
 -----------------------------

 -----
 titel
 -----
 Symbolic Z-matrix:
 Charge =  0 Multiplicity = 1

 SCF Done:  E(RB3LYP) =  -423.148971018     A.U. after   15 cycles
 Optimization completed.
    -- Stationary point found.
 Normal termination of Gaussian 09 at Tue Jan 28 14:26:44 2020.

 ----------------------------------------------------------------------
 #N Geom=AllCheck Guess=TCheck SCRF=Check GenChk RB3LYP/6-31G(2df,p) Fr
 eq
 ----------------------------------------------------------------------

 Structure from the checkpoint file:  "/scratch/puck/g09_3ca3e6f3-561a-4853-994b-25c5bc475e2e/Gau-164270.chk"
 -----
 titel
 -----
 Charge =  0 Multiplicity = 1

                         Standard orientation:
 ---------------------------------------------------------------------
 Center     Atomic      Atomic             Coordinates (Angstroms)
 Number     Number       Type             X           Y           Z
 ---------------------------------------------------------------------
      1          6           0        4.606388   -0.251336   -0.000022
      2          6           0        3.148626   -0.718140    0.000040
      3          6           0        2.169609    0.446735   -0.000052
      4          8           0        0.850456   -0.071875    0.000009
      5          6           0       -0.127814    0.941253    0.000046
      6          6           0       -1.461002    0.359709    0.000010
      7          6           0       -2.584032   -0.083486   -0.000002
      8          6           0       -3.903439   -0.658870   -0.000004
      9          8           0       -4.930355   -0.019481   -0.000022
     10          1           0        5.290074   -1.104709    0.000012
     11          1           0        4.832310    0.354748   -0.884263
     12          1           0        4.832353    0.354856    0.884133
     13          1           0        2.946996   -1.341041   -0.878571
     14          1           0        2.947015   -1.340875    0.878773
     15          1           0        2.327533    1.084363    0.887072
     16          1           0        2.327506    1.084207   -0.887293
     17          1           0       -0.022543    1.595909    0.883627
     18          1           0       -0.022538    1.595994   -0.883474
     19          1           0       -3.909536   -1.767800   -0.000004
 ---------------------------------------------------------------------

 SCF Done:  E(RB3LYP) =  -423.148971019     A.U. after    1 cycles

 The electronic state is 1-A.
 Alpha  occ. eigenvalues --  -19.15718 -19.14425 -10.29024 -10.27122 -10.23888
 Alpha  occ. eigenvalues --  -10.21504 -10.19917 -10.18957 -10.18451  -1.05287
 Alpha  occ. eigenvalues --   -1.05013  -0.81066  -0.78281  -0.73318  -0.67375
 Alpha  occ. eigenvalues --   -0.64549  -0.60076  -0.52298  -0.50973  -0.50578
 Alpha  occ. eigenvalues --   -0.49674  -0.46194  -0.44645  -0.42769  -0.40820
 Alpha  occ. eigenvalues --   -0.40070  -0.37167  -0.36405  -0.34381  -0.33357
 Alpha  occ. eigenvalues --   -0.29449  -0.29310  -0.27022  -0.26742
 Alpha virt. eigenvalues --   -0.06164   0.01166   0.08085   0.09512   0.09701
 Alpha virt. eigenvalues --    0.13102   0.13186   0.13806   0.14533   0.16431
 Alpha virt. eigenvalues --    0.17461   0.18787   0.18884   0.19274   0.19806

 Mulliken charges:
               1
     1  C   -0.384441
     2  C   -0.186039
     3  C   -0.023141
     4  O   -0.245242
     5  C   -0.211477
     6  C    0.048169
     7  C    0.086878
     8  C    0.020773
     9  O   -0.229581
    10  H    0.121723
    11  H    0.118354
    12  H    0.118354
    13  H    0.112028
    14  H    0.112027
    15  H    0.088806
    16  H    0.088808
    17  H    0.130313
    18  H    0.130311
    19  H    0.103377
 Sum of Mulliken charges =   0.00000

 Dipole moment (field-independent basis, Debye):
    X=              4.0261    Y=              0.3218    Z=              0.0001  Tot=              4.0390
 Quadrupole moment (field-independent basis, Debye-Ang):
   XX=            -68.1490   YY=            -50.7614   ZZ=            -52.5474
   XY=              5.0289   XZ=             -0.0002   YZ=              0.0001

  Exact polarizability: 132.270   9.001  69.671   0.000   0.000  56.785
 Approx polarizability: 176.693  15.682 103.817   0.001   0.000  85.082

                      1                      2                      3
                      A                      A                      A
 Frequencies --     35.2819                53.5119                57.6847
 Red. masses --      3.7563                 5.3258                 2.4325
 Frc consts  --      0.0028                 0.0090                 0.0048
 IR Inten    --      0.7611                 0.9453                 7.7220

                      4                      5                      6
                      A                      A                      A
 Frequencies --     95.5725               139.0059               147.0277
 Red. masses --      2.8013                 2.5563                 5.0361
 Frc consts  --      0.0151                 0.0291                 0.0641
 IR Inten    --      1.1886                 8.5651                 4.2729

                      7                      8                      9
                      A                      A                      A
 Frequencies --    189.1651               203.4798               228.4462
 Red. masses --      2.7335                 5.4045                 1.1191
 Frc consts  --      0.0576                 0.1318                 0.0344
 IR Inten    --      4.8999                 0.9977                 0.1296

                     10                     11                     12
                      A                      A                      A
 Frequencies --    366.9577               378.0207               399.2545
 Red. masses --      4.4073                 3.7975                 4.2801
 Frc consts  --      0.3497                 0.3197                 0.4020
 IR Inten    --      0.4484                 0.2125                 0.0415

                     13                     14                     15
                      A                      A                      A
 Frequencies --    532.8008               628.0796               764.8982
 Red. masses --      5.6429                 7.3338                 1.0780
 Frc consts  --      0.9438                 1.7045                 0.3716
 IR Inten    --      2.2070                 7.6699                 1.6781

                     16                     17                     18
                      A                      A                      A
 Frequencies --    840.6201               900.4854               917.0672
 Red. masses --      4.5449                 1.1293                 1.6923
 Frc consts  --      1.8922                 0.5395                 0.8386
 IR Inten    --     60.7033                 1.1763                 4.7428

                     19                     20                     21
                      A                      A                      A
 Frequencies --   1010.3194              1012.0350              1021.6207
 Red. masses --      5.7491                 1.6846                 1.7525
 Frc consts  --      3.4575                 1.0166                 1.0777
 IR Inten    --     28.7899                 0.6759                 0.9514

                     22                     23                     24
                      A                      A                      A
 Frequencies --   1054.7423              1135.9499              1149.6686
 Red. masses --      2.6924                 6.6186                 2.7283
 Frc consts  --      1.7648                 5.0320                 2.1246
 IR Inten    --      8.1110                86.8079                45.7218

                     25                     26                     27
                      A                      A                      A
 Frequencies --   1168.3859              1190.7887              1249.9773
 Red. masses --      4.1778                 1.5811                 1.0828
 Frc consts  --      3.3603                 1.3209                 0.9968
 IR Inten    --    226.8930                 2.0813                 2.8932

                     28                     29                     30
                      A                      A                      A
 Frequencies --   1268.2109              1315.4096              1330.5333
 Red. masses --      1.2177                 1.0868                 1.3317
 Frc consts  --      1.1539                 1.1080                 1.3890
 IR Inten    --      3.2401                 0.3967                29.0447

                     31                     32                     33
                      A                      A                      A
 Frequencies --   1385.2878              1413.5530              1420.7124
 Red. masses --      1.3697                 1.2444                 1.1957
 Frc consts  --      1.5487                 1.4649                 1.4220
 IR Inten    --    113.4565                 2.5334                13.9667

                     34                     35                     36
                      A                      A                      A
 Frequencies --   1446.5514              1483.9226              1492.4699
 Red. masses --      1.4961                 1.0806                 1.0541
 Frc consts  --      1.8445                 1.4019                 1.3834
 IR Inten    --      9.9399                11.4594                 0.3842

                     37                     38                     39
                      A                      A                      A
 Frequencies --   1499.8648              1507.1782              1527.6238
 Red. masses --      1.0395                 1.0788                 1.0932
 Frc consts  --      1.3777                 1.4438                 1.5031
 IR Inten    --      5.5958                 1.3341                 4.8705

                     40                     41                     42
                      A                      A                      A
 Frequencies --   1768.6312              2333.5042              2921.4054
 Red. masses --     10.4963                11.9407                 1.0817
 Frc consts  --     19.3446                38.3086                 5.4395
 IR Inten    --    257.4655               107.0878                85.8997

                     43                     44                     45
                      A                      A                      A
 Frequencies --   2942.2798              2951.7505              2961.6714
 Red. masses --      1.0539                 1.0541                 1.1011
 Frc consts  --      5.3756                 5.4111                 5.6904
 IR Inten    --     14.6022                61.9874                41.3559

                     46                     47                     48
                      A                      A                      A
 Frequencies --   2975.8546              3032.9773              3042.9450
 Red. masses --      1.1055                 1.0374                 1.0581
 Frc consts  --      5.7679                 5.6225                 5.7725
 IR Inten    --     34.1876                22.4273                26.9730

                     49                     50                     51
                      A                      A                      A
 Frequencies --   3075.6467              3102.1861              3111.5942
 Red. masses --      1.1024                 1.1033                 1.1002
 Frc consts  --      6.1444                 6.2555                 6.2759
 IR Inten    --      2.5523                55.1856                28.5205

 - Thermochemistry -
 -------------------
 Temperature   298.150 Kelvin.  Pressure   1.00000 Atm.
 Atom     1 has atomic number  6 and mass  12.00000

 Molecular mass:   126.06808 amu.
 Principal axes and moments of inertia in atomic units:
                           1         2         3
     Eigenvalues --   174.827344431.743214561.63153
           X            1.00000   0.00138   0.00000
           Y           -0.00138   1.00000   0.00000
           Z            0.00000   0.00000   1.00000
 This molecule is an asymmetric top.
 Rotational symmetry number  1.
 Rotational temperatures (Kelvin)      0.49542     0.01954     0.01899
 Rotational constants (GHZ):          10.32299     0.40723     0.39564
 Zero-point vibrational energy     407822.6 (Joules/Mol)
                                   97.47194 (Kcal/Mol)
 Warning -- explicit consideration of  13 degrees of freedom as
           vibrations may cause significant error
 Vibrational temperatures:     50.76    76.99    83.00   137.51   200.00
          (Kelvin)            211.54   272.17   292.76   328.68   527.97
                              543.89   574.44   766.58   903.67  1100.52
                             1209.46  1295.60  1319.45  1453.62  1456.09
                             1469.88  1517.54  1634.38  1654.11  1681.04
                             1713.28  1798.44  1824.67  1892.58  1914.34
                             1993.12  2033.79  2044.09  2081.26  2135.03
                             2147.33  2157.97  2168.49  2197.91  2544.66
                             3357.39  4203.25  4233.28  4246.91  4261.18
                             4281.59  4363.77  4378.11  4425.16  4463.35
                             4476.88

 Zero-point correction=                           0.155331 (Hartree/Particle)
 Thermal correction to Energy=                    0.166287
 Thermal correction to Enthalpy=                  0.167231
 Thermal correction to Gibbs Free Energy=         0.117041
 Sum of electronic and zero-point Energies=           -422.993640
 Sum of electronic and thermal Energies=              -422.982684
 Sum of electronic and thermal Enthalpies=            -422.981740
 Sum of electronic and thermal Free Energies=         -423.031930

                     E (Thermal)             CV                S
                      KCal/Mol        Cal/Mol-Kelvin    Cal/Mol-Kelvin
 Total                  104.346             35.861            105.634
 Electronic               0.000              0.000              0.000
 Translational            0.889              2.981             40.409
 Rotational               0.889              2.981             29.648
 Vibrational            102.569             29.899             35.578
 Vibration     1          0.594              1.982              5.508
 Vibration     2          0.596              1.976              4.683
 Vibration     3          0.596              1.974              4.535
 Vibration     4          0.603              1.952              3.543
 Vibration     5          0.615              1.914              2.818
 Vibration     6          0.617              1.906              2.710
 Vibration     7          0.633              1.855              2.236
 Vibration     8          0.639              1.835              2.101
 Vibration     9          0.651              1.798              1.891
 Vibration    10          0.740              1.540              1.092
 Vibration    11          0.748              1.517              1.047
 Vibration    12          0.765              1.472              0.965
 Vibration    13          0.888              1.177              0.581

 Optimization completed.
    -- Stationary point found.
 Normal termination of Gaussian 09 at Tue Jan 28 14:56:35 2020.
