 Gaussian 09, Revision D.01,
 Gaussian 09:  ES64L-G09RevD.01 24-Apr-2013

 -----------------------------
 # b3lyp 6-31G(2df,p) opt Freq
 -----------------------------

 -----
 titel
 -----
 Symbolic Z-matrix:
 Charge =  0 Multiplicity = 1

 SCF Done:  E(RB3LYP) =  -423.170356901     A.U. after   14 cycles
 Optimization completed.
    -- Stationary point found.
 Normal termination of Gaussian 09 at Mon Jan 27 16:17:31 2020.

 ----------------------------------------------------------------------
 #N Geom=AllCheck Guess=TCheck SCRF=Check GenChk RB3LYP/6-31G(2df,p) Fr
 eq
 ----------------------------------------------------------------------

 Structure from the checkpoint file:  "/scratch/puck/g09_bbca99d8-c8ff-4576-9ddf-60c92d399d37/Gau-165223.chk"
 -----
 titel
 -----
 Charge =  0 Multiplicity = 1

                         Standard orientation:
 ---------------------------------------------------------------------
 Center     Atomic      Atomic             Coordinates (Angstroms)
 Number     Number       Type             X           Y           Z
 ---------------------------------------------------------------------
      1          6           0       -2.500385    0.747198    0.141330
      2          6           0       -1.289844   -0.155428   -0.053843
      3          8           0       -1.677198   -1.415942   -0.579935
      4          6           0       -0.366797   -0.440366    1.172920
      5          6           0        0.845291    0.077413    0.390947
      6          6           0        0.623376    1.498848   -0.069018
      7          6           0       -0.076881    0.422950   -0.817532
      8          6           0        2.161315   -0.568225    0.273910
      9          8           0        3.074806   -0.150174   -0.401486
     10          1           0       -2.991761    0.947338   -0.818985
     11          1           0       -3.225487    0.261239    0.801246
     12          1           0       -2.225517    1.710972    0.578482
     13          1           0       -2.145396   -1.260291   -1.408071
     14          1           0       -0.601672    0.091346    2.100051
     15          1           0       -0.332414   -1.514545    1.364957
     16          1           0        0.077620    2.176839    0.581975
     17          1           0        1.480200    1.932842   -0.573228
     18          1           0        0.146469    0.205901   -1.856201
     19          1           0        2.260631   -1.517063    0.848857
 ---------------------------------------------------------------------

 SCF Done:  E(RB3LYP) =  -423.170356901     A.U. after    1 cycles

 The electronic state is 1-A.
 Alpha  occ. eigenvalues --  -19.14517 -19.12672 -10.26324 -10.25330 -10.20883
 Alpha  occ. eigenvalues --  -10.20694 -10.20199 -10.19283 -10.18538  -1.03449
 Alpha  occ. eigenvalues --   -1.03097  -0.90510  -0.75840  -0.71756  -0.67098
 Alpha  occ. eigenvalues --   -0.62671  -0.56866  -0.53538  -0.52774  -0.48312
 Alpha  occ. eigenvalues --   -0.46767  -0.44312  -0.42879  -0.42158  -0.40960
 Alpha  occ. eigenvalues --   -0.39722  -0.38176  -0.36982  -0.35796  -0.32597
 Alpha  occ. eigenvalues --   -0.31815  -0.27497  -0.26550  -0.24432
 Alpha virt. eigenvalues --   -0.02398   0.06587   0.09756   0.10686   0.11467
 Alpha virt. eigenvalues --    0.12988   0.13750   0.14452   0.15033   0.15673
 Alpha virt. eigenvalues --    0.17448   0.17739   0.19470   0.21364   0.22374

 Mulliken charges:
               1
     1  C   -0.450600
     2  C    0.420429
     3  O   -0.474571
     4  C   -0.353163
     5  C    0.263825
     6  C   -0.337529
     7  C   -0.133791
     8  C    0.046358
     9  O   -0.276087
    10  H    0.109584
    11  H    0.129819
    12  H    0.120392
    13  H    0.275741
    14  H    0.097046
    15  H    0.127406
    16  H    0.113640
    17  H    0.146434
    18  H    0.105335
    19  H    0.069732
 Sum of Mulliken charges =   0.00000

 Dipole moment (field-independent basis, Debye):
    X=             -3.1334    Y=              0.8805    Z=              0.2098  Tot=              3.2615
 Quadrupole moment (field-independent basis, Debye-Ang):
   XX=            -61.8129   YY=            -53.9767   ZZ=            -49.5218
   XY=             -1.5756   XZ=              4.9738   YZ=              0.3187

  Exact polarizability:  92.787  -2.782  72.416   0.145  -3.531  67.929
 Approx polarizability: 128.465  -1.213 109.600  -0.248  -6.229 107.933

                      1                      2                      3
                      A                      A                      A
 Frequencies --     89.4492               141.2618               177.6702
 Red. masses --      5.6779                 3.0299                 3.0837
 Frc consts  --      0.0268                 0.0356                 0.0574
 IR Inten    --      3.2434                 5.5472                 5.6166

                      4                      5                      6
                      A                      A                      A
 Frequencies --    244.7600               265.3164               275.1814
 Red. masses --      1.0482                 2.3887                 2.4750
 Frc consts  --      0.0370                 0.0991                 0.1104
 IR Inten    --      0.7273                10.9208                 8.5032

                      7                      8                      9
                      A                      A                      A
 Frequencies --    310.8596               371.0147               405.8446
 Red. masses --      1.2573                 3.0612                 2.0469
 Frc consts  --      0.0716                 0.2483                 0.1986
 IR Inten    --     70.6655                11.1211                 1.8531

                     10                     11                     12
                      A                      A                      A
 Frequencies --    421.1117               492.9160               519.1644
 Red. masses --      3.3885                 2.7213                 3.5007
 Frc consts  --      0.3540                 0.3896                 0.5559
 IR Inten    --     16.1137                 4.5110                11.0783

                     13                     14                     15
                      A                      A                      A
 Frequencies --    657.1118               713.0249               780.1002
 Red. masses --      3.7138                 2.9731                 4.5757
 Frc consts  --      0.9448                 0.8906                 1.6406
 IR Inten    --      2.7352                 7.7383                 5.9760

                     16                     17                     18
                      A                      A                      A
 Frequencies --    818.0870               871.7927               904.5265
 Red. masses --      2.9623                 1.9187                 1.7615
 Frc consts  --      1.1681                 0.8592                 0.8491
 IR Inten    --      0.0910                 2.1901                11.7620

                     19                     20                     21
                      A                      A                      A
 Frequencies --    952.4045               961.8551               974.3669
 Red. masses --      1.7217                 1.5910                 1.7327
 Frc consts  --      0.9201                 0.8672                 0.9692
 IR Inten    --     24.6222                37.3719                 7.0584

                     22                     23                     24
                      A                      A                      A
 Frequencies --   1012.3884              1035.8254              1057.2639
 Red. masses --      1.4503                 1.8329                 1.5052
 Frc consts  --      0.8758                 1.1587                 0.9913
 IR Inten    --      9.0434                70.3479                 2.3192

                     25                     26                     27
                      A                      A                      A
 Frequencies --   1084.2519              1108.6548              1125.9505
 Red. masses --      1.3421                 1.6368                 1.8046
 Frc consts  --      0.9296                 1.1853                 1.3479
 IR Inten    --      3.5852                40.5088                 7.4245

                     28                     29                     30
                      A                      A                      A
 Frequencies --   1172.5812              1218.7435              1244.6244
 Red. masses --      2.0253                 1.7073                 2.9748
 Frc consts  --      1.6407                 1.4941                 2.7151
 IR Inten    --     25.9544                17.3529                38.6194

                     31                     32                     33
                      A                      A                      A
 Frequencies --   1278.7714              1287.7514              1368.0386
 Red. masses --      2.0214                 2.1790                 1.8353
 Frc consts  --      1.9476                 2.1290                 2.0238
 IR Inten    --     19.2228                43.4500                59.4768

                     34                     35                     36
                      A                      A                      A
 Frequencies --   1385.5288              1411.5732              1432.6338
 Red. masses --      2.1308                 1.3174                 1.4023
 Frc consts  --      2.4100                 1.5466                 1.6957
 IR Inten    --      3.3977                15.5932                14.7643

                     37                     38                     39
                      A                      A                      A
 Frequencies --   1468.5379              1481.4397              1492.0200
 Red. masses --      1.1491                 1.1836                 1.0675
 Frc consts  --      1.4601                 1.5305                 1.4001
 IR Inten    --      2.9290                14.2326                 1.6967

                     40                     41                     42
                      A                      A                      A
 Frequencies --   1494.6294              1794.1267              2870.8385
 Red. masses --      1.0910                10.0916                 1.0821
 Frc consts  --      1.4360                19.1389                 5.2544
 IR Inten    --      7.8064               211.3723               126.2311

                     43                     44                     45
                      A                      A                      A
 Frequencies --   3027.5119              3052.5884              3095.7481
 Red. masses --      1.0391                 1.0618                 1.0962
 Frc consts  --      5.6117                 5.8294                 6.1899
 IR Inten    --     21.5771                31.4456                19.2326

                     46                     47                     48
                      A                      A                      A
 Frequencies --   3115.4572              3119.8333              3123.6798
 Red. masses --      1.0658                 1.0936                 1.1025
 Frc consts  --      6.0950                 6.2713                 6.3382
 IR Inten    --      8.2091                16.9568                19.1914

                     49                     50                     51
                      A                      A                      A
 Frequencies --   3180.3421              3216.4614              3795.3439
 Red. masses --      1.0928                 1.1128                 1.0658
 Frc consts  --      6.5125                 6.7830                 9.0452
 IR Inten    --      7.4664                 2.5911                14.9693

 - Thermochemistry -
 -------------------
 Temperature   298.150 Kelvin.  Pressure   1.00000 Atm.
 Atom     1 has atomic number  6 and mass  12.00000

 Molecular mass:   126.06808 amu.
 Principal axes and moments of inertia in atomic units:
                           1         2         3
     Eigenvalues --   513.448401604.001781757.82236
           X            0.99987  -0.01577   0.00216
           Y            0.01582   0.99952  -0.02660
           Z           -0.00174   0.02663   0.99964
 This molecule is an asymmetric top.
 Rotational symmetry number  1.
 Warning -- assumption of classical behavior for rotation
           may cause significant error
 Rotational temperatures (Kelvin)      0.16869     0.05400     0.04927
 Rotational constants (GHZ):           3.51494     1.12515     1.02669
 Zero-point vibrational energy     412119.3 (Joules/Mol)
                                   98.49887 (Kcal/Mol)
 Warning -- explicit consideration of  12 degrees of freedom as
           vibrations may cause significant error
 Vibrational temperatures:    128.70   203.24   255.63   352.15   381.73
          (Kelvin)            395.92   447.26   533.81   583.92   605.89
                              709.20   746.96   945.44  1025.88  1122.39
                             1177.04  1254.31  1301.41  1370.30  1383.89
                             1401.89  1456.60  1490.32  1521.17  1559.99
                             1595.10  1619.99  1687.08  1753.50  1790.73
                             1839.86  1852.78  1968.30  1993.46  2030.94
                             2061.24  2112.90  2131.46  2146.68  2150.44
                             2581.34  4130.49  4355.91  4391.99  4454.09
                             4482.44  4488.74  4494.27  4575.80  4627.76
                             5460.65

 Zero-point correction=                           0.156968 (Hartree/Particle)
 Thermal correction to Energy=                    0.165932
 Thermal correction to Enthalpy=                  0.166876
 Thermal correction to Gibbs Free Energy=         0.123682
 Sum of electronic and zero-point Energies=           -423.013389
 Sum of electronic and thermal Energies=              -423.004425
 Sum of electronic and thermal Enthalpies=            -423.003481
 Sum of electronic and thermal Free Energies=         -423.046675

                     E (Thermal)             CV                S
                      KCal/Mol        Cal/Mol-Kelvin    Cal/Mol-Kelvin
 Total                  104.124             34.307             90.910
 Electronic               0.000              0.000              0.000
 Translational            0.889              2.981             40.409
 Rotational               0.889              2.981             28.761
 Vibrational            102.346             28.346             21.740
 Vibration     1          0.602              1.957              3.672
 Vibration     2          0.615              1.912              2.787
 Vibration     3          0.628              1.870              2.353
 Vibration     4          0.660              1.771              1.768
 Vibration     5          0.671              1.737              1.627
 Vibration     6          0.677              1.719              1.563
 Vibration     7          0.700              1.653              1.358
 Vibration     8          0.743              1.532              1.076
 Vibration     9          0.771              1.458              0.941
 Vibration    10          0.784              1.424              0.888
 Vibration    11          0.849              1.266              0.676
 Vibration    12          0.874              1.208              0.612

 Normal termination of Gaussian 09 at Mon Jan 27 17:00:00 2020.
