 Gaussian 09, Revision D.01,
 Gaussian 09:  ES64L-G09RevD.01 24-Apr-2013

 -----------------------------
 # b3lyp 6-31G(2df,p) opt Freq
 -----------------------------

 -----
 titel
 -----
 Symbolic Z-matrix:
 Charge =  0 Multiplicity = 1

 SCF Done:  E(RB3LYP) =  -423.220797729     A.U. after   14 cycles
 Optimization completed.
    -- Stationary point found.
 Normal termination of Gaussian 09 at Mon Jan 27 10:18:26 2020.

 ----------------------------------------------------------------------
 #N Geom=AllCheck Guess=TCheck SCRF=Check GenChk RB3LYP/6-31G(2df,p) Fr
 eq
 ----------------------------------------------------------------------

 Structure from the checkpoint file:  "/scratch/puck/g09_2ceffcd7-d440-4de8-99d9-99624cfcf801/Gau-91678.chk"
 -----
 titel
 -----
 Charge =  0 Multiplicity = 1

                         Standard orientation:
 ---------------------------------------------------------------------
 Center     Atomic      Atomic             Coordinates (Angstroms)
 Number     Number       Type             X           Y           Z
 ---------------------------------------------------------------------
      1          6           0        2.888609    0.496200    0.172856
      2          6           0        1.538736   -0.138091    0.049168
      3          6           0        1.242447   -1.464378    0.076794
      4          8           0       -0.093979   -1.669619   -0.059205
      5          6           0       -0.673798   -0.437972   -0.187727
      6          6           0       -2.160101   -0.416958   -0.349520
      7          8           0       -2.807018    0.510080    0.517456
      8          6           0        0.276488    0.540252   -0.124613
      9          6           0        0.062613    2.019680   -0.228434
     10          1           0        2.938142    1.175630    1.032077
     11          1           0        3.670035   -0.257962    0.300697
     12          1           0        3.139265    1.088651   -0.714898
     13          1           0        1.846364   -2.351015    0.185542
     14          1           0       -2.446344   -0.101620   -1.359412
     15          1           0       -2.533726   -1.442066   -0.210527
     16          1           0       -2.487211    0.336684    1.409422
     17          1           0        0.563560    2.552732    0.588186
     18          1           0        0.469303    2.422333   -1.164404
     19          1           0       -1.001375    2.260547   -0.183842
 ---------------------------------------------------------------------

 SCF Done:  E(RB3LYP) =  -423.220797729     A.U. after    1 cycles

 The electronic state is 1-A.
 Alpha  occ. eigenvalues --  -19.19496 -19.13862 -10.23473 -10.21981 -10.21832
 Alpha  occ. eigenvalues --  -10.18520 -10.18077 -10.17943 -10.17857  -1.09785
 Alpha  occ. eigenvalues --   -1.01777  -0.81353  -0.76847  -0.71722  -0.68791
 Alpha  occ. eigenvalues --   -0.66084  -0.56026  -0.55013  -0.50596  -0.47381
 Alpha  occ. eigenvalues --   -0.45949  -0.44205  -0.42532  -0.42114  -0.40407
 Alpha  occ. eigenvalues --   -0.40040  -0.39297  -0.37561  -0.36605  -0.34285
 Alpha  occ. eigenvalues --   -0.33594  -0.27592  -0.25150  -0.21108
 Alpha virt. eigenvalues --    0.01742   0.06586   0.08886   0.10366   0.13054
 Alpha virt. eigenvalues --    0.13596   0.14688   0.14879   0.15653   0.16504
 Alpha virt. eigenvalues --    0.17748   0.19178   0.21661   0.22530   0.23323

 Mulliken charges:
               1
     1  C   -0.502207
     2  C    0.188483
     3  C   -0.132245
     4  O   -0.183434
     5  C    0.224523
     6  C   -0.171128
     7  O   -0.406620
     8  C    0.077251
     9  C   -0.518006
    10  H    0.128277
    11  H    0.124530
    12  H    0.129283
    13  H    0.129787
    14  H    0.123635
    15  H    0.110465
    16  H    0.282027
    17  H    0.122604
    18  H    0.125475
    19  H    0.147301
 Sum of Mulliken charges =   0.00000

 Dipole moment (field-independent basis, Debye):
    X=              1.4481    Y=             -0.0596    Z=              0.4872  Tot=              1.5290
 Quadrupole moment (field-independent basis, Debye-Ang):
   XX=            -54.3781   YY=            -52.9639   ZZ=            -51.2425
   XY=              1.6774   XZ=             -0.2049   YZ=             -0.4056

  Exact polarizability:  98.660   1.308  85.491   3.136  -0.809  54.457
 Approx polarizability: 136.127   3.682 135.856   4.646  -1.200  84.473

                      1                      2                      3
                      A                      A                      A
 Frequencies --     59.0134               119.6861               139.3899
 Red. masses --      2.9999                 3.1345                 1.0657
 Frc consts  --      0.0062                 0.0265                 0.0122
 IR Inten    --      1.9583                 0.2374                 0.0068

                      4                      5                      6
                      A                      A                      A
 Frequencies --    152.0670               205.5938               231.5569
 Red. masses --      1.0393                 3.0656                 2.4828
 Frc consts  --      0.0142                 0.0763                 0.0784
 IR Inten    --      0.7877                 1.5368                 0.5807

                      7                      8                      9
                      A                      A                      A
 Frequencies --    262.9837               298.8313               356.3995
 Red. masses --      2.5805                 2.7346                 1.3773
 Frc consts  --      0.1052                 0.1439                 0.1031
 IR Inten    --      3.3767                20.1356               110.0109

                     10                     11                     12
                      A                      A                      A
 Frequencies --    404.6772               455.9334               589.5466
 Red. masses --      3.9814                 3.2765                 4.3528
 Frc consts  --      0.3842                 0.4013                 0.8914
 IR Inten    --     10.6869                 6.6938                 6.2998

                     13                     14                     15
                      A                      A                      A
 Frequencies --    631.1841               681.5790               691.0546
 Red. masses --      3.3832                 4.6976                 4.0730
 Frc consts  --      0.7941                 1.2858                 1.1460
 IR Inten    --      4.7984                 1.2260                 1.6037

                     16                     17                     18
                      A                      A                      A
 Frequencies --    742.5371               771.2836               929.6603
 Red. masses --      1.3962                 4.3854                 2.3732
 Frc consts  --      0.4536                 1.5370                 1.2085
 IR Inten    --     15.3519                30.3534                 9.4007

                     19                     20                     21
                      A                      A                      A
 Frequencies --    967.4103              1011.0417              1049.1006
 Red. masses --      1.5890                 1.4972                 5.6562
 Frc consts  --      0.8762                 0.9017                 3.6678
 IR Inten    --     16.8711                 9.4701                86.7668

                     22                     23                     24
                      A                      A                      A
 Frequencies --   1054.1131              1075.4456              1124.5970
 Red. masses --      1.4698                 1.5400                 2.0942
 Frc consts  --      0.9622                 1.0494                 1.5605
 IR Inten    --      9.9314                 0.4047                10.5166

                     25                     26                     27
                      A                      A                      A
 Frequencies --   1146.4290              1174.5725              1214.5015
 Red. masses --      2.4657                 3.3247                 1.8129
 Frc consts  --      1.9094                 2.7025                 1.5755
 IR Inten    --      8.3630                18.5603                 6.8061

                     28                     29                     30
                      A                      A                      A
 Frequencies --   1258.3702              1300.4498              1364.8926
 Red. masses --      2.2612                 1.8326                 1.4934
 Frc consts  --      2.1097                 1.8260                 1.6392
 IR Inten    --      2.8797                 6.3977                 7.0769

                     31                     32                     33
                      A                      A                      A
 Frequencies --   1409.0125              1415.1117              1426.0445
 Red. masses --      1.3987                 1.3383                 1.4359
 Frc consts  --      1.6361                 1.5790                 1.7204
 IR Inten    --     32.7958                 4.2890                 7.7947

                     34                     35                     36
                      A                      A                      A
 Frequencies --   1435.8745              1481.2521              1486.7904
 Red. masses --      2.0376                 1.0465                 1.0659
 Frc consts  --      2.4752                 1.3529                 1.3882
 IR Inten    --     37.0052                 2.7632                10.1997

                     37                     38                     39
                      A                      A                      A
 Frequencies --   1496.4736              1501.2628              1503.9154
 Red. masses --      1.0694                 1.1010                 1.0850
 Frc consts  --      1.4110                 1.4621                 1.4458
 IR Inten    --      7.7722                 0.9281                 1.2820

                     40                     41                     42
                      A                      A                      A
 Frequencies --   1592.0084              1671.5382              3002.3299
 Red. masses --      6.0824                 7.1291                 1.0654
 Frc consts  --      9.0827                11.7359                 5.6582
 IR Inten    --      4.4480                 0.2184                51.9000

                     43                     44                     45
                      A                      A                      A
 Frequencies --   3023.0384              3025.4732              3057.3295
 Red. masses --      1.0400                 1.0377                 1.0964
 Frc consts  --      5.5997                 5.5962                 6.0384
 IR Inten    --     18.8698                43.3265                23.3772

                     46                     47                     48
                      A                      A                      A
 Frequencies --   3069.1227              3073.1890              3109.3742
 Red. masses --      1.0986                 1.0996                 1.0992
 Frc consts  --      6.0970                 6.1185                 6.2613
 IR Inten    --     21.0185                17.1812                18.6234

                     49                     50                     51
                      A                      A                      A
 Frequencies --   3130.9484              3267.0594              3807.5316
 Red. masses --      1.0975                 1.0977                 1.0661
 Frc consts  --      6.3385                 6.9029                 9.1060
 IR Inten    --      4.8184                 1.1186                16.0829

 - Thermochemistry -
 -------------------
 Temperature   298.150 Kelvin.  Pressure   1.00000 Atm.
 Atom     1 has atomic number  6 and mass  12.00000

 Molecular mass:   126.06808 amu.
 Principal axes and moments of inertia in atomic units:
                           1         2         3
     Eigenvalues --   632.331551451.346101977.62214
           X            0.99973   0.02230   0.00663
           Y           -0.02226   0.99974  -0.00583
           Z           -0.00676   0.00568   0.99996
 This molecule is an asymmetric top.
 Rotational symmetry number  1.
 Warning -- assumption of classical behavior for rotation
           may cause significant error
 Rotational temperatures (Kelvin)      0.13698     0.05968     0.04380
 Rotational constants (GHZ):           2.85411     1.24349     0.91258
 Zero-point vibrational energy     415394.8 (Joules/Mol)
                                   99.28173 (Kcal/Mol)
 Warning -- explicit consideration of  12 degrees of freedom as
           vibrations may cause significant error
 Vibrational temperatures:     84.91   172.20   200.55   218.79   295.80
          (Kelvin)            333.16   378.37   429.95   512.78   582.24
                              655.99   848.23   908.13   980.64   994.27
                             1068.34  1109.70  1337.57  1391.89  1454.66
                             1509.42  1516.63  1547.32  1618.04  1649.45
                             1689.95  1747.39  1810.51  1871.05  1963.77
                             2027.25  2036.03  2051.76  2065.90  2131.19
                             2139.16  2153.09  2159.98  2163.80  2290.54
                             2404.97  4319.68  4349.47  4352.98  4398.81
                             4415.78  4421.63  4473.69  4504.73  4700.56
                             5478.18

 Zero-point correction=                           0.158216 (Hartree/Particle)
 Thermal correction to Energy=                    0.167848
 Thermal correction to Enthalpy=                  0.168793
 Thermal correction to Gibbs Free Energy=         0.123521
 Sum of electronic and zero-point Energies=           -423.062582
 Sum of electronic and thermal Energies=              -423.052949
 Sum of electronic and thermal Enthalpies=            -423.052005
 Sum of electronic and thermal Free Energies=         -423.097277

                     E (Thermal)             CV                S
                      KCal/Mol        Cal/Mol-Kelvin    Cal/Mol-Kelvin
 Total                  105.326             34.694             95.282
 Electronic               0.000              0.000              0.000
 Translational            0.889              2.981             40.409
 Rotational               0.889              2.981             28.986
 Vibrational            103.549             28.732             25.888
 Vibration     1          0.596              1.974              4.490
 Vibration     2          0.609              1.933              3.105
 Vibration     3          0.615              1.914              2.812
 Vibration     4          0.619              1.900              2.646
 Vibration     5          0.640              1.832              2.082
 Vibration     6          0.653              1.793              1.867
 Vibration     7          0.670              1.741              1.642
 Vibration     8          0.692              1.676              1.423
 Vibration     9          0.732              1.562              1.138
 Vibration    10          0.770              1.460              0.946
 Vibration    11          0.814              1.348              0.778
 Vibration    12          0.947              1.054              0.468

 Normal termination of Gaussian 09 at Mon Jan 27 10:58:27 2020.
