 Gaussian 09, Revision D.01,
 Gaussian 09:  ES64L-G09RevD.01 24-Apr-2013

 -----------------------------
 # b3lyp 6-31G(2df,p) opt Freq
 -----------------------------

 -----
 titel
 -----
 Symbolic Z-matrix:
 Charge =  0 Multiplicity = 1

 SCF Done:  E(RB3LYP) =  -423.148927358     A.U. after   14 cycles
 Optimization completed.
    -- Stationary point found.
 Normal termination of Gaussian 09 at Mon Jan 27 16:09:31 2020.

 ----------------------------------------------------------------------
 #N Geom=AllCheck Guess=TCheck SCRF=Check GenChk RB3LYP/6-31G(2df,p) Fr
 eq
 ----------------------------------------------------------------------

 Structure from the checkpoint file:  "/scratch/puck/g09_612b06e5-e156-4d7f-9151-4027c89a8f96/Gau-10730.chk"
 -----
 titel
 -----
 Charge =  0 Multiplicity = 1

                         Standard orientation:
 ---------------------------------------------------------------------
 Center     Atomic      Atomic             Coordinates (Angstroms)
 Number     Number       Type             X           Y           Z
 ---------------------------------------------------------------------
      1          6           0        1.819929    1.274164   -0.725679
      2          6           0        1.446589   -0.062910   -0.121723
      3          6           0        2.548546   -1.109611   -0.145801
      4          6           0        0.539264   -0.165076    1.068928
      5          8           0       -0.436009    0.884765    1.092940
      6          6           0       -1.024656    0.398899   -0.141545
      7          6           0       -2.396412   -0.194974    0.118460
      8          8           0       -3.219926   -0.365247   -0.741247
      9          6           0        0.057106   -0.678285   -0.276254
     10          1           0        1.960033    1.192840   -1.809206
     11          1           0        1.059159    2.031372   -0.527419
     12          1           0        2.760970    1.633791   -0.294781
     13          1           0        3.440424   -0.743772    0.374256
     14          1           0        2.234938   -2.040475    0.338395
     15          1           0        2.835220   -1.351106   -1.175182
     16          1           0        0.775089   -0.651233    2.009381
     17          1           0       -1.088659    1.162843   -0.923730
     18          1           0       -2.565065   -0.480925    1.180435
     19          1           0       -0.106822   -1.682714   -0.644005
 ---------------------------------------------------------------------

 SCF Done:  E(RB3LYP) =  -423.148927358     A.U. after    1 cycles

 The electronic state is 1-A.
 Alpha  occ. eigenvalues --  -19.15578 -19.14747 -10.27463 -10.25112 -10.24852
 Alpha  occ. eigenvalues --  -10.21336 -10.20864 -10.19070 -10.18110  -1.07008
 Alpha  occ. eigenvalues --   -1.05189  -0.85999  -0.74837  -0.72401  -0.69968
 Alpha  occ. eigenvalues --   -0.60919  -0.56546  -0.55547  -0.51730  -0.48493
 Alpha  occ. eigenvalues --   -0.47434  -0.45153  -0.44065  -0.43046  -0.40236
 Alpha  occ. eigenvalues --   -0.39668  -0.39317  -0.38540  -0.35637  -0.34324
 Alpha  occ. eigenvalues --   -0.32679  -0.28622  -0.26769  -0.24001
 Alpha virt. eigenvalues --   -0.03368   0.07080   0.08907   0.10767   0.11305
 Alpha virt. eigenvalues --    0.13057   0.13154   0.13801   0.14911   0.16623
 Alpha virt. eigenvalues --    0.17762   0.18120   0.18419   0.20493   0.21037

 Mulliken charges:
               1
     1  C   -0.466251
     2  C    0.288170
     3  C   -0.457252
     4  C    0.051277
     5  O   -0.296911
     6  C   -0.002490
     7  C    0.146814
     8  O   -0.243401
     9  C   -0.175232
    10  H    0.118331
    11  H    0.139424
    12  H    0.117738
    13  H    0.123711
    14  H    0.117634
    15  H    0.125793
    16  H    0.105581
    17  H    0.107497
    18  H    0.091383
    19  H    0.108184
 Sum of Mulliken charges =   0.00000

 Dipole moment (field-independent basis, Debye):
    X=              2.7843    Y=             -0.8525    Z=              0.4708  Tot=              2.9497
 Quadrupole moment (field-independent basis, Debye-Ang):
   XX=            -60.2068   YY=            -52.9302   ZZ=            -54.1282
   XY=             -1.6816   XZ=             -3.3401   YZ=             -2.7285

  Exact polarizability:  95.270   0.692  65.815   1.506  -2.427  69.661
 Approx polarizability: 124.654   1.553  97.623   8.815   1.895 113.866

                      1                      2                      3
                      A                      A                      A
 Frequencies --     53.3120               114.6136               187.0670
 Red. masses --      4.2401                 3.6114                 1.0905
 Frc consts  --      0.0071                 0.0280                 0.0225
 IR Inten    --      8.4399                 0.8593                 0.2101

                      4                      5                      6
                      A                      A                      A
 Frequencies --    190.7412               223.1093               251.2013
 Red. masses --      2.2979                 1.6454                 1.5481
 Frc consts  --      0.0493                 0.0483                 0.0576
 IR Inten    --      1.4349                 0.4933                 2.0030

                      7                      8                      9
                      A                      A                      A
 Frequencies --    284.7143               348.1083               374.0302
 Red. masses --      3.3279                 2.3821                 2.8973
 Frc consts  --      0.1589                 0.1701                 0.2388
 IR Inten    --      0.3363                 1.2190                12.5629

                     10                     11                     12
                      A                      A                      A
 Frequencies --    459.7280               499.6830               556.0318
 Red. masses --      4.4484                 3.0224                 5.0886
 Frc consts  --      0.5539                 0.4446                 0.9269
 IR Inten    --      0.4584                22.6305                 0.4291

                     13                     14                     15
                      A                      A                      A
 Frequencies --    685.1995               795.9885               829.5887
 Red. masses --      3.2636                 3.1188                 1.5313
 Frc consts  --      0.9028                 1.1643                 0.6209
 IR Inten    --      0.3131                19.2714                 1.4937

                     16                     17                     18
                      A                      A                      A
 Frequencies --    883.2708               931.4746               958.0797
 Red. masses --      3.0751                 2.5038                 2.2839
 Frc consts  --      1.4135                 1.2800                 1.2352
 IR Inten    --      0.7975                 4.9339                19.9580

                     19                     20                     21
                      A                      A                      A
 Frequencies --    973.2527               986.9937              1003.9628
 Red. masses --      1.3802                 2.3522                 2.1036
 Frc consts  --      0.7703                 1.3501                 1.2493
 IR Inten    --      6.9446                16.6461                59.7445

                     22                     23                     24
                      A                      A                      A
 Frequencies --   1036.8088              1044.0117              1051.2517
 Red. masses --      1.3829                 1.8822                 1.9131
 Frc consts  --      0.8759                 1.2087                 1.2456
 IR Inten    --      9.4713                26.5894                 9.5912

                     25                     26                     27
                      A                      A                      A
 Frequencies --   1092.8078              1099.5366              1158.1901
 Red. masses --      3.2713                 3.0748                 2.0901
 Frc consts  --      2.3017                 2.1902                 1.6519
 IR Inten    --      1.9467                 6.8492                10.1247

                     28                     29                     30
                      A                      A                      A
 Frequencies --   1195.4135              1211.7642              1267.5101
 Red. masses --      1.5272                 1.4115                 1.7398
 Frc consts  --      1.2859                 1.2211                 1.6469
 IR Inten    --      5.5524                10.2535                 1.5507

                     31                     32                     33
                      A                      A                      A
 Frequencies --   1292.8252              1311.7690              1395.8863
 Red. masses --      1.9015                 1.6019                 1.4201
 Frc consts  --      1.8725                 1.6241                 1.6303
 IR Inten    --      5.5084                 0.6313                 2.6704

                     34                     35                     36
                      A                      A                      A
 Frequencies --   1400.5253              1409.6221              1425.7056
 Red. masses --      1.8111                 1.5476                 1.2411
 Frc consts  --      2.0930                 1.8118                 1.4863
 IR Inten    --      3.1518                 6.4943                 0.6577

                     37                     38                     39
                      A                      A                      A
 Frequencies --   1484.2180              1490.0876              1504.1235
 Red. masses --      1.0488                 1.0477                 1.0540
 Frc consts  --      1.3613                 1.3706                 1.4049
 IR Inten    --      1.0073                 4.0014                 5.5975

                     40                     41                     42
                      A                      A                      A
 Frequencies --   1513.0514              1834.7482              2893.7071
 Red. masses --      1.1152                10.6509                 1.0846
 Frc consts  --      1.5042                21.1246                 5.3508
 IR Inten    --      4.1937               178.3942                82.9258

                     43                     44                     45
                      A                      A                      A
 Frequencies --   3027.0769              3033.5543              3061.2138
 Red. masses --      1.0350                 1.0380                 1.0849
 Frc consts  --      5.5875                 5.6278                 5.9898
 IR Inten    --     25.3339                32.6729                27.7353

                     46                     47                     48
                      A                      A                      A
 Frequencies --   3089.4886              3093.9130              3098.9053
 Red. masses --      1.1012                 1.1013                 1.1012
 Frc consts  --      6.1926                 6.2109                 6.2305
 IR Inten    --      9.6910                28.7952                25.7945

                     49                     50                     51
                      A                      A                      A
 Frequencies --   3129.7047              3171.5855              3199.3406
 Red. masses --      1.0979                 1.0910                 1.0955
 Frc consts  --      6.3362                 6.4661                 6.6068
 IR Inten    --     12.8904                18.0768                 5.5475

 - Thermochemistry -
 -------------------
 Temperature   298.150 Kelvin.  Pressure   1.00000 Atm.
 Atom     1 has atomic number  6 and mass  12.00000

 Molecular mass:   126.06808 amu.
 Principal axes and moments of inertia in atomic units:
                           1         2         3
     Eigenvalues --   494.657171793.552231858.24740
           X            0.99982  -0.01137  -0.01505
           Y            0.00672   0.96014  -0.27943
           Z            0.01762   0.27928   0.96005
 This molecule is an asymmetric top.
 Rotational symmetry number  1.
 Warning -- assumption of classical behavior for rotation
           may cause significant error
 Rotational temperatures (Kelvin)      0.17510     0.04829     0.04661
 Rotational constants (GHZ):           3.64847     1.00624     0.97121
 Zero-point vibrational energy     410369.9 (Joules/Mol)
                                   98.08077 (Kcal/Mol)
 Warning -- explicit consideration of  12 degrees of freedom as
           vibrations may cause significant error
 Vibrational temperatures:     76.70   164.90   269.15   274.43   321.00
          (Kelvin)            361.42   409.64   500.85   538.15   661.45
                              718.93   800.00   985.85  1145.25  1193.59
                             1270.83  1340.18  1378.46  1400.29  1420.06
                             1444.48  1491.73  1502.10  1512.51  1572.30
                             1581.99  1666.38  1719.93  1743.46  1823.66
                             1860.08  1887.34  2008.37  2015.04  2028.13
                             2051.27  2135.46  2143.90  2164.10  2176.94
                             2639.79  4163.39  4355.28  4364.60  4404.40
                             4445.08  4451.45  4458.63  4502.94  4563.20
                             4603.13

 Zero-point correction=                           0.156302 (Hartree/Particle)
 Thermal correction to Energy=                    0.165455
 Thermal correction to Enthalpy=                  0.166399
 Thermal correction to Gibbs Free Energy=         0.122161
 Sum of electronic and zero-point Energies=           -422.992626
 Sum of electronic and thermal Energies=              -422.983472
 Sum of electronic and thermal Enthalpies=            -422.982528
 Sum of electronic and thermal Free Energies=         -423.026767

                     E (Thermal)             CV                S
                      KCal/Mol        Cal/Mol-Kelvin    Cal/Mol-Kelvin
 Total                  103.825             33.770             93.108
 Electronic               0.000              0.000              0.000
 Translational            0.889              2.981             40.409
 Rotational               0.889              2.981             28.890
 Vibrational            102.047             27.808             23.809
 Vibration     1          0.596              1.976              4.691
 Vibration     2          0.608              1.937              3.189
 Vibration     3          0.632              1.858              2.257
 Vibration     4          0.634              1.853              2.221
 Vibration     5          0.649              1.806              1.934
 Vibration     6          0.663              1.761              1.722
 Vibration     7          0.683              1.702              1.505
 Vibration     8          0.726              1.579              1.175
 Vibration     9          0.745              1.525              1.063
 Vibration    10          0.818              1.339              0.767
 Vibration    11          0.855              1.251              0.659
 Vibration    12          0.912              1.127              0.532

 Optimization completed.
    -- Stationary point found.
 Normal termination of Gaussian 09 at Mon Jan 27 17:56:56 2020.
