 Gaussian 09, Revision D.01,
 Gaussian 09:  ES64L-G09RevD.01 24-Apr-2013

 -----------------------------
 # b3lyp 6-31G(2df,p) opt Freq
 -----------------------------

 -----
 titel
 -----
 Symbolic Z-matrix:
 Charge =  0 Multiplicity = 1

 SCF Done:  E(RB3LYP) =  -423.130300112     A.U. after   14 cycles
 Optimization completed.
    -- Stationary point found.
 Normal termination of Gaussian 09 at Tue Jan 28 08:11:49 2020.

 ----------------------------------------------------------------------
 #N Geom=AllCheck Guess=TCheck SCRF=Check GenChk RB3LYP/6-31G(2df,p) Fr
 eq
 ----------------------------------------------------------------------

 Structure from the checkpoint file:  "/scratch/puck/g09_87262849-52fd-4e77-9edf-f45244f2897a/Gau-101971.chk"
 -----
 titel
 -----
 Charge =  0 Multiplicity = 1

                         Standard orientation:
 ---------------------------------------------------------------------
 Center     Atomic      Atomic             Coordinates (Angstroms)
 Number     Number       Type             X           Y           Z
 ---------------------------------------------------------------------
      1          6           0        2.999360   -1.301634   -0.162976
      2          6           0        1.756529   -0.690891    0.441912
      3          6           0        1.553188    0.800283    0.458954
      4          8           0        2.471221    1.640243   -0.174669
      5          6           0        0.708616   -0.043617   -0.472800
      6          6           0       -0.690995   -0.228693   -0.237063
      7          6           0       -1.869805   -0.401339   -0.045250
      8          6           0       -3.301683   -0.544340    0.206275
      9          8           0       -4.065731    0.595249   -0.169916
     10          1           0        3.787015   -1.415002    0.590983
     11          1           0        2.791307   -2.293934   -0.575402
     12          1           0        3.391557   -0.672342   -0.965840
     13          1           0        1.341128   -1.221453    1.293838
     14          1           0        1.043185    1.233891    1.318146
     15          1           0        3.246170    1.718476    0.392599
     16          1           0        1.011598    0.033782   -1.513875
     17          1           0       -3.709091   -1.378615   -0.376257
     18          1           0       -3.458839   -0.795926    1.268123
     19          1           0       -3.619202    1.368573    0.190050
 ---------------------------------------------------------------------

 SCF Done:  E(RB3LYP) =  -423.130300112     A.U. after    1 cycles

 The electronic state is 1-A.
 Alpha  occ. eigenvalues --  -19.15286 -19.13441 -10.24639 -10.24416 -10.20979
 Alpha  occ. eigenvalues --  -10.20158 -10.18483 -10.17697 -10.16950  -1.03805
 Alpha  occ. eigenvalues --   -1.01596  -0.86600  -0.76147  -0.72371  -0.68751
 Alpha  occ. eigenvalues --   -0.61790  -0.58931  -0.54202  -0.51648  -0.49767
 Alpha  occ. eigenvalues --   -0.46474  -0.44360  -0.43790  -0.42853  -0.40978
 Alpha  occ. eigenvalues --   -0.38899  -0.36927  -0.35265  -0.33999  -0.31259
 Alpha  occ. eigenvalues --   -0.28136  -0.27671  -0.24374  -0.23720
 Alpha virt. eigenvalues --    0.03184   0.05252   0.07030   0.10402   0.11089
 Alpha virt. eigenvalues --    0.12525   0.13399   0.14441   0.14853   0.16355
 Alpha virt. eigenvalues --    0.17502   0.17818   0.18877   0.20738   0.24055

 Mulliken charges:
               1
     1  C   -0.421476
     2  C   -0.048229
     3  C    0.086070
     4  O   -0.417700
     5  C   -0.249904
     6  C    0.021125
     7  C    0.109302
     8  C   -0.189440
     9  O   -0.404009
    10  H    0.115089
    11  H    0.126982
    12  H    0.132428
    13  H    0.096581
    14  H    0.096119
    15  H    0.291268
    16  H    0.119830
    17  H    0.137115
    18  H    0.113340
    19  H    0.285510
 Sum of Mulliken charges =   0.00000

 Dipole moment (field-independent basis, Debye):
    X=              2.5937    Y=             -0.3879    Z=              2.0920  Tot=              3.3548
 Quadrupole moment (field-independent basis, Debye-Ang):
   XX=            -54.0995   YY=            -52.0180   ZZ=            -52.1298
   XY=              0.9630   XZ=             -0.5254   YZ=              2.9253

  Exact polarizability: 123.580   2.195  69.161  -1.432   0.407  60.250
 Approx polarizability: 165.634   7.960  99.306  -2.737  -1.427  92.121

                      1                      2                      3
                      A                      A                      A
 Frequencies --     21.1093                68.9991                97.6539
 Red. masses --      3.1113                 4.9475                 3.0186
 Frc consts  --      0.0008                 0.0139                 0.0170
 IR Inten    --      0.8512                 0.4362                 0.5695

                      4                      5                      6
                      A                      A                      A
 Frequencies --    162.5093               187.8317               219.1722
 Red. masses --      3.4558                 1.1280                 2.7038
 Frc consts  --      0.0538                 0.0234                 0.0765
 IR Inten    --      1.6984                 7.1577                 2.4599

                      7                      8                      9
                      A                      A                      A
 Frequencies --    254.4758               291.5102               300.3661
 Red. masses --      2.1656                 1.2841                 1.8442
 Frc consts  --      0.0826                 0.0643                 0.0980
 IR Inten    --     36.1609                58.4689                77.0741

                     10                     11                     12
                      A                      A                      A
 Frequencies --    325.7934               348.1319               457.0370
 Red. masses --      1.9380                 3.8780                 4.7221
 Frc consts  --      0.1212                 0.2769                 0.5812
 IR Inten    --     70.3118                 3.3865                10.5265

                     13                     14                     15
                      A                      A                      A
 Frequencies --    474.7239               568.5466               585.1474
 Red. masses --      5.4670                 5.7482                 3.8911
 Frc consts  --      0.7259                 1.0947                 0.7850
 IR Inten    --      5.5479                12.8096                 1.5807

                     16                     17                     18
                      A                      A                      A
 Frequencies --    790.7175               802.6020               842.3629
 Red. masses --      3.7595                 2.6113                 3.4615
 Frc consts  --      1.3849                 0.9911                 1.4471
 IR Inten    --      7.1169                21.4432                 5.5181

                     19                     20                     21
                      A                      A                      A
 Frequencies --    942.4563               982.6876               992.8017
 Red. masses --      2.1024                 1.3630                 1.6060
 Frc consts  --      1.1002                 0.7755                 0.9326
 IR Inten    --      4.9372                 7.9713                38.4968

                     22                     23                     24
                      A                      A                      A
 Frequencies --   1020.9877              1045.4713              1085.5229
 Red. masses --      1.8582                 5.9384                 1.1588
 Frc consts  --      1.1413                 3.8242                 0.8045
 IR Inten    --     35.0694               110.6989                13.4642

                     25                     26                     27
                      A                      A                      A
 Frequencies --   1120.9007              1132.8596              1171.1874
 Red. masses --      1.9495                 1.8867                 1.9836
 Frc consts  --      1.4431                 1.4266                 1.6031
 IR Inten    --     11.2434                16.1984                 7.2963

                     28                     29                     30
                      A                      A                      A
 Frequencies --   1199.6891              1216.0303              1222.8744
 Red. masses --      2.4530                 1.1202                 1.6203
 Frc consts  --      2.0801                 0.9760                 1.4276
 IR Inten    --      2.5723                14.7048                46.9962

                     31                     32                     33
                      A                      A                      A
 Frequencies --   1288.8845              1327.7585              1351.5626
 Red. masses --      1.1805                 1.4596                 1.2097
 Frc consts  --      1.1554                 1.5161                 1.3020
 IR Inten    --     46.8012                 9.0579                 2.8853

                     34                     35                     36
                      A                      A                      A
 Frequencies --   1383.0763              1417.7024              1419.8330
 Red. masses --      1.3547                 1.3511                 1.2498
 Frc consts  --      1.5268                 1.5999                 1.4844
 IR Inten    --      1.3562                 2.2903               124.1071

                     37                     38                     39
                      A                      A                      A
 Frequencies --   1461.3609              1493.0346              1496.6753
 Red. masses --      2.3303                 1.0796                 1.0467
 Frc consts  --      2.9321                 1.4180                 1.3814
 IR Inten    --      8.7808                 0.7593                 3.1892

                     40                     41                     42
                      A                      A                      A
 Frequencies --   1504.4355              2351.5280              2967.7807
 Red. masses --      1.0956                11.8516                 1.0720
 Frc consts  --      1.4610                38.6126                 5.5627
 IR Inten    --      7.7393                43.5564                53.6301

                     43                     44                     45
                      A                      A                      A
 Frequencies --   3032.5348              3056.1451              3091.8337
 Red. masses --      1.0382                 1.0874                 1.0989
 Frc consts  --      5.6251                 5.9842                 6.1893
 IR Inten    --     38.3109                22.3063                20.6810

                     46                     47                     48
                      A                      A                      A
 Frequencies --   3111.0440              3120.6992              3143.8744
 Red. masses --      1.0882                 1.0989                 1.0868
 Frc consts  --      6.2057                 6.3054                 6.3289
 IR Inten    --     21.5089                 8.1156                 3.5620

                     49                     50                     51
                      A                      A                      A
 Frequencies --   3157.2769              3798.0936              3817.8303
 Red. masses --      1.0882                 1.0661                 1.0662
 Frc consts  --      6.3913                 9.0611                 9.1566
 IR Inten    --     19.7529                23.5648                18.3043

 - Thermochemistry -
 -------------------
 Temperature   298.150 Kelvin.  Pressure   1.00000 Atm.
 Atom     1 has atomic number  6 and mass  12.00000

 Molecular mass:   126.06808 amu.
 Principal axes and moments of inertia in atomic units:
                           1         2         3
     Eigenvalues --   449.958832954.023963266.15008
           X            0.99995  -0.00843  -0.00440
           Y            0.00850   0.99981   0.01762
           Z            0.00425  -0.01766   0.99984
 This molecule is an asymmetric top.
 Rotational symmetry number  1.
 Warning -- assumption of classical behavior for rotation
           may cause significant error
 Rotational temperatures (Kelvin)      0.19249     0.02932     0.02652
 Rotational constants (GHZ):           4.01090     0.61094     0.55256
 Zero-point vibrational energy     411067.5 (Joules/Mol)
                                   98.24749 (Kcal/Mol)
 Warning -- explicit consideration of  15 degrees of freedom as
           vibrations may cause significant error
 Vibrational temperatures:     30.37    99.27   140.50   233.81   270.25
          (Kelvin)            315.34   366.13   419.42   432.16   468.74
                              500.88   657.57   683.02   818.01   841.90
                             1137.66  1154.76  1211.97  1355.98  1413.87
                             1428.42  1468.97  1504.20  1561.82  1612.72
                             1629.93  1685.08  1726.08  1749.59  1759.44
                             1854.41  1910.35  1944.59  1989.94  2039.76
                             2042.82  2102.57  2148.14  2153.38  2164.54
                             3383.32  4269.97  4363.14  4397.11  4448.45
                             4476.09  4489.98  4523.33  4542.61  5464.60
                             5493.00

 Zero-point correction=                           0.156567 (Hartree/Particle)
 Thermal correction to Energy=                    0.167121
 Thermal correction to Enthalpy=                  0.168065
 Thermal correction to Gibbs Free Energy=         0.119451
 Sum of electronic and zero-point Energies=           -422.973733
 Sum of electronic and thermal Energies=              -422.963179
 Sum of electronic and thermal Enthalpies=            -422.962235
 Sum of electronic and thermal Free Energies=         -423.010849

                     E (Thermal)             CV                S
                      KCal/Mol        Cal/Mol-Kelvin    Cal/Mol-Kelvin
 Total                  104.870             37.029            102.316
 Electronic               0.000              0.000              0.000
 Translational            0.889              2.981             40.409
 Rotational               0.889              2.981             29.852
 Vibrational            103.092             31.067             32.055
 Vibration     1          0.593              1.985              6.527
 Vibration     2          0.598              1.969              4.182
 Vibration     3          0.603              1.951              3.501
 Vibration     4          0.623              1.888              2.520
 Vibration     5          0.633              1.857              2.249
 Vibration     6          0.647              1.812              1.966
 Vibration     7          0.665              1.755              1.699
 Vibration     8          0.687              1.690              1.465
 Vibration     9          0.693              1.673              1.415
 Vibration    10          0.710              1.624              1.281
 Vibration    11          0.726              1.579              1.175
 Vibration    12          0.815              1.345              0.775
 Vibration    13          0.831              1.306              0.724
 Vibration    14          0.925              1.099              0.507
 Vibration    15          0.942              1.063              0.476

 Optimization completed.
    -- Stationary point found.
 Normal termination of Gaussian 09 at Tue Jan 28 08:44:39 2020.
