 Gaussian 09, Revision D.01,
 Gaussian 09:  ES64L-G09RevD.01 24-Apr-2013

 -----------------------------
 # b3lyp 6-31G(2df,p) opt Freq
 -----------------------------

 -----
 titel
 -----
 Symbolic Z-matrix:
 Charge =  0 Multiplicity = 1

 SCF Done:  E(RB3LYP) =  -423.160657613     A.U. after   14 cycles
 Optimization completed.
    -- Stationary point found.
 Normal termination of Gaussian 09 at Tue Jan 28 14:14:31 2020.

 ----------------------------------------------------------------------
 #N Geom=AllCheck Guess=TCheck SCRF=Check GenChk RB3LYP/6-31G(2df,p) Fr
 eq
 ----------------------------------------------------------------------

 Structure from the checkpoint file:  "/scratch/puck/g09_b2f39b87-82e6-43cc-86ca-740f7bb9e03f/Gau-98575.chk"
 -----
 titel
 -----
 Charge =  0 Multiplicity = 1

                         Standard orientation:
 ---------------------------------------------------------------------
 Center     Atomic      Atomic             Coordinates (Angstroms)
 Number     Number       Type             X           Y           Z
 ---------------------------------------------------------------------
      1          6           0       -3.557653   -0.152251    0.250298
      2          6           0       -2.205489    0.082309   -0.427354
      3          6           0       -1.067396   -0.705919    0.234301
      4          6           0        0.289869   -0.466052   -0.432870
      5          6           0        1.528641   -1.091625    0.237087
      6          8           0        2.656624   -0.619541   -0.484657
      7          6           0        2.141459    0.221350    0.570359
      8          6           0        0.920306    0.910993   -0.029703
      9          8           0        0.500919    2.030308   -0.005599
     10          1           0       -4.352220    0.413972   -0.244932
     11          1           0       -3.838174   -1.211419    0.225541
     12          1           0       -3.533427    0.158988    1.300534
     13          1           0       -2.268649   -0.203477   -1.485540
     14          1           0       -1.955927    1.148440   -0.410460
     15          1           0       -1.008104   -0.441067    1.299011
     16          1           0       -1.291718   -1.780696    0.198732
     17          1           0        0.247133   -0.665314   -1.507702
     18          1           0        1.615746   -2.024213    0.781672
     19          1           0        2.826571    0.525826    1.352487
 ---------------------------------------------------------------------

 SCF Done:  E(RB3LYP) =  -423.160657613     A.U. after    1 cycles

 The electronic state is 1-A.
 Alpha  occ. eigenvalues --  -19.17586 -19.14890 -10.28121 -10.25891 -10.25294
 Alpha  occ. eigenvalues --  -10.20712 -10.19578 -10.18281 -10.17552  -1.10171
 Alpha  occ. eigenvalues --   -1.05532  -0.82684  -0.77492  -0.70500  -0.65542
 Alpha  occ. eigenvalues --   -0.62479  -0.59177  -0.54157  -0.50376  -0.49048
 Alpha  occ. eigenvalues --   -0.46831  -0.44451  -0.42741  -0.42385  -0.40999
 Alpha  occ. eigenvalues --   -0.39352  -0.38073  -0.36789  -0.35114  -0.33791
 Alpha  occ. eigenvalues --   -0.33356  -0.32011  -0.28744  -0.24277
 Alpha virt. eigenvalues --   -0.02931   0.07670   0.09530   0.10701   0.11447
 Alpha virt. eigenvalues --    0.11907   0.13243   0.14274   0.14432   0.15797
 Alpha virt. eigenvalues --    0.17387   0.18003   0.18951   0.19296   0.21759

 Mulliken charges:
               1
     1  C   -0.384347
     2  C   -0.167999
     3  C   -0.200480
     4  C   -0.160160
     5  C    0.017232
     6  O   -0.232539
     7  C   -0.112597
     8  C    0.420776
     9  O   -0.303750
    10  H    0.116261
    11  H    0.111605
    12  H    0.116254
    13  H    0.096214
    14  H    0.131018
    15  H    0.099134
    16  H    0.099833
    17  H    0.108552
    18  H    0.122146
    19  H    0.122844
 Sum of Mulliken charges =   0.00000

 Dipole moment (field-independent basis, Debye):
    X=             -0.6888    Y=             -2.2782    Z=              1.2221  Tot=              2.6755
 Quadrupole moment (field-independent basis, Debye-Ang):
   XX=            -55.1978   YY=            -57.0609   ZZ=            -51.8985
   XY=              0.5630   XZ=              4.2732   YZ=             -0.4237

  Exact polarizability:  90.211  -0.717  75.887   3.989   0.924  61.919
 Approx polarizability: 112.679  -3.515 126.219   2.147   4.124  97.460

                      1                      2                      3
                      A                      A                      A
 Frequencies --     80.1945                89.3946               113.3492
 Red. masses --      3.6928                 2.3547                 2.4791
 Frc consts  --      0.0140                 0.0111                 0.0188
 IR Inten    --      0.2916                 1.5930                 3.2890

                      4                      5                      6
                      A                      A                      A
 Frequencies --    171.1238               223.2027               251.3886
 Red. masses --      4.2535                 2.8249                 1.1523
 Frc consts  --      0.0734                 0.0829                 0.0429
 IR Inten    --      2.9964                 0.5245                 0.0564

                      7                      8                      9
                      A                      A                      A
 Frequencies --    317.5226               328.0538               451.8789
 Red. masses --      3.3519                 4.8176                 4.4196
 Frc consts  --      0.1991                 0.3055                 0.5317
 IR Inten    --      3.4539                 0.1789                 2.8412

                     10                     11                     12
                      A                      A                      A
 Frequencies --    515.1034               668.6256               719.7686
 Red. masses --      4.2742                 5.5961                 3.4468
 Frc consts  --      0.6682                 1.4740                 1.0521
 IR Inten    --     15.2620                 0.4530                 2.0948

                     13                     14                     15
                      A                      A                      A
 Frequencies --    748.1185               813.3872               842.5222
 Red. masses --      1.1856                 2.1680                 3.1876
 Frc consts  --      0.3910                 0.8451                 1.3331
 IR Inten    --      4.4690                 0.6882                36.6592

                     16                     17                     18
                      A                      A                      A
 Frequencies --    851.0622               902.6578               915.8122
 Red. masses --      2.8048                 1.9920                 1.6559
 Frc consts  --      1.1970                 0.9563                 0.8183
 IR Inten    --     17.0797                 1.2216                 0.8833

                     19                     20                     21
                      A                      A                      A
 Frequencies --    935.4931               973.3937              1020.2449
 Red. masses --      1.7525                 2.4279                 2.4644
 Frc consts  --      0.9036                 1.3554                 1.5114
 IR Inten    --     23.2478                 2.1723                 8.3296

                     22                     23                     24
                      A                      A                      A
 Frequencies --   1047.9785              1059.7475              1087.4234
 Red. masses --      2.6682                 1.4673                 1.7295
 Frc consts  --      1.7265                 0.9709                 1.2050
 IR Inten    --      0.1766                 7.1142                12.0482

                     25                     26                     27
                      A                      A                      A
 Frequencies --   1116.3902              1130.6446              1199.6377
 Red. masses --      1.9401                 2.4100                 1.4862
 Frc consts  --      1.4246                 1.8152                 1.2601
 IR Inten    --      5.3650                 0.7452                 4.2812

                     28                     29                     30
                      A                      A                      A
 Frequencies --   1212.5019              1236.1472              1263.9007
 Red. masses --      1.5386                 1.4592                 1.4988
 Frc consts  --      1.3327                 1.3137                 1.4106
 IR Inten    --      4.5613                 2.3275                 1.5745

                     31                     32                     33
                      A                      A                      A
 Frequencies --   1293.4564              1331.9686              1344.5740
 Red. masses --      1.4549                 1.1974                 2.6884
 Frc consts  --      1.4341                 1.2517                 2.8636
 IR Inten    --      5.5930                 8.5584                10.4498

                     34                     35                     36
                      A                      A                      A
 Frequencies --   1352.6064              1396.7680              1414.1279
 Red. masses --      1.4723                 1.5495                 1.2353
 Frc consts  --      1.5870                 1.7811                 1.4555
 IR Inten    --      6.3800                 0.9719                 0.7585

                     37                     38                     39
                      A                      A                      A
 Frequencies --   1487.4345              1495.5993              1500.9406
 Red. masses --      1.0729                 1.0542                 1.0400
 Frc consts  --      1.3986                 1.3893                 1.3805
 IR Inten    --      0.7397                 0.4510                 5.4697

                     40                     41                     42
                      A                      A                      A
 Frequencies --   1512.2125              1887.9901              3006.4996
 Red. masses --      1.0879                12.4476                 1.0580
 Frc consts  --      1.4657                26.1418                 5.6347
 IR Inten    --      3.8406               236.6648                14.8358

                     43                     44                     45
                      A                      A                      A
 Frequencies --   3024.2013              3029.5864              3039.7436
 Red. masses --      1.0692                 1.0384                 1.0943
 Frc consts  --      5.7612                 5.6157                 5.9577
 IR Inten    --     17.1501                37.4867                18.3040

                     46                     47                     48
                      A                      A                      A
 Frequencies --   3073.5064              3077.1727              3100.2607
 Red. masses --      1.0875                 1.0949                 1.1021
 Frc consts  --      6.0528                 6.1082                 6.2411
 IR Inten    --     11.2381                 5.3121                50.9212

                     49                     50                     51
                      A                      A                      A
 Frequencies --   3104.9435              3190.9215              3204.1123
 Red. masses --      1.1004                 1.0892                 1.1012
 Frc consts  --      6.2503                 6.5339                 6.6609
 IR Inten    --     32.4897                 7.5183                 9.5444

 - Thermochemistry -
 -------------------
 Temperature   298.150 Kelvin.  Pressure   1.00000 Atm.
 Atom     1 has atomic number  6 and mass  12.00000

 Molecular mass:   126.06808 amu.
 Principal axes and moments of inertia in atomic units:
                           1         2         3
     Eigenvalues --   506.686991883.814832213.01975
           X            0.99997   0.00454   0.00568
           Y           -0.00446   0.99991  -0.01258
           Z           -0.00574   0.01255   0.99990
 This molecule is an asymmetric top.
 Rotational symmetry number  1.
 Warning -- assumption of classical behavior for rotation
           may cause significant error
 Rotational temperatures (Kelvin)      0.17094     0.04598     0.03914
 Rotational constants (GHZ):           3.56185     0.95802     0.81551
 Zero-point vibrational energy     413640.5 (Joules/Mol)
                                   98.86246 (Kcal/Mol)
 Warning -- explicit consideration of  10 degrees of freedom as
           vibrations may cause significant error
 Vibrational temperatures:    115.38   128.62   163.08   246.21   321.14
          (Kelvin)            361.69   456.84   472.00   650.15   741.12
                              962.00  1035.59  1076.37  1170.28  1212.20
                             1224.49  1298.72  1317.65  1345.96  1400.49
                             1467.90  1507.81  1524.74  1564.56  1606.23
                             1626.74  1726.01  1744.52  1778.54  1818.47
                             1860.99  1916.40  1934.54  1946.10  2009.64
                             2034.61  2140.08  2151.83  2159.52  2175.73
                             2716.39  4325.68  4351.15  4358.89  4373.51
                             4422.08  4427.36  4460.58  4467.32  4591.02
                             4610.00

 Zero-point correction=                           0.157547 (Hartree/Particle)
 Thermal correction to Energy=                    0.166520
 Thermal correction to Enthalpy=                  0.167464
 Thermal correction to Gibbs Free Energy=         0.123249
 Sum of electronic and zero-point Energies=           -423.003110
 Sum of electronic and thermal Energies=              -422.994137
 Sum of electronic and thermal Enthalpies=            -422.993193
 Sum of electronic and thermal Free Energies=         -423.037409

                     E (Thermal)             CV                S
                      KCal/Mol        Cal/Mol-Kelvin    Cal/Mol-Kelvin
 Total                  104.493             32.764             93.060
 Electronic               0.000              0.000              0.000
 Translational            0.889              2.981             40.409
 Rotational               0.889              2.981             29.137
 Vibrational            102.716             26.802             23.515
 Vibration     1          0.600              1.963              3.886
 Vibration     2          0.602              1.957              3.673
 Vibration     3          0.607              1.938              3.211
 Vibration     4          0.626              1.878              2.423
 Vibration     5          0.649              1.806              1.933
 Vibration     6          0.663              1.760              1.721
 Vibration     7          0.704              1.640              1.323
 Vibration     8          0.711              1.619              1.270
 Vibration     9          0.811              1.357              0.790
 Vibration    10          0.870              1.217              0.621

 Normal termination of Gaussian 09 at Tue Jan 28 14:57:11 2020.
