 Gaussian 09, Revision D.01,
 Gaussian 09:  ES64L-G09RevD.01 24-Apr-2013

 -----------------------------
 # b3lyp 6-31G(2df,p) opt Freq
 -----------------------------

 -----
 titel
 -----
 Symbolic Z-matrix:
 Charge =  0 Multiplicity = 1

 SCF Done:  E(RB3LYP) =  -423.132292820     A.U. after   15 cycles
 Optimization completed.
    -- Stationary point found.
 Normal termination of Gaussian 09 at Mon Jan 27 14:18:05 2020.

 ----------------------------------------------------------------------
 #N Geom=AllCheck Guess=TCheck SCRF=Check GenChk RB3LYP/6-31G(2df,p) Fr
 eq
 ----------------------------------------------------------------------

 Structure from the checkpoint file:  "/scratch/puck/g09_1ff340d9-95e4-42d1-8f74-5ed4af52b4b3/Gau-77883.chk"
 -----
 titel
 -----
 Charge =  0 Multiplicity = 1

                         Standard orientation:
 ---------------------------------------------------------------------
 Center     Atomic      Atomic             Coordinates (Angstroms)
 Number     Number       Type             X           Y           Z
 ---------------------------------------------------------------------
      1          6           0       -2.305300   -0.580982   -0.948593
      2          6           0       -1.325513    0.154437   -0.019236
      3          6           0       -1.597146    1.658274    0.006464
      4          8           0       -1.474455   -0.314266    1.316365
      5          6           0        0.103101   -0.117514   -0.488639
      6          8           0        0.658820   -1.355403   -0.043813
      7          6           0        1.235252   -0.122532    0.457121
      8          6           0        2.574433    0.189074    0.041542
      9          6           0        3.697245    0.465695   -0.286105
     10          1           0       -2.080570   -1.652468   -0.971385
     11          1           0       -3.327308   -0.449871   -0.583600
     12          1           0       -2.248352   -0.200873   -1.973961
     13          1           0       -1.473315    2.096348   -0.988471
     14          1           0       -2.621476    1.845104    0.340549
     15          1           0       -0.913646    2.158524    0.697487
     16          1           0       -1.110750   -1.210093    1.328427
     17          1           0        0.317352    0.120352   -1.530717
     18          1           0        1.000530    0.065238    1.502277
     19          1           0        4.690183    0.706377   -0.576345
 ---------------------------------------------------------------------

 SCF Done:  E(RB3LYP) =  -423.132292820     A.U. after    1 cycles

 The electronic state is 1-A.
 Alpha  occ. eigenvalues --  -19.16804 -19.13734 -10.26279 -10.24814 -10.24664
 Alpha  occ. eigenvalues --  -10.19184 -10.18701 -10.18033 -10.17927  -1.08680
 Alpha  occ. eigenvalues --   -1.02028  -0.78947  -0.77103  -0.70017  -0.68732
 Alpha  occ. eigenvalues --   -0.65848  -0.57451  -0.55195  -0.53043  -0.50751
 Alpha  occ. eigenvalues --   -0.45969  -0.45200  -0.43580  -0.40950  -0.39984
 Alpha  occ. eigenvalues --   -0.38907  -0.37233  -0.36403  -0.34795  -0.32875
 Alpha  occ. eigenvalues --   -0.29518  -0.28273  -0.27863  -0.25846
 Alpha virt. eigenvalues --    0.01508   0.03880   0.08355   0.10164   0.11664
 Alpha virt. eigenvalues --    0.11785   0.12385   0.14412   0.15162   0.16482
 Alpha virt. eigenvalues --    0.16830   0.19030   0.19687   0.20616   0.20971

 Mulliken charges:
               1
     1  C   -0.420334
     2  C    0.315576
     3  C   -0.399501
     4  O   -0.464871
     5  C    0.037594
     6  O   -0.269564
     7  C   -0.192209
     8  C    0.307738
     9  C   -0.373967
    10  H    0.123765
    11  H    0.125632
    12  H    0.113357
    13  H    0.115968
    14  H    0.128574
    15  H    0.125938
    16  H    0.287318
    17  H    0.104092
    18  H    0.132809
    19  H    0.202085
 Sum of Mulliken charges =   0.00000

 Dipole moment (field-independent basis, Debye):
    X=              0.0643    Y=              0.9935    Z=             -1.0647  Tot=              1.4577
 Quadrupole moment (field-independent basis, Debye-Ang):
   XX=            -48.8736   YY=            -54.4213   ZZ=            -53.5241
   XY=              2.6707   XZ=              1.4644   YZ=             -1.7625

  Exact polarizability: 109.086   6.030  64.183  -0.931  -1.411  64.092
 Approx polarizability: 148.440  12.478  98.468  -6.577  -4.198  98.868

                      1                      2                      3
                      A                      A                      A
 Frequencies --     86.7931               105.9969               145.0844
 Red. masses --      4.4493                 3.6780                 3.2695
 Frc consts  --      0.0197                 0.0243                 0.0405
 IR Inten    --      2.5930                 1.1034                 1.3303

                      4                      5                      6
                      A                      A                      A
 Frequencies --    200.2729               242.6746               246.5589
 Red. masses --      1.0475                 3.1872                 1.6176
 Frc consts  --      0.0248                 0.1106                 0.0579
 IR Inten    --      0.1128                 2.4927                 4.2127

                      7                      8                      9
                      A                      A                      A
 Frequencies --    276.7315               308.0647               366.2259
 Red. masses --      2.0847                 2.6544                 3.4228
 Frc consts  --      0.0941                 0.1484                 0.2705
 IR Inten    --      3.5401                 0.3562                28.8166

                     10                     11                     12
                      A                      A                      A
 Frequencies --    376.9974               470.3483               479.8374
 Red. masses --      2.4682                 1.1974                 4.2911
 Frc consts  --      0.2067                 0.1561                 0.5821
 IR Inten    --      7.8884               108.7522                 7.7166

                     13                     14                     15
                      A                      A                      A
 Frequencies --    510.6211               552.4592               590.4915
 Red. masses --      3.8550                 5.4003                 4.0356
 Frc consts  --      0.5922                 0.9711                 0.8291
 IR Inten    --      7.0820                 5.8684                27.8771

                     16                     17                     18
                      A                      A                      A
 Frequencies --    620.0741               674.4639               806.8997
 Red. masses --      1.2131                 1.2561                 5.4215
 Frc consts  --      0.2748                 0.3367                 2.0797
 IR Inten    --     43.7402                33.3428                 8.9869

                     19                     20                     21
                      A                      A                      A
 Frequencies --    824.5917               905.4797               918.1480
 Red. masses --      4.8080                 2.7096                 3.4082
 Frc consts  --      1.9262                 1.3089                 1.6928
 IR Inten    --     13.4382                 8.5680                35.4641

                     22                     23                     24
                      A                      A                      A
 Frequencies --    931.8736               972.3182              1004.5506
 Red. masses --      1.5242                 2.3221                 1.8697
 Frc consts  --      0.7798                 1.2934                 1.1117
 IR Inten    --      3.4502                35.0299                 9.2299

                     25                     26                     27
                      A                      A                      A
 Frequencies --   1019.8786              1109.1038              1128.5201
 Red. masses --      1.9168                 1.3707                 1.4652
 Frc consts  --      1.1747                 0.9934                 1.0994
 IR Inten    --     23.0342                 3.3338                14.5658

                     28                     29                     30
                      A                      A                      A
 Frequencies --   1162.0445              1208.0914              1240.0423
 Red. masses --      1.6019                 2.3264                 2.5602
 Frc consts  --      1.2745                 2.0005                 2.3195
 IR Inten    --     26.1236                27.3944                 9.7695

                     31                     32                     33
                      A                      A                      A
 Frequencies --   1272.9587              1329.6006              1382.8358
 Red. masses --      1.7314                 1.2549                 1.3430
 Frc consts  --      1.6531                 1.3070                 1.5131
 IR Inten    --     20.2536                27.7709                31.2630

                     34                     35                     36
                      A                      A                      A
 Frequencies --   1397.4865              1418.0653              1454.0663
 Red. masses --      1.3574                 1.3421                 2.4798
 Frc consts  --      1.5619                 1.5901                 3.0891
 IR Inten    --     20.3880                16.1518                10.2992

                     37                     38                     39
                      A                      A                      A
 Frequencies --   1476.9298              1484.9493              1499.7870
 Red. masses --      1.0574                 1.0531                 1.1143
 Frc consts  --      1.3589                 1.3682                 1.4768
 IR Inten    --      1.0032                 2.2566                 7.3664

                     40                     41                     42
                      A                      A                      A
 Frequencies --   1506.4469              2242.7494              3033.6406
 Red. masses --      1.0813                 5.9545                 1.0349
 Frc consts  --      1.4458                17.6464                 5.6114
 IR Inten    --      1.9241                 0.6501                16.1920

                     43                     44                     45
                      A                      A                      A
 Frequencies --   3045.2049              3103.4637              3115.1116
 Red. masses --      1.0349                 1.1011                 1.0914
 Frc consts  --      5.6543                 6.2483                 6.2401
 IR Inten    --     10.7897                14.7480                 5.6862

                     46                     47                     48
                      A                      A                      A
 Frequencies --   3117.7956              3123.2600              3125.3893
 Red. masses --      1.1005                 1.1009                 1.1020
 Frc consts  --      6.3031                 6.3270                 6.3423
 IR Inten    --     10.6806                35.9449                24.7722

                     49                     50                     51
                      A                      A                      A
 Frequencies --   3145.3675              3502.4504              3758.7710
 Red. masses --      1.0854                 1.1623                 1.0650
 Frc consts  --      6.3266                 8.4005                 8.8654
 IR Inten    --      4.3780                75.5716                27.9859

 - Thermochemistry -
 -------------------
 Temperature   298.150 Kelvin.  Pressure   1.00000 Atm.
 Atom     1 has atomic number  6 and mass  12.00000

 Molecular mass:   126.06808 amu.
 Principal axes and moments of inertia in atomic units:
                           1         2         3
     Eigenvalues --   526.712091900.658632010.54871
           X            0.99992   0.00002   0.01271
           Y           -0.00009   0.99999   0.00479
           Z           -0.01271  -0.00479   0.99991
 This molecule is an asymmetric top.
 Rotational symmetry number  1.
 Warning -- assumption of classical behavior for rotation
           may cause significant error
 Rotational temperatures (Kelvin)      0.16444     0.04557     0.04308
 Rotational constants (GHZ):           3.42643     0.94953     0.89764
 Zero-point vibrational energy     406859.3 (Joules/Mol)
                                   97.24171 (Kcal/Mol)
 Warning -- explicit consideration of  16 degrees of freedom as
           vibrations may cause significant error
 Vibrational temperatures:    124.88   152.51   208.74   288.15   349.15
          (Kelvin)            354.74   398.15   443.24   526.92   542.41
                              676.73   690.38   734.67   794.86   849.58
                              892.15   970.40  1160.95  1186.40  1302.78
                             1321.01  1340.76  1398.95  1445.32  1467.38
                             1595.75  1623.69  1671.92  1738.17  1784.14
                             1831.50  1913.00  1989.59  2010.67  2040.28
                             2092.07  2124.97  2136.51  2157.86  2167.44
                             3226.81  4364.73  4381.37  4465.19  4481.95
                             4485.81  4493.67  4496.73  4525.48  5039.24
                             5408.03

 Zero-point correction=                           0.154965 (Hartree/Particle)
 Thermal correction to Energy=                    0.164924
 Thermal correction to Enthalpy=                  0.165868
 Thermal correction to Gibbs Free Energy=         0.120560
 Sum of electronic and zero-point Energies=           -422.977328
 Sum of electronic and thermal Energies=              -422.967369
 Sum of electronic and thermal Enthalpies=            -422.966424
 Sum of electronic and thermal Free Energies=         -423.011733

                     E (Thermal)             CV                S
                      KCal/Mol        Cal/Mol-Kelvin    Cal/Mol-Kelvin
 Total                  103.491             37.452             95.359
 Electronic               0.000              0.000              0.000
 Translational            0.889              2.981             40.409
 Rotational               0.889              2.981             29.089
 Vibrational            101.714             31.491             25.862
 Vibration     1          0.601              1.958              3.731
 Vibration     2          0.605              1.944              3.341
 Vibration     3          0.616              1.908              2.736
 Vibration     4          0.638              1.839              2.131
 Vibration     5          0.659              1.775              1.783
 Vibration     6          0.661              1.768              1.755
 Vibration     7          0.678              1.716              1.554
 Vibration     8          0.698              1.658              1.373
 Vibration     9          0.739              1.542              1.096
 Vibration    10          0.748              1.519              1.051
 Vibration    11          0.827              1.316              0.737
 Vibration    12          0.836              1.295              0.711
 Vibration    13          0.866              1.226              0.632
 Vibration    14          0.908              1.134              0.539
 Vibration    15          0.948              1.052              0.466
 Vibration    16          0.980              0.990              0.416

 Optimization completed.
    -- Stationary point found.
 Normal termination of Gaussian 09 at Mon Jan 27 14:54:54 2020.
