 Gaussian 09, Revision D.01,
 Gaussian 09:  ES64L-G09RevD.01 24-Apr-2013

 -----------------------------
 # b3lyp 6-31G(2df,p) opt Freq
 -----------------------------

 -----
 titel
 -----
 Symbolic Z-matrix:
 Charge =  0 Multiplicity = 1

 SCF Done:  E(RB3LYP) =  -423.111637021     A.U. after   12 cycles
 Optimization completed.
    -- Stationary point found.
 Normal termination of Gaussian 09 at Tue Jan 28 04:02:05 2020.

 ----------------------------------------------------------------------
 #N Geom=AllCheck Guess=TCheck SCRF=Check GenChk RB3LYP/6-31G(2df,p) Fr
 eq
 ----------------------------------------------------------------------

 Structure from the checkpoint file:  "/scratch/puck/g09_2d2ee835-e3f9-47c8-9b71-0cf094d59f41/Gau-93621.chk"
 -----
 titel
 -----
 Charge =  0 Multiplicity = 1

                         Standard orientation:
 ---------------------------------------------------------------------
 Center     Atomic      Atomic             Coordinates (Angstroms)
 Number     Number       Type             X           Y           Z
 ---------------------------------------------------------------------
      1          8           0       -1.735779    1.563231   -0.229268
      2          6           0       -1.349666    0.390773    0.438688
      3          6           0       -1.925010   -0.970593   -0.010250
      4          8           0       -0.600621   -1.532962   -0.102492
      5          6           0        0.016612   -0.254414    0.118511
      6          6           0        1.333281   -0.155168    0.918176
      7          6           0        2.034104   -0.765772   -0.335595
      8          6           0        1.049709    0.303866   -0.901115
      9          6           0        1.518229    1.241031    0.250339
     10          1           0       -1.565785    1.443179   -1.170249
     11          1           0       -1.494520    0.589938    1.503325
     12          1           0       -2.555069   -1.513622    0.701817
     13          1           0       -2.430640   -0.931074   -0.985677
     14          1           0        1.489194   -0.418607    1.964902
     15          1           0        3.097680   -0.538828   -0.447893
     16          1           0        1.811398   -1.808320   -0.563680
     17          1           0        0.888836    0.564837   -1.948804
     18          1           0        2.550181    1.592113    0.180535
     19          1           0        0.836376    2.039899    0.547277
 ---------------------------------------------------------------------

 SCF Done:  E(RB3LYP) =  -423.111637021     A.U. after    1 cycles

 The electronic state is 1-A.
 Alpha  occ. eigenvalues --  -19.14921 -19.13597 -10.23907 -10.23788 -10.22911
 Alpha  occ. eigenvalues --  -10.20050 -10.19857 -10.18908 -10.18703  -1.05216
 Alpha  occ. eigenvalues --   -1.02224  -0.90815  -0.72728  -0.67360  -0.66117
 Alpha  occ. eigenvalues --   -0.63196  -0.59835  -0.55058  -0.50158  -0.48867
 Alpha  occ. eigenvalues --   -0.48316  -0.46807  -0.40999  -0.40449  -0.39949
 Alpha  occ. eigenvalues --   -0.38548  -0.35693  -0.33879  -0.33021  -0.32518
 Alpha  occ. eigenvalues --   -0.31291  -0.29308  -0.26264  -0.24373
 Alpha virt. eigenvalues --    0.06372   0.09502   0.10681   0.11894   0.12570
 Alpha virt. eigenvalues --    0.14099   0.14773   0.15270   0.16141   0.16472
 Alpha virt. eigenvalues --    0.17213   0.18377   0.19663   0.20279   0.21174

 Mulliken charges:
               1
     1  O   -0.423012
     2  C   -0.033347
     3  C   -0.123392
     4  O   -0.339960
     5  C    0.502869
     6  C   -0.130786
     7  C   -0.234800
     8  C   -0.136677
     9  C   -0.229562
    10  H    0.285322
    11  H    0.105982
    12  H    0.109423
    13  H    0.092646
    14  H    0.073155
    15  H    0.090063
    16  H    0.118020
    17  H    0.066264
    18  H    0.095013
    19  H    0.112780
 Sum of Mulliken charges =   0.00000

 Dipole moment (field-independent basis, Debye):
    X=              0.0790    Y=              0.3821    Z=             -0.4324  Tot=              0.5824
 Quadrupole moment (field-independent basis, Debye-Ang):
   XX=            -51.8520   YY=            -58.8921   ZZ=            -49.6959
   XY=              2.5828   XZ=              0.9355   YZ=             -1.8131

  Exact polarizability:  86.505   3.154  71.563  -0.127  -0.532  67.832
 Approx polarizability: 113.174   1.491 108.647   0.227  -1.186 106.427

                      1                      2                      3
                      A                      A                      A
 Frequencies --     76.4874               160.9700               197.8668
 Red. masses --      2.8696                 3.7615                 3.6595
 Frc consts  --      0.0099                 0.0574                 0.0844
 IR Inten    --      3.6490                 0.5446                 0.5824

                      4                      5                      6
                      A                      A                      A
 Frequencies --    289.0975               340.8905               380.9946
 Red. masses --      1.8026                 1.7401                 3.3534
 Frc consts  --      0.0888                 0.1191                 0.2868
 IR Inten    --     25.0621                58.9742                25.9815

                      7                      8                      9
                      A                      A                      A
 Frequencies --    462.2746               474.2339               583.4094
 Red. masses --      3.0757                 2.7193                 2.2587
 Frc consts  --      0.3872                 0.3603                 0.4529
 IR Inten    --      0.6105                 4.8871                 1.2437

                     10                     11                     12
                      A                      A                      A
 Frequencies --    614.8404               753.2945               795.5222
 Red. masses --      3.3974                 4.4796                 2.6638
 Frc consts  --      0.7567                 1.4977                 0.9932
 IR Inten    --     21.1307                 5.5025                 4.4351

                     13                     14                     15
                      A                      A                      A
 Frequencies --    807.3902               887.6276               897.0756
 Red. masses --      2.8254                 1.9997                 2.1729
 Frc consts  --      1.0852                 0.9283                 1.0303
 IR Inten    --      0.0827                 3.8422                 3.2920

                     16                     17                     18
                      A                      A                      A
 Frequencies --    902.0808               959.6764               990.9187
 Red. masses --      2.3044                 2.0795                 1.4770
 Frc consts  --      1.1048                 1.1284                 0.8545
 IR Inten    --      2.0291                10.6631                10.3556

                     19                     20                     21
                      A                      A                      A
 Frequencies --   1012.5924              1021.3003              1038.5153
 Red. masses --      6.6445                 1.0246                 1.8205
 Frc consts  --      4.0140                 0.6297                 1.1568
 IR Inten    --    152.2693                 1.0734                 3.6667

                     22                     23                     24
                      A                      A                      A
 Frequencies --   1043.6913              1078.1465              1083.9273
 Red. masses --      2.3359                 1.4958                 1.3975
 Frc consts  --      1.4992                 1.0244                 0.9674
 IR Inten    --      3.2885                 4.4157                 0.1574

                     25                     26                     27
                      A                      A                      A
 Frequencies --   1112.7245              1120.5522              1143.0075
 Red. masses --      2.6670                 2.7487                 2.6127
 Frc consts  --      1.9456                 2.0335                 2.0111
 IR Inten    --     29.1686                37.5255                58.3317

                     28                     29                     30
                      A                      A                      A
 Frequencies --   1157.1466              1187.3551              1195.7943
 Red. masses --      1.2940                 1.4358                 1.3715
 Frc consts  --      1.0208                 1.1926                 1.1555
 IR Inten    --     29.8728                 5.8563                 0.9423

                     31                     32                     33
                      A                      A                      A
 Frequencies --   1204.9624              1233.5693              1246.2689
 Red. masses --      1.8945                 1.5979                 1.7749
 Frc consts  --      1.6207                 1.4326                 1.6242
 IR Inten    --     12.6281                 6.4608                 2.0930

                     34                     35                     36
                      A                      A                      A
 Frequencies --   1261.4239              1302.4387              1320.5637
 Red. masses --      1.5458                 1.4914                 2.8683
 Frc consts  --      1.4491                 1.4906                 2.9471
 IR Inten    --      6.1456                 2.3627                36.6227

                     37                     38                     39
                      A                      A                      A
 Frequencies --   1340.3935              1440.8800              1495.7994
 Red. masses --      1.5902                 1.3058                 1.0926
 Frc consts  --      1.6833                 1.5973                 1.4403
 IR Inten    --      5.0476                54.5565                 0.2498

                     40                     41                     42
                      A                      A                      A
 Frequencies --   1517.9433              1532.7498              3000.3079
 Red. masses --      1.1075                 1.1422                 1.0635
 Frc consts  --      1.5035                 1.5810                 5.6405
 IR Inten    --      2.3465                 4.2752                72.0220

                     43                     44                     45
                      A                      A                      A
 Frequencies --   3061.9013              3066.1201              3067.9543
 Red. masses --      1.0572                 1.0546                 1.0990
 Frc consts  --      5.8396                 5.8416                 6.0946
 IR Inten    --     46.7067                32.0801                24.9843

                     46                     47                     48
                      A                      A                      A
 Frequencies --   3090.1080              3093.7527              3110.0834
 Red. masses --      1.0899                 1.0903                 1.0926
 Frc consts  --      6.1315                 6.1487                 6.2266
 IR Inten    --     28.0089                79.6206                34.8124

                     49                     50                     51
                      A                      A                      A
 Frequencies --   3135.8862              3142.7859              3801.2353
 Red. masses --      1.1113                 1.1079                 1.0658
 Frc consts  --      6.4389                 6.4474                 9.0735
 IR Inten    --     25.3140                21.6555                13.1354

 - Thermochemistry -
 -------------------
 Temperature   298.150 Kelvin.  Pressure   1.00000 Atm.
 Atom     1 has atomic number  8 and mass  15.99491

 Molecular mass:   126.06808 amu.
 Principal axes and moments of inertia in atomic units:
                           1         2         3
     Eigenvalues --   617.888771113.763391451.96364
           X            0.99965   0.02645  -0.00050
           Y           -0.02645   0.99965  -0.00220
           Z            0.00045   0.00221   1.00000
 This molecule is an asymmetric top.
 Rotational symmetry number  1.
 Warning -- assumption of classical behavior for rotation
           may cause significant error
 Rotational temperatures (Kelvin)      0.14018     0.07777     0.05965
 Rotational constants (GHZ):           2.92082     1.62040     1.24297
 Zero-point vibrational energy     420107.8 (Joules/Mol)
                                  100.40816 (Kcal/Mol)
 Warning -- explicit consideration of  10 degrees of freedom as
           vibrations may cause significant error
 Vibrational temperatures:    110.05   231.60   284.69   415.95   490.46
          (Kelvin)            548.17   665.11   682.32   839.39   884.62
                             1083.82  1144.58  1161.65  1277.10  1290.69
                             1297.89  1380.76  1425.71  1456.89  1469.42
                             1494.19  1501.64  1551.21  1559.53  1600.96
                             1612.22  1644.53  1664.87  1708.34  1720.48
                             1733.67  1774.83  1793.10  1814.91  1873.92
                             1899.99  1928.52  2073.10  2152.12  2183.98
                             2205.28  4316.77  4405.39  4411.46  4414.10
                             4445.97  4451.21  4474.71  4511.84  4521.76
                             5469.12

 Zero-point correction=                           0.160011 (Hartree/Particle)
 Thermal correction to Energy=                    0.167677
 Thermal correction to Enthalpy=                  0.168621
 Thermal correction to Gibbs Free Energy=         0.127799
 Sum of electronic and zero-point Energies=           -422.951626
 Sum of electronic and thermal Energies=              -422.943960
 Sum of electronic and thermal Enthalpies=            -422.943016
 Sum of electronic and thermal Free Energies=         -422.983838

                     E (Thermal)             CV                S
                      KCal/Mol        Cal/Mol-Kelvin    Cal/Mol-Kelvin
 Total                  105.219             30.387             85.916
 Electronic               0.000              0.000              0.000
 Translational            0.889              2.981             40.409
 Rotational               0.889              2.981             28.393
 Vibrational            103.441             24.426             17.115
 Vibration     1          0.599              1.965              3.979
 Vibration     2          0.622              1.890              2.538
 Vibration     3          0.637              1.843              2.153
 Vibration     4          0.686              1.694              1.479
 Vibration     5          0.720              1.594              1.208
 Vibration     6          0.751              1.511              1.035
 Vibration     7          0.820              1.334              0.760
 Vibration     8          0.831              1.307              0.726
 Vibration     9          0.940              1.067              0.479
 Vibration    10          0.974              1.000              0.425

 Optimization completed.
    -- Stationary point found.
 Normal termination of Gaussian 09 at Tue Jan 28 04:47:11 2020.
