 Gaussian 09, Revision D.01,
 Gaussian 09:  ES64L-G09RevD.01 24-Apr-2013

 -----------------------------
 # b3lyp 6-31G(2df,p) opt Freq
 -----------------------------

 -----
 titel
 -----
 Symbolic Z-matrix:
 Charge =  0 Multiplicity = 1

 SCF Done:  E(RB3LYP) =  -423.126771083     A.U. after   13 cycles
 Optimization completed.
    -- Stationary point found.
 Normal termination of Gaussian 09 at Mon Jan 27 18:32:40 2020.

 ----------------------------------------------------------------------
 #N Geom=AllCheck Guess=TCheck SCRF=Check GenChk RB3LYP/6-31G(2df,p) Fr
 eq
 ----------------------------------------------------------------------

 Structure from the checkpoint file:  "/scratch/puck/g09_a503863e-2235-4679-9a2e-27363bbb3451/Gau-42580.chk"
 -----
 titel
 -----
 Charge =  0 Multiplicity = 1

                         Standard orientation:
 ---------------------------------------------------------------------
 Center     Atomic      Atomic             Coordinates (Angstroms)
 Number     Number       Type             X           Y           Z
 ---------------------------------------------------------------------
      1          6           0        1.527946   -1.477933   -0.625881
      2          6           0        0.384751   -0.707383   -0.026611
      3          8           0        0.439629   -0.614134    1.428535
      4          6           0        0.413996    0.838015    1.394299
      5          6           0        0.195689    0.829866   -0.123888
      6          8           0        1.021960    1.693820   -0.838716
      7          6           0       -1.235657    0.600740   -0.673105
      8          6           0       -2.077170   -0.263183    0.226668
      9          6           0       -1.034428   -0.924816   -0.620065
     10          1           0        1.479235   -2.528963   -0.319933
     11          1           0        1.487816   -1.443848   -1.719922
     12          1           0        2.486559   -1.067035   -0.298573
     13          1           0       -0.375238    1.258636    2.026731
     14          1           0        1.383655    1.265947    1.675169
     15          1           0        0.812742    1.611915   -1.775563
     16          1           0       -1.680184    1.214955   -1.449444
     17          1           0       -1.957537   -0.242201    1.303982
     18          1           0       -3.100479   -0.401657   -0.108178
     19          1           0       -1.280045   -1.677071   -1.361328
 ---------------------------------------------------------------------

 SCF Done:  E(RB3LYP) =  -423.126771083     A.U. after    1 cycles

 The electronic state is 1-A.
 Alpha  occ. eigenvalues --  -19.15183 -19.12815 -10.23768 -10.22957 -10.22110
 Alpha  occ. eigenvalues --  -10.19784 -10.19283 -10.19059 -10.17825  -1.04742
 Alpha  occ. eigenvalues --   -1.01955  -0.88045  -0.74970  -0.71886  -0.65549
 Alpha  occ. eigenvalues --   -0.60517  -0.58467  -0.54899  -0.50118  -0.49098
 Alpha  occ. eigenvalues --   -0.47617  -0.45681  -0.42158  -0.40781  -0.39944
 Alpha  occ. eigenvalues --   -0.38476  -0.37617  -0.36967  -0.34362  -0.30858
 Alpha  occ. eigenvalues --   -0.29917  -0.27763  -0.24611  -0.23300
 Alpha virt. eigenvalues --    0.06545   0.07558   0.09359   0.11488   0.12106
 Alpha virt. eigenvalues --    0.13271   0.14473   0.15901   0.16332   0.16722
 Alpha virt. eigenvalues --    0.17876   0.18689   0.20171   0.21688   0.23470

 Mulliken charges:
               1
     1  C   -0.481496
     2  C    0.365984
     3  O   -0.339939
     4  C   -0.143176
     5  C    0.337784
     6  O   -0.472996
     7  C   -0.158044
     8  C   -0.297963
     9  C   -0.092600
    10  H    0.130592
    11  H    0.113031
    12  H    0.131197
    13  H    0.101992
    14  H    0.109955
    15  H    0.283322
    16  H    0.084111
    17  H    0.133507
    18  H    0.111938
    19  H    0.082802
 Sum of Mulliken charges =   0.00000

 Dipole moment (field-independent basis, Debye):
    X=             -0.9602    Y=              0.1476    Z=             -2.2055  Tot=              2.4100
 Quadrupole moment (field-independent basis, Debye-Ang):
   XX=            -52.5219   YY=            -54.8831   ZZ=            -50.6782
   XY=             -1.2781   XZ=             -0.2296   YZ=              1.7575

  Exact polarizability:  78.382  -0.067  72.255   0.409   3.667  71.648
 Approx polarizability: 106.693   1.591 110.609   0.341   1.462 108.432

                      1                      2                      3
                      A                      A                      A
 Frequencies --    168.8880               175.5857               190.8649
 Red. masses --      1.0597                 2.8723                 3.0839
 Frc consts  --      0.0178                 0.0522                 0.0662
 IR Inten    --      0.1501                 0.2994                 1.1025

                      4                      5                      6
                      A                      A                      A
 Frequencies --    278.7513               298.1823               309.6381
 Red. masses --      1.3364                 2.7805                 2.0018
 Frc consts  --      0.0612                 0.1457                 0.1131
 IR Inten    --     52.4820                 1.0779                34.4451

                      7                      8                      9
                      A                      A                      A
 Frequencies --    349.9922               383.1997               499.6673
 Red. masses --      3.0216                 3.8008                 2.8411
 Frc consts  --      0.2181                 0.3288                 0.4179
 IR Inten    --      9.0976                15.4126                 3.0512

                     10                     11                     12
                      A                      A                      A
 Frequencies --    531.3761               587.4525               688.0206
 Red. masses --      3.4667                 3.8764                 3.6585
 Frc consts  --      0.5767                 0.7882                 1.0204
 IR Inten    --      3.9926                 1.7196                 1.5037

                     13                     14                     15
                      A                      A                      A
 Frequencies --    701.4559               779.3018               820.6643
 Red. masses --      3.6403                 1.9260                 1.8862
 Frc consts  --      1.0553                 0.6891                 0.7485
 IR Inten    --      4.9141                12.8806                 4.7876

                     16                     17                     18
                      A                      A                      A
 Frequencies --    869.0005               901.5750               930.0788
 Red. masses --      2.4538                 1.7981                 2.2879
 Frc consts  --      1.0918                 0.8611                 1.1661
 IR Inten    --     29.2299                 9.3677                 7.0287

                     19                     20                     21
                      A                      A                      A
 Frequencies --    946.9093               975.7719               986.0652
 Red. masses --      2.1844                 3.6651                 1.8538
 Frc consts  --      1.1540                 2.0560                 1.0620
 IR Inten    --      6.7151                72.3739                 6.9023

                     22                     23                     24
                      A                      A                      A
 Frequencies --   1004.0074              1037.8833              1050.7716
 Red. masses --      1.6884                 2.1399                 1.1940
 Frc consts  --      1.0027                 1.3581                 0.7768
 IR Inten    --     18.5151                 3.9627                 2.2902

                     25                     26                     27
                      A                      A                      A
 Frequencies --   1089.9949              1106.1443              1124.2133
 Red. masses --      1.3386                 1.8752                 2.4156
 Frc consts  --      0.9370                 1.3519                 1.7987
 IR Inten    --      2.2392                17.6645                36.0950

                     28                     29                     30
                      A                      A                      A
 Frequencies --   1155.1435              1163.3274              1206.2399
 Red. masses --      1.3251                 1.5518                 2.0599
 Frc consts  --      1.0418                 1.2373                 1.7659
 IR Inten    --      8.6538                12.7310                19.3338

                     31                     32                     33
                      A                      A                      A
 Frequencies --   1228.3273              1264.6393              1309.3870
 Red. masses --      2.1961                 3.7031                 1.7647
 Frc consts  --      1.9522                 3.4894                 1.7827
 IR Inten    --     25.4996                31.8793                 5.1184

                     34                     35                     36
                      A                      A                      A
 Frequencies --   1331.4129              1359.6963              1400.4726
 Red. masses --      1.9403                 2.4985                 1.7953
 Frc consts  --      2.0264                 2.7216                 2.0746
 IR Inten    --     44.5018                62.0558                 6.0495

                     37                     38                     39
                      A                      A                      A
 Frequencies --   1409.5326              1479.8420              1484.3758
 Red. masses --      1.5541                 1.0669                 1.0900
 Frc consts  --      1.8192                 1.3765                 1.4150
 IR Inten    --      6.4563                 6.3789                 3.4853

                     40                     41                     42
                      A                      A                      A
 Frequencies --   1488.4412              1514.4310              3024.8438
 Red. masses --      1.1612                 1.1087                 1.0550
 Frc consts  --      1.5158                 1.4981                 5.6871
 IR Inten    --      3.5277                 2.3588                62.8345

                     43                     44                     45
                      A                      A                      A
 Frequencies --   3032.8491              3076.8400              3097.5866
 Red. masses --      1.0359                 1.1109                 1.1001
 Frc consts  --      5.6140                 6.1961                 6.2193
 IR Inten    --     13.2035                30.2478                16.1761

                     46                     47                     48
                      A                      A                      A
 Frequencies --   3118.9243              3132.5413              3160.0896
 Red. masses --      1.1011                 1.0537                 1.0893
 Frc consts  --      6.3107                 6.0920                 6.4093
 IR Inten    --     15.3068                16.1797                19.9312

                     49                     50                     51
                      A                      A                      A
 Frequencies --   3172.8128              3216.3330              3805.6917
 Red. masses --      1.0971                 1.1150                 1.0658
 Frc consts  --      6.5071                 6.7962                 9.0946
 IR Inten    --     15.5062                 6.4273                17.7810

 - Thermochemistry -
 -------------------
 Temperature   298.150 Kelvin.  Pressure   1.00000 Atm.
 Atom     1 has atomic number  6 and mass  12.00000

 Molecular mass:   126.06808 amu.
 Principal axes and moments of inertia in atomic units:
                           1         2         3
     Eigenvalues --   848.19381 956.484011084.75771
           X            0.99156  -0.12476  -0.03515
           Y            0.12883   0.97852   0.16093
           Z            0.01432  -0.16410   0.98634
 This molecule is an asymmetric top.
 Rotational symmetry number  1.
 Warning -- assumption of classical behavior for rotation
           may cause significant error
 Rotational temperatures (Kelvin)      0.10212     0.09055     0.07985
 Rotational constants (GHZ):           2.12775     1.88685     1.66373
 Zero-point vibrational energy     415219.2 (Joules/Mol)
                                   99.23978 (Kcal/Mol)
 Warning -- explicit consideration of  11 degrees of freedom as
           vibrations may cause significant error
 Vibrational temperatures:    242.99   252.63   274.61   401.06   429.02
          (Kelvin)            445.50   503.56   551.34   718.91   764.53
                              845.21   989.91  1009.24  1121.24  1180.75
                             1250.30  1297.16  1338.17  1362.39  1403.92
                             1418.73  1444.54  1493.28  1511.82  1568.26
                             1591.49  1617.49  1661.99  1673.77  1735.51
                             1767.29  1819.53  1883.91  1915.60  1956.30
                             2014.97  2028.00  2129.16  2135.68  2141.53
                             2178.93  4352.07  4363.59  4426.88  4456.73
                             4487.43  4507.02  4546.66  4564.96  4627.58
                             5475.53

 Zero-point correction=                           0.158149 (Hartree/Particle)
 Thermal correction to Energy=                    0.166319
 Thermal correction to Enthalpy=                  0.167264
 Thermal correction to Gibbs Free Energy=         0.126151
 Sum of electronic and zero-point Energies=           -422.968622
 Sum of electronic and thermal Energies=              -422.960452
 Sum of electronic and thermal Enthalpies=            -422.959507
 Sum of electronic and thermal Free Energies=         -423.000621

                     E (Thermal)             CV                S
                      KCal/Mol        Cal/Mol-Kelvin    Cal/Mol-Kelvin
 Total                  104.367             32.699             86.530
 Electronic               0.000              0.000              0.000
 Translational            0.889              2.981             40.409
 Rotational               0.889              2.981             28.267
 Vibrational            102.590             26.737             17.854
 Vibration     1          0.625              1.881              2.448
 Vibration     2          0.628              1.872              2.375
 Vibration     3          0.634              1.852              2.219
 Vibration     4          0.679              1.713              1.541
 Vibration     5          0.691              1.677              1.427
 Vibration     6          0.699              1.655              1.364
 Vibration     7          0.727              1.575              1.166
 Vibration     8          0.752              1.506              1.027
 Vibration     9          0.855              1.251              0.659
 Vibration    10          0.886              1.181              0.584
 Vibration    11          0.945              1.059              0.472

 Optimization completed.
    -- Stationary point found.
 Normal termination of Gaussian 09 at Mon Jan 27 19:29:42 2020.
