 Gaussian 09, Revision D.01,
 Gaussian 09:  ES64L-G09RevD.01 24-Apr-2013

 -----------------------------
 # b3lyp 6-31G(2df,p) opt Freq
 -----------------------------

 -----
 titel
 -----
 Symbolic Z-matrix:
 Charge =  0 Multiplicity = 1

 SCF Done:  E(RB3LYP) =  -423.170703125     A.U. after   14 cycles
 Optimization completed.
    -- Stationary point found.
 Normal termination of Gaussian 09 at Tue Jan 28 02:06:35 2020.

 ----------------------------------------------------------------------
 #N Geom=AllCheck Guess=TCheck SCRF=Check GenChk RB3LYP/6-31G(2df,p) Fr
 eq
 ----------------------------------------------------------------------

 Structure from the checkpoint file:  "/scratch/puck/g09_8758d5dc-8cdf-436a-8d77-964cddbe9ff6/Gau-75947.chk"
 -----
 titel
 -----
 Charge =  0 Multiplicity = 1

                         Standard orientation:
 ---------------------------------------------------------------------
 Center     Atomic      Atomic             Coordinates (Angstroms)
 Number     Number       Type             X           Y           Z
 ---------------------------------------------------------------------
      1          6           0        2.868233   -1.061441   -0.526838
      2          6           0        1.965935    0.107180   -0.208610
      3          6           0        1.613702    0.457491    1.193716
      4          6           0        0.544588   -0.152184    0.290151
      5          6           0       -0.519619    0.750398   -0.211945
      6          8           0       -0.332178    1.923591   -0.471206
      7          6           0       -1.899174    0.173691   -0.398631
      8          6           0       -2.553744   -0.583161    0.688197
      9          8           0       -2.044692   -1.247810   -0.458518
     10          1           0        2.733655   -1.874004    0.194736
     11          1           0        2.665983   -1.462370   -1.525416
     12          1           0        3.920733   -0.758881   -0.493838
     13          1           0        2.025783    0.952780   -0.888098
     14          1           0        1.985749   -0.170403    1.996636
     15          1           0        1.478325    1.504885    1.438817
     16          1           0        0.261709   -1.184484    0.453842
     17          1           0       -2.523808    0.743861   -1.083594
     18          1           0       -2.014334   -0.764946    1.616364
     19          1           0       -3.638364   -0.544524    0.772111
 ---------------------------------------------------------------------

 SCF Done:  E(RB3LYP) =  -423.170703125     A.U. after    1 cycles

 The electronic state is 1-A.
 Alpha  occ. eigenvalues --  -19.17116 -19.12631 -10.26903 -10.25254 -10.24904
 Alpha  occ. eigenvalues --  -10.20348 -10.19670 -10.19575 -10.18407  -1.09143
 Alpha  occ. eigenvalues --   -1.03654  -0.87011  -0.72914  -0.70967  -0.67072
 Alpha  occ. eigenvalues --   -0.63111  -0.58151  -0.54099  -0.51760  -0.50760
 Alpha  occ. eigenvalues --   -0.46470  -0.45192  -0.42446  -0.41689  -0.40641
 Alpha  occ. eigenvalues --   -0.39840  -0.39476  -0.38119  -0.35680  -0.31906
 Alpha  occ. eigenvalues --   -0.30261  -0.29313  -0.28497  -0.24694
 Alpha virt. eigenvalues --   -0.02622   0.09418   0.10117   0.10369   0.11513
 Alpha virt. eigenvalues --    0.12224   0.13425   0.14247   0.15310   0.16515
 Alpha virt. eigenvalues --    0.16622   0.17720   0.18106   0.20614   0.22695

 Mulliken charges:
               1
     1  C   -0.411633
     2  C    0.022863
     3  C   -0.283605
     4  C   -0.145346
     5  C    0.361882
     6  O   -0.346201
     7  C   -0.010436
     8  C   -0.178972
     9  O   -0.218641
    10  H    0.116423
    11  H    0.126154
    12  H    0.123941
    13  H    0.112376
    14  H    0.114512
    15  H    0.134648
    16  H    0.105950
    17  H    0.116966
    18  H    0.127438
    19  H    0.131680
 Sum of Mulliken charges =   0.00000

 Dipole moment (field-independent basis, Debye):
    X=              0.0208    Y=             -1.3347    Z=              1.5212  Tot=              2.0238
 Quadrupole moment (field-independent basis, Debye-Ang):
   XX=            -46.6976   YY=            -60.5163   ZZ=            -51.4212
   XY=             -1.8631   XZ=             -2.1664   YZ=             -0.6808

  Exact polarizability:  95.699  -0.083  71.546  -0.905  -3.717  67.417
 Approx polarizability: 118.306   3.322 118.919  -1.066  -7.824 103.753

                      1                      2                      3
                      A                      A                      A
 Frequencies --     50.1916                84.1770               144.7716
 Red. masses --      3.2699                 3.1945                 3.3876
 Frc consts  --      0.0049                 0.0133                 0.0418
 IR Inten    --      0.5398                 5.2921                 0.9984

                      4                      5                      6
                      A                      A                      A
 Frequencies --    165.0963               211.8025               257.5300
 Red. masses --      3.7344                 1.2006                 3.5595
 Frc consts  --      0.0600                 0.0317                 0.1391
 IR Inten    --      2.7645                 0.6515                10.3460

                      7                      8                      9
                      A                      A                      A
 Frequencies --    275.9557               335.1198               400.1749
 Red. masses --      3.6495                 3.1172                 2.1824
 Frc consts  --      0.1637                 0.2063                 0.2059
 IR Inten    --      6.0407                 1.9290                 1.1305

                     10                     11                     12
                      A                      A                      A
 Frequencies --    486.2435               556.4029               727.0638
 Red. masses --      7.7121                 3.3759                 4.6134
 Frc consts  --      1.0743                 0.6158                 1.4369
 IR Inten    --      0.6580                13.9479                 3.0761

                     13                     14                     15
                      A                      A                      A
 Frequencies --    771.0743               800.3799               864.3551
 Red. masses --      2.2546                 2.6340                 2.9380
 Frc consts  --      0.7898                 0.9942                 1.2933
 IR Inten    --      4.4101                 6.4286                18.7037

                     16                     17                     18
                      A                      A                      A
 Frequencies --    872.9143               895.7960               901.9116
 Red. masses --      4.7540                 1.7681                 1.7761
 Frc consts  --      2.1343                 0.8359                 0.8512
 IR Inten    --     13.1479                 2.5785                39.5462

                     19                     20                     21
                      A                      A                      A
 Frequencies --    942.6833               978.2262              1010.4419
 Red. masses --      1.9622                 1.6533                 2.1132
 Frc consts  --      1.0274                 0.9322                 1.2712
 IR Inten    --     20.7941                23.0906                22.9073

                     22                     23                     24
                      A                      A                      A
 Frequencies --   1073.4593              1088.8025              1102.4693
 Red. masses --      1.3102                 1.2027                 1.5721
 Frc consts  --      0.8895                 0.8401                 1.1258
 IR Inten    --     15.8043                 0.8708                21.9062

                     25                     26                     27
                      A                      A                      A
 Frequencies --   1124.5104              1144.5642              1151.1704
 Red. masses --      1.1577                 1.4326                 1.3899
 Frc consts  --      0.8626                 1.1058                 1.0852
 IR Inten    --      2.1087                 7.3918                 3.4643

                     28                     29                     30
                      A                      A                      A
 Frequencies --   1165.9908              1194.1619              1205.5367
 Red. masses --      1.3341                 1.6013                 2.0422
 Frc consts  --      1.0686                 1.3454                 1.7487
 IR Inten    --      0.0900                13.8706                30.3969

                     31                     32                     33
                      A                      A                      A
 Frequencies --   1235.3757              1261.6293              1356.1995
 Red. masses --      1.8090                 1.5433                 1.5909
 Frc consts  --      1.6266                 1.4473                 1.7240
 IR Inten    --      0.6532                11.7542                45.4504

                     34                     35                     36
                      A                      A                      A
 Frequencies --   1385.9537              1413.8232              1435.6529
 Red. masses --      2.3037                 1.2785                 1.6334
 Frc consts  --      2.6072                 1.5058                 1.9835
 IR Inten    --     10.5505                25.9586                49.8290

                     37                     38                     39
                      A                      A                      A
 Frequencies --   1477.0614              1491.3711              1501.5180
 Red. masses --      1.4266                 1.0609                 1.1109
 Frc consts  --      1.8338                 1.3903                 1.4756
 IR Inten    --     26.1489                 3.5289                10.0829

                     40                     41                     42
                      A                      A                      A
 Frequencies --   1520.6461              1774.6212              3029.9493
 Red. masses --      1.2239                11.0370                 1.0352
 Frc consts  --      1.6675                20.4792                 5.5996
 IR Inten    --      1.2225               136.0436                29.2810

                     43                     44                     45
                      A                      A                      A
 Frequencies --   3089.0995              3094.3436              3100.2727
 Red. masses --      1.0493                 1.1008                 1.1009
 Frc consts  --      5.8995                 6.2100                 6.2347
 IR Inten    --     21.3304                20.2971                19.4178

                     46                     47                     48
                      A                      A                      A
 Frequencies --   3132.7644              3140.9326              3157.4375
 Red. masses --      1.0538                 1.0899                 1.0881
 Frc consts  --      6.0932                 6.3348                 6.3911
 IR Inten    --     11.9713                10.1678                 7.0401

                     49                     50                     51
                      A                      A                      A
 Frequencies --   3180.8136              3194.4110              3228.3489
 Red. masses --      1.1199                 1.0891                 1.1166
 Frc consts  --      6.6756                 6.5478                 6.8567
 IR Inten    --     21.5921                 1.8313                 3.7178

 - Thermochemistry -
 -------------------
 Temperature   298.150 Kelvin.  Pressure   1.00000 Atm.
 Atom     1 has atomic number  6 and mass  12.00000

 Molecular mass:   126.06808 amu.
 Principal axes and moments of inertia in atomic units:
                           1         2         3
     Eigenvalues --   624.613701744.960982004.86503
           X            0.99969  -0.02219  -0.01097
           Y            0.02223   0.99975   0.00306
           Z            0.01090  -0.00330   0.99994
 This molecule is an asymmetric top.
 Rotational symmetry number  1.
 Warning -- assumption of classical behavior for rotation
           may cause significant error
 Rotational temperatures (Kelvin)      0.13867     0.04964     0.04320
 Rotational constants (GHZ):           2.88937     1.03426     0.90018
 Zero-point vibrational energy     413819.4 (Joules/Mol)
                                   98.90521 (Kcal/Mol)
 Warning -- explicit consideration of  11 degrees of freedom as
           vibrations may cause significant error
 Vibrational temperatures:     72.21   121.11   208.29   237.54   304.74
          (Kelvin)            370.53   397.04   482.16   575.76   699.60
                              800.54  1046.08  1109.40  1151.57  1243.61
                             1255.93  1288.85  1297.65  1356.31  1407.45
                             1453.80  1544.47  1566.54  1586.21  1617.92
                             1646.77  1656.28  1677.60  1718.13  1734.50
                             1777.43  1815.20  1951.27  1994.08  2034.17
                             2065.58  2125.16  2145.75  2160.35  2187.87
                             2553.28  4359.42  4444.52  4452.06  4460.60
                             4507.34  4519.10  4542.84  4576.48  4596.04
                             4644.87

 Zero-point correction=                           0.157615 (Hartree/Particle)
 Thermal correction to Energy=                    0.166788
 Thermal correction to Enthalpy=                  0.167732
 Thermal correction to Gibbs Free Energy=         0.122882
 Sum of electronic and zero-point Energies=           -423.013088
 Sum of electronic and thermal Energies=              -423.003915
 Sum of electronic and thermal Enthalpies=            -423.002971
 Sum of electronic and thermal Free Energies=         -423.047821

                     E (Thermal)             CV                S
                      KCal/Mol        Cal/Mol-Kelvin    Cal/Mol-Kelvin
 Total                  104.661             33.259             94.396
 Electronic               0.000              0.000              0.000
 Translational            0.889              2.981             40.409
 Rotational               0.889              2.981             29.170
 Vibrational            102.884             27.298             24.817
 Vibration     1          0.595              1.978              4.810
 Vibration     2          0.601              1.960              3.791
 Vibration     3          0.616              1.908              2.740
 Vibration     4          0.623              1.885              2.491
 Vibration     5          0.643              1.823              2.028
 Vibration     6          0.667              1.750              1.678
 Vibration     7          0.678              1.718              1.559
 Vibration     8          0.716              1.605              1.235
 Vibration     9          0.766              1.470              0.962
 Vibration    10          0.842              1.281              0.693
 Vibration    11          0.912              1.126              0.531

 Optimization completed.
    -- Stationary point found.
 Normal termination of Gaussian 09 at Tue Jan 28 02:44:21 2020.
