 Gaussian 09, Revision D.01,
 Gaussian 09:  ES64L-G09RevD.01 24-Apr-2013

 -----------------------------
 # b3lyp 6-31G(2df,p) opt Freq
 -----------------------------

 -----
 titel
 -----
 Symbolic Z-matrix:
 Charge =  0 Multiplicity = 1

 SCF Done:  E(RB3LYP) =  -423.240702739     A.U. after   14 cycles
 Optimization completed.
    -- Stationary point found.
 Normal termination of Gaussian 09 at Mon Jan 27 16:10:59 2020.

 ----------------------------------------------------------------------
 #N Geom=AllCheck Guess=TCheck SCRF=Check GenChk RB3LYP/6-31G(2df,p) Fr
 eq
 ----------------------------------------------------------------------

 Structure from the checkpoint file:  "/scratch/puck/g09_4fc4f849-985c-4447-a261-a53e4e1276b6/Gau-83356.chk"
 -----
 titel
 -----
 Charge =  0 Multiplicity = 1

                         Standard orientation:
 ---------------------------------------------------------------------
 Center     Atomic      Atomic             Coordinates (Angstroms)
 Number     Number       Type             X           Y           Z
 ---------------------------------------------------------------------
      1          6           0       -1.854573   -0.472307   -1.255451
      2          6           0       -1.053711   -0.096602    0.000280
      3          6           0       -1.832888   -0.459394    1.273549
      4          8           0        0.113936   -0.962673   -0.007412
      5          6           0        1.404377   -0.566640   -0.001736
      6          8           0        2.269269   -1.400731   -0.004060
      7          6           0        1.721320    0.920039    0.006051
      8          6           0        0.534549    1.829408   -0.007872
      9          6           0       -0.706858    1.363935   -0.010186
     10          1           0       -2.079990   -1.542034   -1.248417
     11          1           0       -2.796127    0.083929   -1.289574
     12          1           0       -1.282281   -0.240790   -2.157389
     13          1           0       -1.244176   -0.221054    2.163086
     14          1           0       -2.772382    0.099467    1.319635
     15          1           0       -2.060852   -1.528625    1.280071
     16          1           0        2.353693    1.102527    0.884468
     17          1           0        2.377825    1.105836   -0.853481
     18          1           0        0.723986    2.899248   -0.015321
     19          1           0       -1.558640    2.038089   -0.019116
 ---------------------------------------------------------------------

 SCF Done:  E(RB3LYP) =  -423.240702739     A.U. after    1 cycles

 The electronic state is 1-A.
 Alpha  occ. eigenvalues --  -19.17345 -19.10941 -10.30201 -10.26437 -10.20540
 Alpha  occ. eigenvalues --  -10.20075 -10.19619 -10.18688 -10.18678  -1.08943
 Alpha  occ. eigenvalues --   -1.00776  -0.82913  -0.79950  -0.71222  -0.70234
 Alpha  occ. eigenvalues --   -0.62967  -0.61318  -0.51371  -0.50208  -0.47842
 Alpha  occ. eigenvalues --   -0.47130  -0.43930  -0.43461  -0.42679  -0.40563
 Alpha  occ. eigenvalues --   -0.40447  -0.38307  -0.38213  -0.36968  -0.36273
 Alpha  occ. eigenvalues --   -0.32450  -0.28683  -0.26367  -0.25766
 Alpha virt. eigenvalues --    0.00580   0.02122   0.07261   0.10375   0.11331
 Alpha virt. eigenvalues --    0.13702   0.14300   0.15351   0.16298   0.17152
 Alpha virt. eigenvalues --    0.18120   0.18874   0.19289   0.19762   0.21363

 Mulliken charges:
               1
     1  C   -0.394759
     2  C    0.298281
     3  C   -0.394508
     4  O   -0.265404
     5  C    0.404362
     6  O   -0.330023
     7  C   -0.411361
     8  C   -0.091171
     9  C   -0.072164
    10  H    0.132649
    11  H    0.117359
    12  H    0.126747
    13  H    0.126396
    14  H    0.117503
    15  H    0.132580
    16  H    0.150064
    17  H    0.150012
    18  H    0.103269
    19  H    0.100170
 Sum of Mulliken charges =   0.00000

 Dipole moment (field-independent basis, Debye):
    X=             -2.6501    Y=              3.2699    Z=              0.0225  Tot=              4.2090
 Quadrupole moment (field-independent basis, Debye-Ang):
   XX=            -54.6233   YY=            -55.6270   ZZ=            -52.2745
   XY=              6.8619   XZ=              0.0325   YZ=             -0.0350

  Exact polarizability:  98.642   3.048  76.375   0.053  -0.042  59.668
 Approx polarizability: 146.213   1.233 111.408   0.096  -0.019  86.354

                      1                      2                      3
                      A                      A                      A
 Frequencies --     22.3350                69.3404               215.1794
 Red. masses --      2.7649                 4.5333                 1.0345
 Frc consts  --      0.0008                 0.0128                 0.0282
 IR Inten    --      2.4494                 1.9703                 0.0001

                      4                      5                      6
                      A                      A                      A
 Frequencies --    233.1037               251.6353               312.9407
 Red. masses --      2.3718                 1.0526                 2.6339
 Frc consts  --      0.0759                 0.0393                 0.1520
 IR Inten    --      0.0676                 0.0470                 0.4032

                      7                      8                      9
                      A                      A                      A
 Frequencies --    337.6300               391.0606               473.5604
 Red. masses --      2.8785                 3.1960                 6.1142
 Frc consts  --      0.1933                 0.2880                 0.8079
 IR Inten    --      1.8252                 3.8409                 1.7269

                     10                     11                     12
                      A                      A                      A
 Frequencies --    502.5836               504.2126               531.3617
 Red. masses --      2.5253                 3.3082                 4.9240
 Frc consts  --      0.3758                 0.4955                 0.8191
 IR Inten    --      0.8651                 1.4207                 6.7279

                     13                     14                     15
                      A                      A                      A
 Frequencies --    578.7324               663.6928               743.3359
 Red. masses --      3.2503                 5.4294                 1.4287
 Frc consts  --      0.6414                 1.4091                 0.4651
 IR Inten    --      2.3793                 0.8208                35.7968

                     16                     17                     18
                      A                      A                      A
 Frequencies --    813.9233               893.4281               930.9150
 Red. masses --      3.2106                 3.4637                 1.5146
 Frc consts  --      1.2532                 1.6290                 0.7733
 IR Inten    --      1.9460                12.7191                 0.0483

                     19                     20                     21
                      A                      A                      A
 Frequencies --    944.9090               971.2355               980.3978
 Red. masses --      2.5214                 1.9732                 2.3497
 Frc consts  --      1.3264                 1.0967                 1.3307
 IR Inten    --      7.8183                 0.0935                 9.7342

                     22                     23                     24
                      A                      A                      A
 Frequencies --   1006.5410              1023.0181              1030.1446
 Red. masses --      1.3080                 1.3403                 2.3977
 Frc consts  --      0.7807                 0.8265                 1.4992
 IR Inten    --      0.0165                 0.1524                34.1714

                     25                     26                     27
                      A                      A                      A
 Frequencies --   1136.1720              1193.6416              1214.1038
 Red. masses --      1.6843                 3.2415                 1.1630
 Frc consts  --      1.2810                 2.7211                 1.0100
 IR Inten    --    146.9947                24.7979                 0.4048

                     28                     29                     30
                      A                      A                      A
 Frequencies --   1220.0974              1237.5285              1302.2470
 Red. masses --      2.2126                 1.7321                 3.6988
 Frc consts  --      1.9406                 1.5629                 3.6958
 IR Inten    --      1.0845               119.4368               133.8481

                     31                     32                     33
                      A                      A                      A
 Frequencies --   1352.9490              1395.2618              1407.8840
 Red. masses --      1.8481                 1.2451                 1.3945
 Frc consts  --      1.9931                 1.4281                 1.6286
 IR Inten    --     29.1452                 7.5199                 1.3265

                     34                     35                     36
                      A                      A                      A
 Frequencies --   1427.1715              1448.6658              1474.4812
 Red. masses --      1.4235                 1.0767                 1.0477
 Frc consts  --      1.7083                 1.3313                 1.3421
 IR Inten    --      6.7009                 4.6448                 1.2161

                     37                     38                     39
                      A                      A                      A
 Frequencies --   1481.1655              1494.0799              1505.0938
 Red. masses --      1.0457                 1.0669                 1.0621
 Frc consts  --      1.3517                 1.4032                 1.4176
 IR Inten    --      0.8023                 1.7714                 3.9439

                     40                     41                     42
                      A                      A                      A
 Frequencies --   1751.1889              1836.8092              3032.1810
 Red. masses --      7.3508                12.7639                 1.0612
 Frc consts  --     13.2816                25.3724                 5.7484
 IR Inten    --      4.6913               345.7129                11.9089

                     43                     44                     45
                      A                      A                      A
 Frequencies --   3042.2068              3046.5483              3054.3851
 Red. masses --      1.0339                 1.0345                 1.0983
 Frc consts  --      5.6375                 5.6570                 6.0372
 IR Inten    --     13.5064                13.3718                 4.1969

                     46                     47                     48
                      A                      A                      A
 Frequencies --   3118.0987              3123.3934              3126.3276
 Red. masses --      1.1019                 1.1017                 1.1034
 Frc consts  --      6.3119                 6.3326                 6.3540
 IR Inten    --      2.4044                28.8465                10.6247

                     49                     50                     51
                      A                      A                      A
 Frequencies --   3129.3116              3157.1703              3179.5976
 Red. masses --      1.1028                 1.0837                 1.0978
 Frc consts  --      6.3630                 6.3644                 6.5389
 IR Inten    --     24.8198                 6.2875                18.0310

 - Thermochemistry -
 -------------------
 Temperature   298.150 Kelvin.  Pressure   1.00000 Atm.
 Atom     1 has atomic number  6 and mass  12.00000

 Molecular mass:   126.06808 amu.
 Principal axes and moments of inertia in atomic units:
                           1         2         3
     Eigenvalues --   725.349141228.600591554.25314
           X            0.99735   0.07280   0.00020
           Y           -0.07280   0.99735  -0.00017
           Z           -0.00021   0.00015   1.00000
 This molecule is an asymmetric top.
 Rotational symmetry number  1.
 Warning -- assumption of classical behavior for rotation
           may cause significant error
 Rotational temperatures (Kelvin)      0.11941     0.07050     0.05573
 Rotational constants (GHZ):           2.48810     1.46894     1.16116
 Zero-point vibrational energy     414583.7 (Joules/Mol)
                                   99.08788 (Kcal/Mol)
 Warning -- explicit consideration of  13 degrees of freedom as
           vibrations may cause significant error
 Vibrational temperatures:     32.14    99.77   309.59   335.38   362.05
          (Kelvin)            450.25   485.77   562.65   681.35   723.10
                              725.45   764.51   832.67   954.90  1069.49
                             1171.05  1285.44  1339.38  1359.51  1397.39
                             1410.57  1448.19  1471.89  1482.15  1634.70
                             1717.38  1746.82  1755.45  1780.53  1873.64
                             1946.59  2007.47  2025.63  2053.38  2084.30
                             2121.45  2131.06  2149.65  2165.49  2519.57
                             2642.76  4362.63  4377.05  4383.30  4394.57
                             4486.24  4493.86  4498.08  4502.38  4542.46
                             4574.73

 Zero-point correction=                           0.157907 (Hartree/Particle)
 Thermal correction to Energy=                    0.166907
 Thermal correction to Enthalpy=                  0.167851
 Thermal correction to Gibbs Free Energy=         0.123194
 Sum of electronic and zero-point Energies=           -423.082796
 Sum of electronic and thermal Energies=              -423.073796
 Sum of electronic and thermal Enthalpies=            -423.072852
 Sum of electronic and thermal Free Energies=         -423.117508

                     E (Thermal)             CV                S
                      KCal/Mol        Cal/Mol-Kelvin    Cal/Mol-Kelvin
 Total                  104.735             33.700             93.988
 Electronic               0.000              0.000              0.000
 Translational            0.889              2.981             40.409
 Rotational               0.889              2.981             28.717
 Vibrational            102.958             27.739             24.862
 Vibration     1          0.593              1.985              6.415
 Vibration     2          0.598              1.969              4.172
 Vibration     3          0.645              1.818              1.999
 Vibration     4          0.654              1.790              1.855
 Vibration     5          0.664              1.760              1.719
 Vibration     6          0.701              1.649              1.347
 Vibration     7          0.718              1.600              1.223
 Vibration     8          0.759              1.489              0.996
 Vibration     9          0.830              1.309              0.728
 Vibration    10          0.858              1.244              0.652
 Vibration    11          0.859              1.241              0.648
 Vibration    12          0.886              1.181              0.584
 Vibration    13          0.935              1.077              0.488

 Normal termination of Gaussian 09 at Mon Jan 27 16:53:19 2020.
 Normal termination of Gaussian 09 at Mon Jan 27 16:07:03 2020.
