 Gaussian 09, Revision D.01,
 Gaussian 09:  ES64L-G09RevD.01 24-Apr-2013

 -----------------------------
 # b3lyp 6-31G(2df,p) opt Freq
 -----------------------------

 -----
 titel
 -----
 Symbolic Z-matrix:
 Charge =  0 Multiplicity = 1

 SCF Done:  E(RB3LYP) =  -423.213195802     A.U. after   13 cycles
 Optimization completed.
    -- Stationary point found.
 Normal termination of Gaussian 09 at Mon Jan 27 12:21:07 2020.

 ----------------------------------------------------------------------
 #N Geom=AllCheck Guess=TCheck SCRF=Check GenChk RB3LYP/6-31G(2df,p) Fr
 eq
 ----------------------------------------------------------------------

 Structure from the checkpoint file:  "/scratch/puck/g09_e4087a2b-1490-40a9-b25c-2bc0f34b272a/Gau-152625.chk"
 -----
 titel
 -----
 Charge =  0 Multiplicity = 1

                         Standard orientation:
 ---------------------------------------------------------------------
 Center     Atomic      Atomic             Coordinates (Angstroms)
 Number     Number       Type             X           Y           Z
 ---------------------------------------------------------------------
      1          6           0       -1.850130   -0.537016   -0.158053
      2          8           0       -1.611579    0.871120   -0.259734
      3          6           0       -0.348952    1.188344    0.311497
      4          6           0        0.793038    1.253635   -0.742614
      5          6           0        1.490871   -0.096474   -0.494132
      6          6           0        0.548939   -1.270266   -0.847574
      7          6           0       -0.529372   -1.161329    0.275678
      8          6           0        0.111681   -0.043817    1.146677
      9          8           0        1.511900   -0.146573    0.944143
     10          1           0       -2.638177   -0.723321    0.586786
     11          1           0       -2.209573   -0.906710   -1.125360
     12          1           0       -0.457296    2.114129    0.880191
     13          1           0        0.390057    1.383436   -1.749148
     14          1           0        1.485937    2.070823   -0.525497
     15          1           0        2.507285   -0.182516   -0.877666
     16          1           0        0.125497   -1.189365   -1.852329
     17          1           0        1.089272   -2.217057   -0.777654
     18          1           0       -0.669456   -2.103570    0.806732
     19          1           0       -0.122555   -0.040683    2.209804
 ---------------------------------------------------------------------

 SCF Done:  E(RB3LYP) =  -423.213195802     A.U. after    1 cycles

 The electronic state is 1-A.
 Alpha  occ. eigenvalues --  -19.13860 -19.13300 -10.23102 -10.22947 -10.22792
 Alpha  occ. eigenvalues --  -10.22589 -10.19140 -10.18525 -10.17730  -1.05447
 Alpha  occ. eigenvalues --   -1.02339  -0.79490  -0.76919  -0.73725  -0.67577
 Alpha  occ. eigenvalues --   -0.58035  -0.57379  -0.56610  -0.53561  -0.47617
 Alpha  occ. eigenvalues --   -0.46502  -0.45002  -0.43722  -0.41391  -0.39656
 Alpha  occ. eigenvalues --   -0.39162  -0.36561  -0.35162  -0.34276  -0.32593
 Alpha  occ. eigenvalues --   -0.31142  -0.30782  -0.26068  -0.23929
 Alpha virt. eigenvalues --    0.07944   0.09042   0.11116   0.13152   0.13612
 Alpha virt. eigenvalues --    0.14799   0.14959   0.15960   0.16523   0.16967
 Alpha virt. eigenvalues --    0.18315   0.19173   0.19705   0.20402   0.22690

 Mulliken charges:
               1
     1  C   -0.088530
     2  O   -0.276019
     3  C    0.096299
     4  C   -0.231996
     5  C    0.061870
     6  C   -0.233380
     7  C   -0.055276
     8  C    0.055035
     9  O   -0.263013
    10  H    0.093970
    11  H    0.103343
    12  H    0.081476
    13  H    0.106902
    14  H    0.103467
    15  H    0.077343
    16  H    0.103020
    17  H    0.106980
    18  H    0.077398
    19  H    0.081111
 Sum of Mulliken charges =   0.00000

 Dipole moment (field-independent basis, Debye):
    X=             -0.0539    Y=             -0.9480    Z=             -0.4558  Tot=              1.0532
 Quadrupole moment (field-independent basis, Debye-Ang):
   XX=            -56.3117   YY=            -51.9566   ZZ=            -52.0411
   XY=              3.2684   XZ=             -4.0180   YZ=              1.1184

  Exact polarizability:  75.501   3.674  72.654  -3.603   1.044  68.137
 Approx polarizability: 108.454   2.804 104.014  -0.983   0.662 105.078

                      1                      2                      3
                      A                      A                      A
 Frequencies --    109.5066               302.3907               356.6932
 Red. masses --      3.0060                 2.6264                 1.9420
 Frc consts  --      0.0212                 0.1415                 0.1456
 IR Inten    --      2.8478                 1.3700                 0.6896

                      4                      5                      6
                      A                      A                      A
 Frequencies --    426.9455               535.1296               574.6301
 Red. masses --      2.0379                 5.3749                 5.0606
 Frc consts  --      0.2189                 0.9069                 0.9845
 IR Inten    --      2.1283                10.5233                 0.6318

                      7                      8                      9
                      A                      A                      A
 Frequencies --    578.1627               714.2413               777.4471
 Red. masses --      4.6981                 4.5897                 4.1482
 Frc consts  --      0.9253                 1.3795                 1.4772
 IR Inten    --      0.9413                 2.9827                 0.4795

                     10                     11                     12
                      A                      A                      A
 Frequencies --    798.2926               820.0812               845.5387
 Red. masses --      2.9521                 2.6169                 2.8077
 Frc consts  --      1.1084                 1.0369                 1.1827
 IR Inten    --      5.0949                16.2290                 0.9678

                     13                     14                     15
                      A                      A                      A
 Frequencies --    889.9493               895.3695               925.3466
 Red. masses --      3.4760                 2.7161                 2.2402
 Frc consts  --      1.6220                 1.2829                 1.1302
 IR Inten    --      8.4631                 7.3471                 1.5404

                     16                     17                     18
                      A                      A                      A
 Frequencies --    945.8361               976.1403               996.8923
 Red. masses --      2.0860                 2.1252                 2.1231
 Frc consts  --      1.0995                 1.1931                 1.2431
 IR Inten    --      4.3226                28.4424                 6.7937

                     19                     20                     21
                      A                      A                      A
 Frequencies --   1006.4813              1028.6354              1045.3269
 Red. masses --      2.3940                 2.1467                 2.0262
 Frc consts  --      1.4289                 1.3383                 1.3045
 IR Inten    --      4.6674                17.0996                 8.5127

                     22                     23                     24
                      A                      A                      A
 Frequencies --   1064.8027              1103.4127              1114.3829
 Red. masses --      4.5914                 1.7965                 2.5984
 Frc consts  --      3.0671                 1.2887                 1.9012
 IR Inten    --     50.7243                17.1778                60.1301

                     25                     26                     27
                      A                      A                      A
 Frequencies --   1136.9612              1165.1959              1190.0126
 Red. masses --      1.7607                 1.2577                 1.3808
 Frc consts  --      1.3410                 1.0061                 1.1521
 IR Inten    --      1.8485                 0.8352                38.9324

                     28                     29                     30
                      A                      A                      A
 Frequencies --   1217.4094              1261.7184              1269.2372
 Red. masses --      1.1434                 1.5247                 1.2389
 Frc consts  --      0.9984                 1.4301                 1.1759
 IR Inten    --      0.9418                 3.7081                 0.0609

                     31                     32                     33
                      A                      A                      A
 Frequencies --   1279.5338              1284.5032              1313.3646
 Red. masses --      1.5439                 1.7443                 1.5955
 Frc consts  --      1.4892                 1.6956                 1.6215
 IR Inten    --      6.5640                 4.0831                 1.9284

                     34                     35                     36
                      A                      A                      A
 Frequencies --   1325.7474              1340.9266              1351.8836
 Red. masses --      1.2753                 1.4172                 1.4279
 Frc consts  --      1.3207                 1.5014                 1.5376
 IR Inten    --      2.5369                 0.8162                 6.8698

                     37                     38                     39
                      A                      A                      A
 Frequencies --   1369.3152              1401.2503              1470.1027
 Red. masses --      1.4739                 1.3914                 1.0984
 Frc consts  --      1.6283                 1.6096                 1.3987
 IR Inten    --      4.3281                 4.1188                 3.7454

                     40                     41                     42
                      A                      A                      A
 Frequencies --   1489.5112              1526.6188              2991.2997
 Red. masses --      1.0991                 1.0908                 1.0678
 Frc consts  --      1.4368                 1.4978                 5.6291
 IR Inten    --      3.6135                 0.6452                78.4352

                     43                     44                     45
                      A                      A                      A
 Frequencies --   3049.9136              3063.4003              3065.3221
 Red. masses --      1.0959                 1.0603                 1.0627
 Frc consts  --      6.0060                 5.8625                 5.8830
 IR Inten    --     29.6831                25.9254                18.7986

                     46                     47                     48
                      A                      A                      A
 Frequencies --   3087.9986              3100.1340              3114.0609
 Red. masses --      1.0865                 1.0912                 1.1021
 Frc consts  --      6.1045                 6.1792                 6.2971
 IR Inten    --     38.5695                10.5418                27.2952

                     49                     50                     51
                      A                      A                      A
 Frequencies --   3122.9587              3126.3405              3138.8568
 Red. masses --      1.0927                 1.1024                 1.0913
 Frc consts  --      6.2788                 6.3486                 6.3349
 IR Inten    --     35.2724                28.0152                24.3916

 - Thermochemistry -
 -------------------
 Temperature   298.150 Kelvin.  Pressure   1.00000 Atm.
 Atom     1 has atomic number  6 and mass  12.00000

 Molecular mass:   126.06808 amu.
 Principal axes and moments of inertia in atomic units:
                           1         2         3
     Eigenvalues --   634.40078 902.155641054.00370
           X            0.99688   0.06731  -0.04131
           Y           -0.06632   0.99749   0.02491
           Z            0.04288  -0.02210   0.99884
 This molecule is an asymmetric top.
 Rotational symmetry number  1.
 Warning -- assumption of classical behavior for rotation
           may cause significant error
 Rotational temperatures (Kelvin)      0.13653     0.09601     0.08218
 Rotational constants (GHZ):           2.84480     2.00048     1.71227
 Zero-point vibrational energy     431165.3 (Joules/Mol)
                                  103.05098 (Kcal/Mol)
 Warning -- explicit consideration of   7 degrees of freedom as
           vibrations may cause significant error
 Vibrational temperatures:    157.56   435.07   513.20   614.28   769.93
          (Kelvin)            826.76   831.85  1027.63  1118.57  1148.56
                             1179.91  1216.54  1280.44  1288.24  1331.37
                             1360.85  1404.45  1434.30  1448.10  1479.98
                             1503.99  1532.01  1587.56  1603.35  1635.83
                             1676.45  1712.16  1751.58  1815.33  1826.15
                             1840.96  1848.11  1889.64  1907.45  1929.29
                             1945.06  1970.14  2016.08  2115.15  2143.07
                             2196.46  4303.81  4388.14  4407.54  4410.31
                             4442.94  4460.40  4480.43  4493.24  4498.10
                             4516.11

 Zero-point correction=                           0.164222 (Hartree/Particle)
 Thermal correction to Energy=                    0.170437
 Thermal correction to Enthalpy=                  0.171381
 Thermal correction to Gibbs Free Energy=         0.133711
 Sum of electronic and zero-point Energies=           -423.048974
 Sum of electronic and thermal Energies=              -423.042759
 Sum of electronic and thermal Enthalpies=            -423.041815
 Sum of electronic and thermal Free Energies=         -423.079485

                     E (Thermal)             CV                S
                      KCal/Mol        Cal/Mol-Kelvin    Cal/Mol-Kelvin
 Total                  106.951             26.353             79.283
 Electronic               0.000              0.000              0.000
 Translational            0.889              2.981             40.409
 Rotational               0.889              2.981             27.891
 Vibrational            105.173             20.392             10.983
 Vibration     1          0.606              1.942              3.278
 Vibration     2          0.694              1.669              1.404
 Vibration     3          0.732              1.562              1.136
 Vibration     4          0.789              1.412              0.869
 Vibration     5          0.890              1.172              0.576
 Vibration     6          0.931              1.086              0.495
 Vibration     7          0.935              1.079              0.489

 Optimization completed.
    -- Stationary point found.
 Normal termination of Gaussian 09 at Mon Jan 27 13:13:56 2020.
