 Gaussian 09, Revision D.01,
 Gaussian 09:  ES64L-G09RevD.01 24-Apr-2013

 -----------------------------
 # b3lyp 6-31G(2df,p) opt Freq
 -----------------------------

 -----
 titel
 -----
 Symbolic Z-matrix:
 Charge =  0 Multiplicity = 1

 SCF Done:  E(RB3LYP) =  -423.202332251     A.U. after   14 cycles
 Optimization completed.
    -- Stationary point found.
 Normal termination of Gaussian 09 at Tue Jan 28 00:43:31 2020.

 ----------------------------------------------------------------------
 #N Geom=AllCheck Guess=TCheck SCRF=Check GenChk RB3LYP/6-31G(2df,p) Fr
 eq
 ----------------------------------------------------------------------

 Structure from the checkpoint file:  "/scratch/puck/g09_8eb5c025-9c58-42f0-a300-f95be8ab4bad/Gau-36889.chk"
 -----
 titel
 -----
 Charge =  0 Multiplicity = 1

                         Standard orientation:
 ---------------------------------------------------------------------
 Center     Atomic      Atomic             Coordinates (Angstroms)
 Number     Number       Type             X           Y           Z
 ---------------------------------------------------------------------
      1          6           0       -0.996645    1.385401    1.328684
      2          6           0       -0.873790    0.952233   -0.151580
      3          6           0        0.430738    1.383938   -0.792138
      4          6           0        1.623562    0.791569   -0.729328
      5          6           0        2.007219   -0.447507    0.029052
      6          8           0        1.017142   -0.959825    0.895549
      7          6           0       -0.088996   -1.535479    0.244433
      8          6           0       -1.122585   -0.548808   -0.316897
      9          8           0       -2.108133   -0.980275   -0.865064
     10          1           0       -0.877500    2.470042    1.408835
     11          1           0       -1.983209    1.123050    1.724293
     12          1           0       -0.228967    0.906813    1.938160
     13          1           0       -1.691012    1.421281   -0.708299
     14          1           0        0.356678    2.289617   -1.389438
     15          1           0        2.451524    1.238863   -1.277709
     16          1           0        2.333300   -1.230592   -0.680475
     17          1           0        2.873573   -0.228503    0.665467
     18          1           0        0.221931   -2.197770   -0.579189
     19          1           0       -0.605412   -2.160075    0.981118
 ---------------------------------------------------------------------

 SCF Done:  E(RB3LYP) =  -423.202332251     A.U. after    1 cycles

 The electronic state is 1-A.
 Alpha  occ. eigenvalues --  -19.15648 -19.13030 -10.26789 -10.24426 -10.23990
 Alpha  occ. eigenvalues --  -10.20039 -10.19451 -10.19274 -10.18222  -1.05425
 Alpha  occ. eigenvalues --   -1.03926  -0.81757  -0.77857  -0.72284  -0.67206
 Alpha  occ. eigenvalues --   -0.64562  -0.56361  -0.54168  -0.50202  -0.48695
 Alpha  occ. eigenvalues --   -0.46871  -0.45015  -0.43259  -0.42775  -0.41582
 Alpha  occ. eigenvalues --   -0.39728  -0.38958  -0.37737  -0.34925  -0.33922
 Alpha  occ. eigenvalues --   -0.32564  -0.28612  -0.26087  -0.23379
 Alpha virt. eigenvalues --   -0.01696   0.01295   0.07458   0.10603   0.12434
 Alpha virt. eigenvalues --    0.12940   0.14343   0.15190   0.16590   0.16822
 Alpha virt. eigenvalues --    0.17073   0.18547   0.19192   0.20787   0.22365

 Mulliken charges:
               1
     1  C   -0.412526
     2  C   -0.110048
     3  C   -0.102356
     4  C   -0.045090
     5  C   -0.141353
     6  O   -0.226551
     7  C   -0.181400
     8  C    0.347458
     9  O   -0.306693
    10  H    0.121321
    11  H    0.123320
    12  H    0.146065
    13  H    0.098476
    14  H    0.100008
    15  H    0.093938
    16  H    0.104539
    17  H    0.124647
    18  H    0.124037
    19  H    0.142207
 Sum of Mulliken charges =   0.00000

 Dipole moment (field-independent basis, Debye):
    X=              2.2050    Y=              0.9623    Z=              0.2065  Tot=              2.4146
 Quadrupole moment (field-independent basis, Debye-Ang):
   XX=            -55.4911   YY=            -51.3679   ZZ=            -55.1669
   XY=             -2.8899   XZ=             -5.0534   YZ=             -1.3457

  Exact polarizability:  91.080  -2.633  77.786  -2.152  -1.396  63.556
 Approx polarizability: 137.972  -4.451 109.585   3.029  -1.167  96.893

                      1                      2                      3
                      A                      A                      A
 Frequencies --     64.3591               113.7192               216.5789
 Red. masses --      3.5817                 2.6307                 3.4819
 Frc consts  --      0.0087                 0.0200                 0.0962
 IR Inten    --      4.1308                 0.6342                 2.4747

                      4                      5                      6
                      A                      A                      A
 Frequencies --    232.0223               238.5434               308.9957
 Red. masses --      2.3306                 1.1258                 4.4892
 Frc consts  --      0.0739                 0.0377                 0.2525
 IR Inten    --      0.1352                 0.0896                 6.6070

                      7                      8                      9
                      A                      A                      A
 Frequencies --    382.3436               393.9701               443.8583
 Red. masses --      2.6484                 5.3576                 2.6416
 Frc consts  --      0.2281                 0.4899                 0.3066
 IR Inten    --      4.6086                 4.0670                 8.4735

                     10                     11                     12
                      A                      A                      A
 Frequencies --    495.0603               581.5461               612.4804
 Red. masses --      3.5176                 2.5909                 5.3785
 Frc consts  --      0.5079                 0.5163                 1.1888
 IR Inten    --      2.2743                 0.9207                 4.2093

                     13                     14                     15
                      A                      A                      A
 Frequencies --    714.8718               724.7301               815.6148
 Red. masses --      2.9636                 1.5163                 3.2559
 Frc consts  --      0.8923                 0.4692                 1.2761
 IR Inten    --     26.8366                18.1217                 2.3382

                     16                     17                     18
                      A                      A                      A
 Frequencies --    868.9752               904.8299               963.7153
 Red. masses --      3.4455                 2.4642                 2.5049
 Frc consts  --      1.5329                 1.1886                 1.3707
 IR Inten    --      5.7436                 4.9663                 3.9413

                     19                     20                     21
                      A                      A                      A
 Frequencies --    990.6367              1006.4395              1020.5193
 Red. masses --      1.5543                 1.3305                 2.3872
 Frc consts  --      0.8987                 0.7941                 1.4648
 IR Inten    --      6.5506                 3.7943                 4.7790

                     22                     23                     24
                      A                      A                      A
 Frequencies --   1052.4312              1091.4349              1099.9342
 Red. masses --      2.1032                 2.6253                 1.7976
 Frc consts  --      1.3725                 1.8426                 1.2814
 IR Inten    --     18.6216                 7.1678                 1.0090

                     25                     26                     27
                      A                      A                      A
 Frequencies --   1159.2203              1225.1987              1267.0647
 Red. masses --      3.2155                 1.8764                 1.2891
 Frc consts  --      2.5459                 1.6596                 1.2194
 IR Inten    --     66.3532                40.0359                 9.7931

                     28                     29                     30
                      A                      A                      A
 Frequencies --   1273.3098              1321.3727              1324.4932
 Red. masses --      1.5819                 1.1752                 1.2994
 Frc consts  --      1.5111                 1.2090                 1.3430
 IR Inten    --     50.7491                 3.2543                 3.1371

                     31                     32                     33
                      A                      A                      A
 Frequencies --   1351.1802              1364.4432              1392.5371
 Red. masses --      1.3487                 1.3212                 1.2144
 Frc consts  --      1.4507                 1.4492                 1.3874
 IR Inten    --      0.4451                 7.4702                 3.0779

                     34                     35                     36
                      A                      A                      A
 Frequencies --   1410.3276              1421.0018              1449.6827
 Red. masses --      1.3493                 1.4056                 1.0791
 Frc consts  --      1.5813                 1.6722                 1.3361
 IR Inten    --      6.3685                 4.3865                 6.7828

                     37                     38                     39
                      A                      A                      A
 Frequencies --   1479.3774              1495.0567              1511.2208
 Red. masses --      1.0938                 1.0448                 1.0545
 Frc consts  --      1.4104                 1.3760                 1.4189
 IR Inten    --      8.8333                 2.5755                 3.4090

                     40                     41                     42
                      A                      A                      A
 Frequencies --   1727.8022              1812.7230              2936.6806
 Red. masses --      6.9688                11.7563                 1.0720
 Frc consts  --     12.2573                22.7605                 5.4469
 IR Inten    --      2.8601               168.5100                56.3893

                     43                     44                     45
                      A                      A                      A
 Frequencies --   2988.8389              3041.5263              3046.7050
 Red. masses --      1.0676                 1.0365                 1.0872
 Frc consts  --      5.6188                 5.6494                 5.9461
 IR Inten    --     27.4623                27.7547                24.4330

                     46                     47                     48
                      A                      A                      A
 Frequencies --   3059.8875              3079.1932              3107.3495
 Red. masses --      1.0838                 1.0932                 1.1019
 Frc consts  --      5.9786                 6.1072                 6.2686
 IR Inten    --     12.2192                 9.2749                19.5534

                     49                     50                     51
                      A                      A                      A
 Frequencies --   3133.0202              3148.5035              3159.2997
 Red. masses --      1.0836                 1.1002                 1.0941
 Frc consts  --      6.2670                 6.4258                 6.4338
 IR Inten    --      6.6816                 8.7408                24.1758

 - Thermochemistry -
 -------------------
 Temperature   298.150 Kelvin.  Pressure   1.00000 Atm.
 Atom     1 has atomic number  6 and mass  12.00000

 Molecular mass:   126.06808 amu.
 Principal axes and moments of inertia in atomic units:
                           1         2         3
     Eigenvalues --   833.359201113.140281398.32948
           X            0.99619  -0.07132  -0.05023
           Y            0.07238   0.99718   0.01965
           Z            0.04869  -0.02321   0.99854
 This molecule is an asymmetric top.
 Rotational symmetry number  1.
 Warning -- assumption of classical behavior for rotation
           may cause significant error
 Rotational temperatures (Kelvin)      0.10393     0.07781     0.06194
 Rotational constants (GHZ):           2.16562     1.62131     1.29064
 Zero-point vibrational energy     418840.3 (Joules/Mol)
                                  100.10523 (Kcal/Mol)
 Warning -- explicit consideration of  12 degrees of freedom as
           vibrations may cause significant error
 Vibrational temperatures:     92.60   163.62   311.61   333.83   343.21
          (Kelvin)            444.58   550.11   566.83   638.61   712.28
                              836.71   881.22  1028.54  1042.72  1173.49
                             1250.26  1301.85  1386.57  1425.30  1448.04
                             1468.30  1514.21  1570.33  1582.56  1667.86
                             1762.79  1823.02  1832.01  1901.16  1905.65
                             1944.04  1963.13  2003.55  2029.14  2044.50
                             2085.77  2128.49  2151.05  2174.31  2485.92
                             2608.10  4225.22  4300.27  4376.07  4383.52
                             4402.49  4430.27  4470.78  4507.71  4529.99
                             4545.52

 Zero-point correction=                           0.159528 (Hartree/Particle)
 Thermal correction to Energy=                    0.168069
 Thermal correction to Enthalpy=                  0.169013
 Thermal correction to Gibbs Free Energy=         0.126242
 Sum of electronic and zero-point Energies=           -423.042804
 Sum of electronic and thermal Energies=              -423.034263
 Sum of electronic and thermal Enthalpies=            -423.033319
 Sum of electronic and thermal Free Energies=         -423.076090

                     E (Thermal)             CV                S
                      KCal/Mol        Cal/Mol-Kelvin    Cal/Mol-Kelvin
 Total                  105.465             32.242             90.021
 Electronic               0.000              0.000              0.000
 Translational            0.889              2.981             40.409
 Rotational               0.889              2.981             28.652
 Vibrational            103.688             26.280             20.960
 Vibration     1          0.597              1.971              4.319
 Vibration     2          0.607              1.938              3.204
 Vibration     3          0.645              1.816              1.988
 Vibration     4          0.653              1.792              1.863
 Vibration     5          0.657              1.782              1.814
 Vibration     6          0.698              1.657              1.368
 Vibration     7          0.752              1.508              1.030
 Vibration     8          0.761              1.483              0.985
 Vibration     9          0.803              1.374              0.815
 Vibration    10          0.851              1.261              0.671
 Vibration    11          0.938              1.071              0.483
 Vibration    12          0.972              1.005              0.429

 Optimization completed.
    -- Stationary point found.
 Normal termination of Gaussian 09 at Tue Jan 28 02:57:40 2020.
