 Gaussian 09, Revision D.01,
 Gaussian 09:  ES64L-G09RevD.01 24-Apr-2013

 -----------------------------
 # b3lyp 6-31G(2df,p) opt Freq
 -----------------------------

 -----
 titel
 -----
 Symbolic Z-matrix:
 Charge =  0 Multiplicity = 1

 SCF Done:  E(RB3LYP) =  -423.180087932     A.U. after   14 cycles
 Optimization completed.
    -- Stationary point found.
 Normal termination of Gaussian 09 at Mon Jan 27 16:18:08 2020.

 ----------------------------------------------------------------------
 #N Geom=AllCheck Guess=TCheck SCRF=Check GenChk RB3LYP/6-31G(2df,p) Fr
 eq
 ----------------------------------------------------------------------

 Structure from the checkpoint file:  "/scratch/puck/g09_9e91ce17-f8b0-4d9b-a41e-0865d1b55028/Gau-57054.chk"
 -----
 titel
 -----
 Charge =  0 Multiplicity = 1

                         Standard orientation:
 ---------------------------------------------------------------------
 Center     Atomic      Atomic             Coordinates (Angstroms)
 Number     Number       Type             X           Y           Z
 ---------------------------------------------------------------------
      1          6           0        1.939735   -0.299095    1.273626
      2          6           0        1.111886   -0.209712   -0.000004
      3          6           0        1.939838   -0.299135   -1.273560
      4          8           0        0.020604   -1.196906   -0.000026
      5          6           0       -0.987394   -0.188454   -0.000010
      6          6           0       -2.283042   -0.285724   -0.754696
      7          6           0       -2.283020   -0.285731    0.754703
      8          6           0        0.036245    0.900881   -0.000056
      9          8           0        0.033457    2.097151   -0.000012
     10          1           0        1.302148   -0.251245    2.160161
     11          1           0        2.491731   -1.244149    1.296337
     12          1           0        2.658363    0.524982    1.316165
     13          1           0        1.302324   -0.251320   -2.160149
     14          1           0        2.658466    0.524944   -1.316069
     15          1           0        2.491839   -1.244187   -1.296189
     16          1           0       -2.623484    0.599351   -1.281661
     17          1           0       -2.467967   -1.228911   -1.257042
     18          1           0       -2.623460    0.599329    1.281693
     19          1           0       -2.467927   -1.228928    1.257039
 ---------------------------------------------------------------------

 SCF Done:  E(RB3LYP) =  -423.180087932     A.U. after    1 cycles

 The electronic state is 1-A.
 Alpha  occ. eigenvalues --  -19.14472 -19.14461 -10.27168 -10.24758 -10.24756
 Alpha  occ. eigenvalues --  -10.20141 -10.20116 -10.18639 -10.18639  -1.06460
 Alpha  occ. eigenvalues --   -1.03903  -0.86266  -0.78286  -0.70203  -0.68507
 Alpha  occ. eigenvalues --   -0.61761  -0.59022  -0.51827  -0.51063  -0.46582
 Alpha  occ. eigenvalues --   -0.46203  -0.45505  -0.45078  -0.40173  -0.39748
 Alpha  occ. eigenvalues --   -0.38630  -0.38563  -0.38153  -0.36328  -0.34326
 Alpha  occ. eigenvalues --   -0.34079  -0.32475  -0.24504  -0.24294
 Alpha virt. eigenvalues --   -0.02543   0.07132   0.09207   0.10545   0.12566
 Alpha virt. eigenvalues --    0.12695   0.13845   0.15666   0.17543   0.17565
 Alpha virt. eigenvalues --    0.18140   0.18674   0.19243   0.20730   0.21822

 Mulliken charges:
               1
     1  C   -0.426212
     2  C    0.290123
     3  C   -0.426219
     4  O   -0.364528
     5  C    0.335516
     6  C   -0.328625
     7  C   -0.328623
     8  C    0.236917
     9  O   -0.311234
    10  H    0.127886
    11  H    0.129135
    12  H    0.132876
    13  H    0.127885
    14  H    0.132876
    15  H    0.129133
    16  H    0.135496
    17  H    0.136051
    18  H    0.135495
    19  H    0.136052
 Sum of Mulliken charges =   0.00000

 Dipole moment (field-independent basis, Debye):
    X=              0.0175    Y=             -1.2418    Z=              0.0000  Tot=              1.2419
 Quadrupole moment (field-independent basis, Debye-Ang):
   XX=            -47.3451   YY=            -60.6828   ZZ=            -50.9029
   XY=             -0.0876   XZ=              0.0000   YZ=             -0.0001

  Exact polarizability:  93.449   1.431  71.022   0.000   0.000  68.991
 Approx polarizability: 119.201   3.600 117.800   0.000   0.000  97.786

                      1                      2                      3
                      A                      A                      A
 Frequencies --     66.3817               155.7655               183.0524
 Red. masses --      3.6670                 3.2725                 1.3105
 Frc consts  --      0.0095                 0.0468                 0.0259
 IR Inten    --      2.3534                 2.1631                 0.5304

                      4                      5                      6
                      A                      A                      A
 Frequencies --    185.3600               197.5982               212.6784
 Red. masses --      1.6204                 1.6217                 2.3007
 Frc consts  --      0.0328                 0.0373                 0.0613
 IR Inten    --      0.0165                 0.9735                 2.4208

                      7                      8                      9
                      A                      A                      A
 Frequencies --    277.2507               317.2372               339.5354
 Red. masses --      2.1696                 2.4455                 3.1380
 Frc consts  --      0.0983                 0.1450                 0.2131
 IR Inten    --      1.0272                 0.3409                 0.4448

                     10                     11                     12
                      A                      A                      A
 Frequencies --    446.9206               512.1768               563.8104
 Red. masses --      4.1208                 3.1816                 3.0253
 Frc consts  --      0.4849                 0.4917                 0.5666
 IR Inten    --      9.4774                 5.9770                 1.4713

                     13                     14                     15
                      A                      A                      A
 Frequencies --    712.4370               718.8059               760.5350
 Red. masses --      3.5492                 4.3587                 1.4095
 Frc consts  --      1.0614                 1.3269                 0.4803
 IR Inten    --      2.2917                 2.6715                 6.9447

                     16                     17                     18
                      A                      A                      A
 Frequencies --    786.9012               853.8716               878.3174
 Red. masses --      2.5968                 3.1316                 2.3975
 Frc consts  --      0.9474                 1.3452                 1.0897
 IR Inten    --     14.8038                 1.4779                 4.4583

                     19                     20                     21
                      A                      A                      A
 Frequencies --    928.6623               942.4350               946.8527
 Red. masses --      1.9403                 1.4470                 2.7899
 Frc consts  --      0.9859                 0.7572                 1.4737
 IR Inten    --      6.9730                 0.0122               136.4459

                     22                     23                     24
                      A                      A                      A
 Frequencies --    993.8154              1007.9092              1011.1663
 Red. masses --      1.9175                 1.3663                 4.3945
 Frc consts  --      1.1158                 0.8178                 2.6473
 IR Inten    --     10.0224                 0.0001                29.3470

                     25                     26                     27
                      A                      A                      A
 Frequencies --   1058.4551              1066.9577              1149.2407
 Red. masses --      1.3821                 1.3914                 2.2055
 Frc consts  --      0.9123                 0.9333                 1.7163
 IR Inten    --     25.4820                 1.0441                96.9608

                     28                     29                     30
                      A                      A                      A
 Frequencies --   1194.2508              1214.4520              1247.9802
 Red. masses --      1.2742                 3.8605                 2.8485
 Frc consts  --      1.0707                 3.3547                 2.6139
 IR Inten    --      0.0356                17.4920                42.1295

                     31                     32                     33
                      A                      A                      A
 Frequencies --   1280.4725              1364.5260              1393.1891
 Red. masses --      3.4176                 2.8543                 1.2687
 Frc consts  --      3.3015                 3.1312                 1.4509
 IR Inten    --      9.9756                13.6773                 7.7949

                     34                     35                     36
                      A                      A                      A
 Frequencies --   1410.0201              1444.3467              1471.4329
 Red. masses --      1.2245                 1.0897                 1.0475
 Frc consts  --      1.4344                 1.3393                 1.3362
 IR Inten    --      5.6671                 2.1219                 2.2387

                     37                     38                     39
                      A                      A                      A
 Frequencies --   1478.8148              1479.6204              1494.1883
 Red. masses --      1.0448                 1.4374                 1.0965
 Frc consts  --      1.3463                 1.8541                 1.4423
 IR Inten    --      1.0449                 3.7021                 5.2982

                     40                     41                     42
                      A                      A                      A
 Frequencies --   1501.9544              1906.8058              3037.8319
 Red. masses --      1.0571                12.7152                 1.0342
 Frc consts  --      1.4050                27.2386                 5.6234
 IR Inten    --      3.7638               246.1510                12.6576

                     43                     44                     45
                      A                      A                      A
 Frequencies --   3041.7803              3110.7230              3115.6442
 Red. masses --      1.0347                 1.1020                 1.1013
 Frc consts  --      5.6407                 6.2830                 6.2984
 IR Inten    --     15.8200                 0.7853                23.4195

                     46                     47                     48
                      A                      A                      A
 Frequencies --   3121.7817              3124.2720              3133.3223
 Red. masses --      1.1021                 1.1022                 1.0493
 Frc consts  --      6.3282                 6.3387                 6.0698
 IR Inten    --     11.7563                21.7562                 8.4901

                     49                     50                     51
                      A                      A                      A
 Frequencies --   3134.1843              3220.3630              3234.5372
 Red. masses --      1.0574                 1.1190                 1.1162
 Frc consts  --      6.1196                 6.8376                 6.8806
 IR Inten    --      3.3203                 0.1378                 3.9033

 - Thermochemistry -
 -------------------
 Temperature   298.150 Kelvin.  Pressure   1.00000 Atm.
 Atom     1 has atomic number  6 and mass  12.00000

 Molecular mass:   126.06808 amu.
 Principal axes and moments of inertia in atomic units:
                           1         2         3
     Eigenvalues --   681.795231334.264411477.69528
           X            0.99998  -0.00658   0.00000
           Y            0.00658   0.99998   0.00000
           Z            0.00000   0.00000   1.00000
 This molecule is an asymmetric top.
 Rotational symmetry number  1.
 Warning -- assumption of classical behavior for rotation
           may cause significant error
 Rotational temperatures (Kelvin)      0.12704     0.06492     0.05861
 Rotational constants (GHZ):           2.64704     1.35261     1.22132
 Zero-point vibrational energy     409306.0 (Joules/Mol)
                                   97.82649 (Kcal/Mol)
 Warning -- explicit consideration of  12 degrees of freedom as
           vibrations may cause significant error
 Vibrational temperatures:     95.51   224.11   263.37   266.69   284.30
          (Kelvin)            306.00   398.90   456.43   488.52   643.02
                              736.91   811.20  1025.04  1034.20  1094.24
                             1132.17  1228.53  1263.70  1336.14  1355.95
                             1362.31  1429.88  1450.15  1454.84  1522.88
                             1535.11  1653.50  1718.26  1747.32  1795.56
                             1842.31  1963.25  2004.49  2028.70  2078.09
                             2117.06  2127.68  2128.84  2149.80  2160.97
                             2743.46  4370.76  4376.44  4475.63  4482.71
                             4491.54  4495.13  4508.15  4509.39  4633.38
                             4653.77

 Zero-point correction=                           0.155896 (Hartree/Particle)
 Thermal correction to Energy=                    0.165276
 Thermal correction to Enthalpy=                  0.166220
 Thermal correction to Gibbs Free Energy=         0.121934
 Sum of electronic and zero-point Energies=           -423.024191
 Sum of electronic and thermal Energies=              -423.014812
 Sum of electronic and thermal Enthalpies=            -423.013868
 Sum of electronic and thermal Free Energies=         -423.058154

                     E (Thermal)             CV                S
                      KCal/Mol        Cal/Mol-Kelvin    Cal/Mol-Kelvin
 Total                  103.712             34.857             93.208
 Electronic               0.000              0.000              0.000
 Translational            0.889              2.981             40.409
 Rotational               0.889              2.981             28.688
 Vibrational            101.935             28.896             24.112
 Vibration     1          0.598              1.970              4.258
 Vibration     2          0.620              1.896              2.601
 Vibration     3          0.631              1.863              2.297
 Vibration     4          0.631              1.860              2.274
 Vibration     5          0.637              1.843              2.155
 Vibration     6          0.644              1.822              2.021
 Vibration     7          0.678              1.716              1.551
 Vibration     8          0.704              1.641              1.324
 Vibration     9          0.719              1.596              1.214
 Vibration    10          0.806              1.368              0.805
 Vibration    11          0.867              1.223              0.628
 Vibration    12          0.920              1.110              0.516

 Optimization completed.
    -- Stationary point found.
 Normal termination of Gaussian 09 at Mon Jan 27 16:59:06 2020.
