 Gaussian 09, Revision D.01,
 Gaussian 09:  ES64L-G09RevD.01 24-Apr-2013

 -----------------------------
 # b3lyp 6-31G(2df,p) opt Freq
 -----------------------------

 -----
 titel
 -----
 Symbolic Z-matrix:
 Charge =  0 Multiplicity = 1

 SCF Done:  E(RB3LYP) =  -423.191290171     A.U. after   14 cycles
 Optimization completed.
    -- Stationary point found.
 Normal termination of Gaussian 09 at Mon Jan 27 22:00:11 2020.

 ----------------------------------------------------------------------
 #N Geom=AllCheck Guess=TCheck SCRF=Check GenChk RB3LYP/6-31G(2df,p) Fr
 eq
 ----------------------------------------------------------------------

 Structure from the checkpoint file:  "/scratch/puck/g09_67cdbc50-d574-4948-bf77-7b8eb6493a1b/Gau-99229.chk"
 -----
 titel
 -----
 Charge =  0 Multiplicity = 1

                         Standard orientation:
 ---------------------------------------------------------------------
 Center     Atomic      Atomic             Coordinates (Angstroms)
 Number     Number       Type             X           Y           Z
 ---------------------------------------------------------------------
      1          6           0        2.731006   -0.646627   -0.143635
      2          6           0        1.264830   -0.456686    0.034327
      3          6           0        0.215851   -1.135928   -0.437374
      4          6           0       -1.018362   -0.332022   -0.037244
      5          6           0       -2.351246   -1.023437    0.083859
      6          6           0       -0.952210    0.973597   -0.902619
      7          8           0        0.197835    1.636804   -0.370132
      8          6           0        0.620492    0.760709    0.706168
      9          8           0       -0.583232    0.252676    1.216777
     10          1           0        3.169636    0.209033   -0.672196
     11          1           0        3.246150   -0.718071    0.822460
     12          1           0        2.953753   -1.550463   -0.716842
     13          1           0        0.207746   -1.996870   -1.093224
     14          1           0       -2.668433   -1.412477   -0.888790
     15          1           0       -2.286375   -1.860626    0.783964
     16          1           0       -3.114581   -0.327123    0.442660
     17          1           0       -0.825841    0.774605   -1.971805
     18          1           0       -1.842639    1.592213   -0.741269
     19          1           0        1.181589    1.336300    1.440985
 ---------------------------------------------------------------------

 SCF Done:  E(RB3LYP) =  -423.191290171     A.U. after    1 cycles

 The electronic state is 1-A.
 Alpha  occ. eigenvalues --  -19.14134 -19.13538 -10.27331 -10.24461 -10.22474
 Alpha  occ. eigenvalues --  -10.18960 -10.18863 -10.18405 -10.17815  -1.09031
 Alpha  occ. eigenvalues --   -0.98256  -0.80574  -0.78552  -0.70592  -0.69332
 Alpha  occ. eigenvalues --   -0.61811  -0.57329  -0.54892  -0.50412  -0.49481
 Alpha  occ. eigenvalues --   -0.44770  -0.43328  -0.42440  -0.41262  -0.40933
 Alpha  occ. eigenvalues --   -0.40577  -0.37967  -0.37744  -0.36153  -0.33786
 Alpha  occ. eigenvalues --   -0.31557  -0.27641  -0.25503  -0.23599
 Alpha virt. eigenvalues --    0.01073   0.09511   0.10798   0.11874   0.13340
 Alpha virt. eigenvalues --    0.13799   0.14565   0.15422   0.15652   0.17075
 Alpha virt. eigenvalues --    0.17657   0.18645   0.19267   0.21357   0.21901

 Mulliken charges:
               1
     1  C   -0.510251
     2  C    0.370424
     3  C   -0.273720
     4  C    0.311932
     5  C   -0.494270
     6  C   -0.098155
     7  O   -0.275740
     8  C    0.050935
     9  O   -0.256167
    10  H    0.141124
    11  H    0.130561
    12  H    0.128278
    13  H    0.099810
    14  H    0.122913
    15  H    0.135209
    16  H    0.130760
    17  H    0.098743
    18  H    0.102406
    19  H    0.085210
 Sum of Mulliken charges =   0.00000

 Dipole moment (field-independent basis, Debye):
    X=              0.1844    Y=             -1.4856    Z=             -0.9809  Tot=              1.7897
 Quadrupole moment (field-independent basis, Debye-Ang):
   XX=            -47.8185   YY=            -55.0891   ZZ=            -53.9006
   XY=              0.1835   XZ=              2.8756   YZ=              2.0783

  Exact polarizability:  93.395   2.146  70.969   5.451   3.855  63.575
 Approx polarizability: 126.568   9.699 109.443  10.860   7.717 100.934

                      1                      2                      3
                      A                      A                      A
 Frequencies --    148.6775               178.2889               195.4811
 Red. masses --      2.5780                 1.0518                 1.0711
 Frc consts  --      0.0336                 0.0197                 0.0241
 IR Inten    --      1.5890                 0.1820                 0.1030

                      4                      5                      6
                      A                      A                      A
 Frequencies --    242.1916               278.5143               291.7169
 Red. masses --      2.4562                 2.9423                 2.5602
 Frc consts  --      0.0849                 0.1345                 0.1284
 IR Inten    --      0.9574                 2.0136                 0.0416

                      7                      8                      9
                      A                      A                      A
 Frequencies --    376.5222               448.9340               554.8400
 Red. masses --      2.5227                 2.9768                 3.8870
 Frc consts  --      0.2107                 0.3535                 0.7050
 IR Inten    --      2.6534                 1.9109                 3.2801

                     10                     11                     12
                      A                      A                      A
 Frequencies --    562.6676               631.1020               655.9133
 Red. masses --      4.0253                 5.3761                 3.6386
 Frc consts  --      0.7508                 1.2616                 0.9223
 IR Inten    --      1.0840                 7.7155                 6.6309

                     13                     14                     15
                      A                      A                      A
 Frequencies --    773.1657               803.4537               828.1598
 Red. masses --      3.6837                 2.0468                 6.0888
 Frc consts  --      1.2974                 0.7785                 2.4604
 IR Inten    --      2.9645                 5.8634                18.4601

                     16                     17                     18
                      A                      A                      A
 Frequencies --    858.8422               863.0328               894.6259
 Red. masses --      2.3250                 3.4403                 2.1759
 Frc consts  --      1.0104                 1.5097                 1.0260
 IR Inten    --     19.7244                76.9989                15.1100

                     19                     20                     21
                      A                      A                      A
 Frequencies --    932.3605               985.3253              1009.5090
 Red. masses --      2.8457                 2.2638                 2.5683
 Frc consts  --      1.4575                 1.2949                 1.5421
 IR Inten    --     27.7190                 5.0855                42.8772

                     22                     23                     24
                      A                      A                      A
 Frequencies --   1015.6108              1061.3050              1111.4344
 Red. masses --      1.6046                 1.5635                 2.2712
 Frc consts  --      0.9752                 1.0376                 1.6530
 IR Inten    --     10.5152                 1.0088                18.8650

                     25                     26                     27
                      A                      A                      A
 Frequencies --   1115.1961              1163.1345              1168.9274
 Red. masses --      3.9896                 1.9287                 1.5707
 Frc consts  --      2.9234                 1.5374                 1.2645
 IR Inten    --     43.7072                 6.0089                 1.5343

                     28                     29                     30
                      A                      A                      A
 Frequencies --   1218.2975              1258.3405              1281.2032
 Red. masses --      1.3807                 1.9193                 1.3732
 Frc consts  --      1.2074                 1.7906                 1.3280
 IR Inten    --      5.0707                 9.6956                 0.2013

                     31                     32                     33
                      A                      A                      A
 Frequencies --   1316.7064              1331.6559              1371.3062
 Red. masses --      1.8105                 1.8373                 1.7694
 Frc consts  --      1.8493                 1.9197                 1.9604
 IR Inten    --     14.6802                11.3536                 5.9259

                     34                     35                     36
                      A                      A                      A
 Frequencies --   1410.5867              1418.4068              1479.4859
 Red. masses --      1.2648                 1.5432                 1.0448
 Frc consts  --      1.4828                 1.8293                 1.3474
 IR Inten    --      0.9714                12.6309                 6.6415

                     37                     38                     39
                      A                      A                      A
 Frequencies --   1482.9020              1487.0639              1494.4529
 Red. masses --      1.0501                 1.0621                 1.0484
 Frc consts  --      1.3606                 1.3837                 1.3796
 IR Inten    --      2.1569                 9.2112                 3.3707

                     40                     41                     42
                      A                      A                      A
 Frequencies --   1510.7656              1700.1119              3019.9333
 Red. masses --      1.0881                 7.3917                 1.0376
 Frc consts  --      1.4633                12.5878                 5.5754
 IR Inten    --      0.4630                 9.3718                26.9469

                     43                     44                     45
                      A                      A                      A
 Frequencies --   3027.6796              3044.0934              3068.3340
 Red. masses --      1.0557                 1.0355                 1.0986
 Frc consts  --      5.7020                 5.6536                 6.0938
 IR Inten    --     47.6163                20.0798                13.9034

                     46                     47                     48
                      A                      A                      A
 Frequencies --   3079.8461              3112.4104              3115.3446
 Red. masses --      1.1098                 1.0994                 1.1009
 Frc consts  --      6.2025                 6.2745                 6.2950
 IR Inten    --     30.6371                15.6677                15.9023

                     49                     50                     51
                      A                      A                      A
 Frequencies --   3122.7660              3140.7875              3215.6160
 Red. masses --      1.1022                 1.0925                 1.0967
 Frc consts  --      6.3328                 6.3499                 6.6812
 IR Inten    --     14.2760                33.6229                 5.4244

 - Thermochemistry -
 -------------------
 Temperature   298.150 Kelvin.  Pressure   1.00000 Atm.
 Atom     1 has atomic number  6 and mass  12.00000

 Molecular mass:   126.06808 amu.
 Principal axes and moments of inertia in atomic units:
                           1         2         3
     Eigenvalues --   613.489711150.488061369.59374
           X            0.99995   0.00220   0.00983
           Y           -0.00244   0.99970   0.02452
           Z           -0.00977  -0.02454   0.99965
 This molecule is an asymmetric top.
 Rotational symmetry number  1.
 Warning -- assumption of classical behavior for rotation
           may cause significant error
 Rotational temperatures (Kelvin)      0.14118     0.07528     0.06324
 Rotational constants (GHZ):           2.94176     1.56867     1.31772
 Zero-point vibrational energy     417837.8 (Joules/Mol)
                                   99.86564 (Kcal/Mol)
 Warning -- explicit consideration of  10 degrees of freedom as
           vibrations may cause significant error
 Vibrational temperatures:    213.91   256.52   281.25   348.46   400.72
          (Kelvin)            419.71   541.73   645.92   798.29   809.55
                              908.01   943.71  1112.41  1155.99  1191.54
                             1235.68  1241.71  1287.17  1341.46  1417.66
                             1452.46  1461.24  1526.98  1599.10  1604.52
                             1673.49  1681.82  1752.86  1810.47  1843.36
                             1894.44  1915.95  1973.00  2029.52  2040.77
                             2128.65  2133.56  2139.55  2150.18  2173.65
                             2446.08  4345.00  4356.15  4379.77  4414.64
                             4431.21  4478.06  4482.28  4492.96  4518.89
                             4626.55

 Zero-point correction=                           0.159146 (Hartree/Particle)
 Thermal correction to Energy=                    0.167202
 Thermal correction to Enthalpy=                  0.168147
 Thermal correction to Gibbs Free Energy=         0.127055
 Sum of electronic and zero-point Energies=           -423.032144
 Sum of electronic and thermal Energies=              -423.024088
 Sum of electronic and thermal Enthalpies=            -423.023144
 Sum of electronic and thermal Free Energies=         -423.064235

                     E (Thermal)             CV                S
                      KCal/Mol        Cal/Mol-Kelvin    Cal/Mol-Kelvin
 Total                  104.921             31.755             86.485
 Electronic               0.000              0.000              0.000
 Translational            0.889              2.981             40.409
 Rotational               0.889              2.981             28.360
 Vibrational            103.144             25.793             17.716
 Vibration     1          0.618              1.904              2.689
 Vibration     2          0.629              1.869              2.346
 Vibration     3          0.636              1.846              2.175
 Vibration     4          0.658              1.776              1.787
 Vibration     5          0.679              1.713              1.543
 Vibration     6          0.687              1.689              1.464
 Vibration     7          0.747              1.520              1.053
 Vibration     8          0.808              1.363              0.799
 Vibration     9          0.910              1.129              0.534
 Vibration    10          0.918              1.112              0.519

 Optimization completed.
    -- Stationary point found.
 Normal termination of Gaussian 09 at Mon Jan 27 22:42:05 2020.
