 Gaussian 09, Revision D.01,
 Gaussian 09:  ES64L-G09RevD.01 24-Apr-2013

 -----------------------------
 # b3lyp 6-31G(2df,p) opt Freq
 -----------------------------

 -----
 titel
 -----
 Symbolic Z-matrix:
 Charge =  0 Multiplicity = 1

 SCF Done:  E(RB3LYP) =  -423.180279937     A.U. after   14 cycles
 Optimization completed.
    -- Stationary point found.
 Normal termination of Gaussian 09 at Tue Jan 28 00:01:33 2020.

 ----------------------------------------------------------------------
 #N Geom=AllCheck Guess=TCheck SCRF=Check GenChk RB3LYP/6-31G(2df,p) Fr
 eq
 ----------------------------------------------------------------------

 Structure from the checkpoint file:  "/scratch/puck/g09_05ad027b-dc2a-445a-8289-72b89457c4bc/Gau-104927.chk"
 -----
 titel
 -----
 Charge =  0 Multiplicity = 1

                         Standard orientation:
 ---------------------------------------------------------------------
 Center     Atomic      Atomic             Coordinates (Angstroms)
 Number     Number       Type             X           Y           Z
 ---------------------------------------------------------------------
      1          6           0        1.942321    1.651149    0.039655
      2          6           0        0.681298    0.852487    0.117759
      3          6           0       -0.560236    1.278322    0.381806
      4          6           0       -1.587093    0.167084    0.308410
      5          8           0       -2.558159    0.374374   -0.712848
      6          6           0       -0.735383   -1.083436    0.078108
      7          6           0        0.293138   -1.453087    1.126213
      8          6           0        0.696158   -0.637157   -0.084916
      9          8           0        1.528313   -1.181089   -1.065073
     10          1           0        2.654133    1.347705    0.818768
     11          1           0        2.439673    1.483823   -0.922769
     12          1           0        1.752355    2.721228    0.151544
     13          1           0       -0.839317    2.298556    0.621644
     14          1           0       -2.172633    0.085536    1.231963
     15          1           0       -2.073831    0.594058   -1.516989
     16          1           0       -1.146773   -1.874250   -0.537185
     17          1           0        0.266241   -0.968303    2.097482
     18          1           0        0.602458   -2.494292    1.135510
     19          1           0        2.375239   -1.392524   -0.658817
 ---------------------------------------------------------------------

 SCF Done:  E(RB3LYP) =  -423.180279937     A.U. after    1 cycles

 The electronic state is 1-A.
 Alpha  occ. eigenvalues --  -19.14856 -19.12831 -10.23940 -10.23001 -10.19219
 Alpha  occ. eigenvalues --  -10.18944 -10.18632 -10.18425 -10.17189  -1.03399
 Alpha  occ. eigenvalues --   -1.01023  -0.87603  -0.78196  -0.72160  -0.65735
 Alpha  occ. eigenvalues --   -0.61677  -0.57050  -0.54947  -0.51269  -0.49131
 Alpha  occ. eigenvalues --   -0.44730  -0.44658  -0.42124  -0.41874  -0.40836
 Alpha  occ. eigenvalues --   -0.39702  -0.37417  -0.35821  -0.33393  -0.32490
 Alpha  occ. eigenvalues --   -0.29135  -0.26745  -0.25899  -0.23376
 Alpha virt. eigenvalues --    0.01123   0.07323   0.10553   0.11169   0.11685
 Alpha virt. eigenvalues --    0.13503   0.14121   0.14368   0.15425   0.17009
 Alpha virt. eigenvalues --    0.18464   0.19826   0.21253   0.22370   0.23844

 Mulliken charges:
               1
     1  C   -0.511336
     2  C    0.275952
     3  C   -0.256959
     4  C    0.102548
     5  O   -0.432090
     6  C   -0.130110
     7  C   -0.351108
     8  C    0.305668
     9  O   -0.465498
    10  H    0.123905
    11  H    0.138055
    12  H    0.127956
    13  H    0.093444
    14  H    0.092513
    15  H    0.275877
    16  H    0.102389
    17  H    0.112119
    18  H    0.111140
    19  H    0.285538
 Sum of Mulliken charges =   0.00000

 Dipole moment (field-independent basis, Debye):
    X=              2.4993    Y=              0.1247    Z=              0.9226  Tot=              2.6671
 Quadrupole moment (field-independent basis, Debye-Ang):
   XX=            -54.9216   YY=            -50.7630   ZZ=            -53.0567
   XY=             -0.7384   XZ=              0.8201   YZ=             -1.6182

  Exact polarizability:  90.811  -1.781  77.806  -0.902  -1.232  63.370
 Approx polarizability: 138.017  -8.482 107.987  -2.968  -0.490  99.665

                      1                      2                      3
                      A                      A                      A
 Frequencies --    130.8388               146.5870               178.1709
 Red. masses --      3.9709                 2.8991                 1.1181
 Frc consts  --      0.0401                 0.0367                 0.0209
 IR Inten    --      1.4274                 0.8086                 0.9242

                      4                      5                      6
                      A                      A                      A
 Frequencies --    237.9767               269.9001               278.2074
 Red. masses --      3.5593                 1.2195                 2.0388
 Frc consts  --      0.1188                 0.0523                 0.0930
 IR Inten    --      8.8660                69.2914                23.8231

                      7                      8                      9
                      A                      A                      A
 Frequencies --    350.6749               366.5131               400.9998
 Red. masses --      1.4106                 2.7005                 2.6699
 Frc consts  --      0.1022                 0.2137                 0.2529
 IR Inten    --     29.8921                29.5944                30.8398

                     10                     11                     12
                      A                      A                      A
 Frequencies --    444.7184               475.1908               576.8765
 Red. masses --      3.2731                 3.4878                 4.3101
 Frc consts  --      0.3814                 0.4640                 0.8451
 IR Inten    --      2.9721                 8.2912                 1.2225

                     13                     14                     15
                      A                      A                      A
 Frequencies --    630.7495               664.0072               754.5229
 Red. masses --      3.3821                 3.1715                 4.0107
 Frc consts  --      0.7928                 0.8239                 1.3453
 IR Inten    --      3.0083                 3.6173                 8.4629

                     16                     17                     18
                      A                      A                      A
 Frequencies --    813.1695               836.2646               888.0549
 Red. masses --      1.7361                 1.5347                 2.1477
 Frc consts  --      0.6764                 0.6323                 0.9979
 IR Inten    --      3.1425                19.5899                10.3867

                     19                     20                     21
                      A                      A                      A
 Frequencies --    937.3390               956.8271               993.0564
 Red. masses --      2.3307                 1.8737                 2.0982
 Frc consts  --      1.2065                 1.0107                 1.2191
 IR Inten    --      5.7711                17.5497                 6.6011

                     22                     23                     24
                      A                      A                      A
 Frequencies --   1008.9852              1033.1875              1059.0411
 Red. masses --      1.6993                 1.9191                 1.3811
 Frc consts  --      1.0193                 1.2070                 0.9126
 IR Inten    --     31.8123                39.2652                24.6465

                     25                     26                     27
                      A                      A                      A
 Frequencies --   1064.2681              1087.8093              1098.1308
 Red. masses --      1.5717                 2.3234                 1.4453
 Frc consts  --      1.0489                 1.6199                 1.0269
 IR Inten    --      6.1233                27.0567                21.7246

                     28                     29                     30
                      A                      A                      A
 Frequencies --   1148.6775              1222.5809              1246.9977
 Red. masses --      3.0815                 1.7037                 1.9273
 Frc consts  --      2.3956                 1.5004                 1.7657
 IR Inten    --     27.2605                32.2998                67.9869

                     31                     32                     33
                      A                      A                      A
 Frequencies --   1259.9859              1291.4575              1322.4658
 Red. masses --      1.3284                 1.6437                 1.5413
 Frc consts  --      1.2425                 1.6152                 1.5882
 IR Inten    --     18.4721                 4.5179                34.1967

                     34                     35                     36
                      A                      A                      A
 Frequencies --   1350.0520              1386.3983              1408.8257
 Red. masses --      3.1305                 2.0847                 1.3138
 Frc consts  --      3.3617                 2.3609                 1.5364
 IR Inten    --      7.1543                17.4814                 2.5932

                     37                     38                     39
                      A                      A                      A
 Frequencies --   1424.1438              1472.1457              1477.7736
 Red. masses --      1.2315                 1.3504                 1.0523
 Frc consts  --      1.4716                 1.7243                 1.3540
 IR Inten    --     88.0542                 9.4710                 5.2593

                     40                     41                     42
                      A                      A                      A
 Frequencies --   1490.6290              1698.2774              3019.3151
 Red. masses --      1.0724                 7.3372                 1.0408
 Frc consts  --      1.4040                12.4680                 5.5905
 IR Inten    --     10.1434                 6.8271                25.9251

                     43                     44                     45
                      A                      A                      A
 Frequencies --   3042.8345              3071.5393              3113.9242
 Red. masses --      1.0839                 1.0947                 1.0530
 Frc consts  --      5.9129                 6.0851                 6.0158
 IR Inten    --     32.0920                13.6894                15.6543

                     46                     47                     48
                      A                      A                      A
 Frequencies --   3119.9938              3191.9757              3193.8540
 Red. masses --      1.0996                 1.0935                 1.0960
 Frc consts  --      6.3065                 6.5646                 6.5869
 IR Inten    --     15.5154                11.0734                 2.6437

                     49                     50                     51
                      A                      A                      A
 Frequencies --   3207.4815              3795.6327              3806.6312
 Red. masses --      1.1132                 1.0660                 1.0664
 Frc consts  --      6.7476                 9.0482                 9.1041
 IR Inten    --      9.9462                14.9338                23.6449

 - Thermochemistry -
 -------------------
 Temperature   298.150 Kelvin.  Pressure   1.00000 Atm.
 Atom     1 has atomic number  6 and mass  12.00000

 Molecular mass:   126.06808 amu.
 Principal axes and moments of inertia in atomic units:
                           1         2         3
     Eigenvalues --   774.090411181.001331548.73287
           X            0.99874   0.05012   0.00177
           Y           -0.05008   0.99854  -0.02028
           Z           -0.00278   0.02016   0.99979
 This molecule is an asymmetric top.
 Rotational symmetry number  1.
 Warning -- assumption of classical behavior for rotation
           may cause significant error
 Rotational temperatures (Kelvin)      0.11189     0.07334     0.05593
 Rotational constants (GHZ):           2.33143     1.52814     1.16530
 Zero-point vibrational energy     415377.3 (Joules/Mol)
                                   99.27755 (Kcal/Mol)
 Warning -- explicit consideration of  12 degrees of freedom as
           vibrations may cause significant error
 Vibrational temperatures:    188.25   210.91   256.35   342.39   388.33
          (Kelvin)            400.28   504.54   527.33   576.95   639.85
                              683.69   830.00   907.51   955.36  1085.59
                             1169.97  1203.20  1277.71  1348.62  1376.66
                             1428.78  1451.70  1486.52  1523.72  1531.24
                             1565.11  1579.96  1652.69  1759.02  1794.15
                             1812.84  1858.12  1902.73  1942.42  1994.72
                             2026.98  2049.02  2118.09  2126.18  2144.68
                             2443.44  4344.12  4377.95  4419.25  4480.24
                             4488.97  4592.54  4595.24  4614.84  5461.06
                             5476.89

 Zero-point correction=                           0.158209 (Hartree/Particle)
 Thermal correction to Energy=                    0.167075
 Thermal correction to Enthalpy=                  0.168019
 Thermal correction to Gibbs Free Energy=         0.125272
 Sum of electronic and zero-point Energies=           -423.022071
 Sum of electronic and thermal Energies=              -423.013205
 Sum of electronic and thermal Enthalpies=            -423.012261
 Sum of electronic and thermal Free Energies=         -423.055008

                     E (Thermal)             CV                S
                      KCal/Mol        Cal/Mol-Kelvin    Cal/Mol-Kelvin
 Total                  104.841             34.516             89.970
 Electronic               0.000              0.000              0.000
 Translational            0.889              2.981             40.409
 Rotational               0.889              2.981             28.739
 Vibrational            103.064             28.554             20.822
 Vibration     1          0.612              1.922              2.934
 Vibration     2          0.617              1.906              2.716
 Vibration     3          0.629              1.869              2.347
 Vibration     4          0.656              1.782              1.818
 Vibration     5          0.674              1.729              1.597
 Vibration     6          0.679              1.714              1.545
 Vibration     7          0.728              1.574              1.163
 Vibration     8          0.739              1.541              1.094
 Vibration     9          0.767              1.468              0.959
 Vibration    10          0.804              1.373              0.812
 Vibration    11          0.832              1.305              0.723
 Vibration    12          0.933              1.081              0.491

 Optimization completed.
    -- Stationary point found.
 Normal termination of Gaussian 09 at Tue Jan 28 00:43:31 2020.
