 Gaussian 09, Revision D.01,
 Gaussian 09:  ES64L-G09RevD.01 24-Apr-2013

 -----------------------------
 # b3lyp 6-31G(2df,p) opt Freq
 -----------------------------

 -----
 titel
 -----
 Symbolic Z-matrix:
 Charge =  0 Multiplicity = 1

 SCF Done:  E(RB3LYP) =  -423.116975869     A.U. after   14 cycles
 Optimization completed.
    -- Stationary point found.
 Normal termination of Gaussian 09 at Mon Jan 27 16:20:39 2020.

 ----------------------------------------------------------------------
 #N Geom=AllCheck Guess=TCheck SCRF=Check GenChk RB3LYP/6-31G(2df,p) Fr
 eq
 ----------------------------------------------------------------------

 Structure from the checkpoint file:  "/scratch/puck/g09_9df0cacf-486f-4958-b3f4-8f4fd5a900f2/Gau-60051.chk"
 -----
 titel
 -----
 Charge =  0 Multiplicity = 1

                         Standard orientation:
 ---------------------------------------------------------------------
 Center     Atomic      Atomic             Coordinates (Angstroms)
 Number     Number       Type             X           Y           Z
 ---------------------------------------------------------------------
      1          6           0        1.240308    1.592534   -0.253759
      2          6           0        1.050918    0.108929    0.016892
      3          6           0        2.371054   -0.571107    0.371021
      4          8           0        0.444789   -0.597980   -1.127914
      5          6           0       -0.563244   -1.183615   -0.299622
      6          6           0       -1.939681   -0.448158   -0.250182
      7          8           0       -1.693239    0.950231   -0.349427
      8          6           0       -1.486431    0.335179    0.922016
      9          6           0       -0.109762   -0.381600    0.936878
     10          1           0        2.000425    1.733318   -1.029730
     11          1           0        0.311290    2.052780   -0.584140
     12          1           0        1.591603    2.097701    0.652872
     13          1           0        3.073492   -0.477802   -0.462984
     14          1           0        2.821235   -0.107422    1.255781
     15          1           0        2.225191   -1.635994    0.575177
     16          1           0       -0.607169   -2.275219   -0.340946
     17          1           0       -2.921207   -0.800511   -0.547693
     18          1           0       -2.038595    0.742458    1.761379
     19          1           0        0.152357   -0.860291    1.879552
 ---------------------------------------------------------------------

 SCF Done:  E(RB3LYP) =  -423.116975869     A.U. after    1 cycles

 The electronic state is 1-A.
 Alpha  occ. eigenvalues --  -19.15977 -19.12779 -10.24542 -10.24063 -10.23937
 Alpha  occ. eigenvalues --  -10.23661 -10.19480 -10.17413 -10.16470  -1.09095
 Alpha  occ. eigenvalues --   -1.02716  -0.78861  -0.77450  -0.68661  -0.66456
 Alpha  occ. eigenvalues --   -0.62592  -0.58410  -0.54041  -0.51106  -0.47656
 Alpha  occ. eigenvalues --   -0.47066  -0.45743  -0.41921  -0.39910  -0.39493
 Alpha  occ. eigenvalues --   -0.38838  -0.38052  -0.35588  -0.35060  -0.34113
 Alpha  occ. eigenvalues --   -0.30399  -0.27110  -0.25812  -0.24446
 Alpha virt. eigenvalues --    0.05648   0.07765   0.10492   0.10827   0.12671
 Alpha virt. eigenvalues --    0.12929   0.14722   0.15456   0.16604   0.16897
 Alpha virt. eigenvalues --    0.17479   0.18627   0.19495   0.20302   0.22072

 Mulliken charges:
               1
     1  C   -0.446878
     2  C    0.417361
     3  C   -0.423202
     4  O   -0.335526
     5  C    0.093027
     6  C   -0.014101
     7  O   -0.218329
     8  C    0.003623
     9  C   -0.180949
    10  H    0.118107
    11  H    0.152575
    12  H    0.108771
    13  H    0.124815
    14  H    0.111936
    15  H    0.113933
    16  H    0.079845
    17  H    0.105817
    18  H    0.108734
    19  H    0.080441
 Sum of Mulliken charges =   0.00000

 Dipole moment (field-independent basis, Debye):
    X=             -0.2403    Y=             -1.0870    Z=              2.4024  Tot=              2.6478
 Quadrupole moment (field-independent basis, Debye-Ang):
   XX=            -50.2569   YY=            -52.9020   ZZ=            -53.9762
   XY=              3.4403   XZ=             -0.3896   YZ=              0.5311

  Exact polarizability:  85.378   2.740  71.343   1.259   2.205  65.527
 Approx polarizability: 110.796   3.304 107.459   3.118   4.418 108.459

                      1                      2                      3
                      A                      A                      A
 Frequencies --    162.2877               181.6029               211.8907
 Red. masses --      3.4834                 1.3738                 1.9550
 Frc consts  --      0.0541                 0.0267                 0.0517
 IR Inten    --      1.5515                 0.6683                 1.2636

                      4                      5                      6
                      A                      A                      A
 Frequencies --    243.9267               308.0162               332.7069
 Red. masses --      1.1040                 5.5515                 2.3652
 Frc consts  --      0.0387                 0.3103                 0.1543
 IR Inten    --      0.9296                 1.4289                 2.5350

                      7                      8                      9
                      A                      A                      A
 Frequencies --    357.7013               397.9200               535.9575
 Red. masses --      2.5886                 2.9733                 3.2249
 Frc consts  --      0.1951                 0.2774                 0.5458
 IR Inten    --      0.0967                 3.3836                 3.4203

                     10                     11                     12
                      A                      A                      A
 Frequencies --    609.6233               659.7273               766.3476
 Red. masses --      3.8105                 5.8154                 4.5768
 Frc consts  --      0.8344                 1.4913                 1.5837
 IR Inten    --      5.0940                14.4143                 0.3785

                     13                     14                     15
                      A                      A                      A
 Frequencies --    779.9370               817.8618               838.6174
 Red. masses --      4.1630                 2.2318                 2.3299
 Frc consts  --      1.4920                 0.8795                 0.9654
 IR Inten    --      2.6297                13.9656                26.3520

                     16                     17                     18
                      A                      A                      A
 Frequencies --    876.8985               889.9371               926.8155
 Red. masses --      2.0464                 1.8088                 1.7865
 Frc consts  --      0.9271                 0.8441                 0.9041
 IR Inten    --      9.0112                10.4347                 0.9803

                     19                     20                     21
                      A                      A                      A
 Frequencies --    938.4526               958.4576               978.9245
 Red. masses --      2.1286                 3.2299                 2.1919
 Frc consts  --      1.1045                 1.7482                 1.2376
 IR Inten    --      0.6972                 0.8932                38.9199

                     22                     23                     24
                      A                      A                      A
 Frequencies --    995.7192              1014.4930              1033.8960
 Red. masses --      2.3291                 1.5360                 1.9067
 Frc consts  --      1.3605                 0.9314                 1.2009
 IR Inten    --     18.8563                 4.2063                27.1197

                     25                     26                     27
                      A                      A                      A
 Frequencies --   1051.3552              1158.5855              1165.2791
 Red. masses --      1.6855                 2.2415                 1.7824
 Frc consts  --      1.0977                 1.7728                 1.4260
 IR Inten    --     29.2465                 5.9072                12.4747

                     28                     29                     30
                      A                      A                      A
 Frequencies --   1181.2010              1209.5083              1230.2315
 Red. masses --      2.0530                 1.6048                 1.6228
 Frc consts  --      1.6877                 1.3832                 1.4471
 IR Inten    --     15.8605                 4.2308                13.1691

                     31                     32                     33
                      A                      A                      A
 Frequencies --   1254.3916              1283.3804              1291.2833
 Red. masses --      1.5031                 2.3742                 2.0516
 Frc consts  --      1.3935                 2.3040                 2.0155
 IR Inten    --      2.2685                 7.2241                32.3998

                     34                     35                     36
                      A                      A                      A
 Frequencies --   1312.7771              1381.2570              1396.3507
 Red. masses --      1.6613                 3.0092                 1.3266
 Frc consts  --      1.6869                 3.3826                 1.5240
 IR Inten    --      5.0878                16.1960                11.7803

                     37                     38                     39
                      A                      A                      A
 Frequencies --   1411.1409              1472.9974              1484.6028
 Red. masses --      1.2442                 1.0513                 1.0465
 Frc consts  --      1.4597                 1.3440                 1.3590
 IR Inten    --      7.9111                 2.2410                 0.9304

                     40                     41                     42
                      A                      A                      A
 Frequencies --   1492.3260              1512.8922              3030.9114
 Red. masses --      1.0667                 1.0509                 1.0354
 Frc consts  --      1.3997                 1.4173                 5.6043
 IR Inten    --      0.0379                 6.2725                12.5153

                     43                     44                     45
                      A                      A                      A
 Frequencies --   3039.7900              3073.4536              3095.9586
 Red. masses --      1.0399                 1.0884                 1.1003
 Frc consts  --      5.6616                 6.0576                 6.2136
 IR Inten    --     28.4900                42.9860                 7.7998

                     46                     47                     48
                      A                      A                      A
 Frequencies --   3105.0700              3111.7929              3123.3854
 Red. masses --      1.1008                 1.1018                 1.0894
 Frc consts  --      6.2529                 6.2861                 6.2615
 IR Inten    --     30.2020                21.9899                21.6676

                     49                     50                     51
                      A                      A                      A
 Frequencies --   3172.8145              3172.9746              3188.2814
 Red. masses --      1.0954                 1.0884                 1.1011
 Frc consts  --      6.4968                 6.4563                 6.5944
 IR Inten    --      3.5102                18.9516                27.3036

 - Thermochemistry -
 -------------------
 Temperature   298.150 Kelvin.  Pressure   1.00000 Atm.
 Atom     1 has atomic number  6 and mass  12.00000

 Molecular mass:   126.06808 amu.
 Principal axes and moments of inertia in atomic units:
                           1         2         3
     Eigenvalues --   560.581331157.799441302.41384
           X            0.99969   0.02464   0.00338
           Y           -0.02450   0.99899  -0.03758
           Z           -0.00431   0.03749   0.99929
 This molecule is an asymmetric top.
 Rotational symmetry number  1.
 Warning -- assumption of classical behavior for rotation
           may cause significant error
 Rotational temperatures (Kelvin)      0.15451     0.07481     0.06650
 Rotational constants (GHZ):           3.21941     1.55877     1.38569
 Zero-point vibrational energy     414037.8 (Joules/Mol)
                                   98.95740 (Kcal/Mol)
 Warning -- explicit consideration of  10 degrees of freedom as
           vibrations may cause significant error
 Vibrational temperatures:    233.50   261.29   304.86   350.96   443.17
          (Kelvin)            478.69   514.65   572.52   771.12   877.11
                              949.20  1102.60  1122.15  1176.72  1206.58
                             1261.66  1280.42  1333.48  1350.22  1379.00
                             1408.45  1432.62  1459.63  1487.54  1512.66
                             1666.94  1676.57  1699.48  1740.21  1770.03
                             1804.79  1846.50  1857.87  1888.79  1987.32
                             2009.03  2030.31  2119.31  2136.01  2147.12
                             2176.71  4360.80  4373.57  4422.01  4454.39
                             4467.50  4477.17  4493.85  4564.97  4565.20
                             4587.22

 Zero-point correction=                           0.157699 (Hartree/Particle)
 Thermal correction to Energy=                    0.165642
 Thermal correction to Enthalpy=                  0.166586
 Thermal correction to Gibbs Free Energy=         0.125855
 Sum of electronic and zero-point Energies=           -422.959277
 Sum of electronic and thermal Energies=              -422.951334
 Sum of electronic and thermal Enthalpies=            -422.950390
 Sum of electronic and thermal Free Energies=         -422.991121

                     E (Thermal)             CV                S
                      KCal/Mol        Cal/Mol-Kelvin    Cal/Mol-Kelvin
 Total                  103.942             31.822             85.726
 Electronic               0.000              0.000              0.000
 Translational            0.889              2.981             40.409
 Rotational               0.889              2.981             28.227
 Vibrational            102.164             25.861             17.091
 Vibration     1          0.622              1.889              2.523
 Vibration     2          0.630              1.865              2.312
 Vibration     3          0.643              1.823              2.027
 Vibration     4          0.659              1.773              1.774
 Vibration     5          0.698              1.658              1.373
 Vibration     6          0.715              1.610              1.247
 Vibration     7          0.733              1.559              1.132
 Vibration     8          0.764              1.475              0.970
 Vibration     9          0.891              1.171              0.574
 Vibration    10          0.969              1.011              0.433

 Optimization completed.
    -- Stationary point found.
 Normal termination of Gaussian 09 at Mon Jan 27 17:03:29 2020.
