 Gaussian 09, Revision D.01,
 Gaussian 09:  ES64L-G09RevD.01 24-Apr-2013

 -----------------------------
 # b3lyp 6-31G(2df,p) opt Freq
 -----------------------------

 -----
 titel
 -----
 Symbolic Z-matrix:
 Charge =  0 Multiplicity = 1

 SCF Done:  E(RB3LYP) =  -423.179453561     A.U. after   14 cycles
 Optimization completed.
    -- Stationary point found.
 Normal termination of Gaussian 09 at Tue Jan 28 00:06:50 2020.

 ----------------------------------------------------------------------
 #N Geom=AllCheck Guess=TCheck SCRF=Check GenChk RB3LYP/6-31G(2df,p) Fr
 eq
 ----------------------------------------------------------------------

 Structure from the checkpoint file:  "/scratch/puck/g09_33ecb338-5716-4b98-aa41-aea87b9c1a45/Gau-56652.chk"
 -----
 titel
 -----
 Charge =  0 Multiplicity = 1

                         Standard orientation:
 ---------------------------------------------------------------------
 Center     Atomic      Atomic             Coordinates (Angstroms)
 Number     Number       Type             X           Y           Z
 ---------------------------------------------------------------------
      1          6           0        2.241882    0.355781   -0.717453
      2          6           0        0.756282    0.064149   -0.869817
      3          6           0        0.193782   -1.289939   -0.335167
      4          8           0        0.570266   -1.283505    1.051056
      5          6           0        0.224719    0.063848    1.468894
      6          6           0       -0.294530    0.672129    0.153354
      7          6           0       -0.777130    2.098239    0.133319
      8          6           0       -1.150808   -0.532385   -0.312821
      9          8           0       -2.279860   -0.700136   -0.662094
     10          1           0        2.626902   -0.014506    0.234918
     11          1           0        2.807854   -0.133130   -1.516549
     12          1           0        2.441440    1.430721   -0.780949
     13          1           0        0.416400    0.248296   -1.894494
     14          1           0        0.373178   -2.264289   -0.781927
     15          1           0       -0.544948    0.031625    2.249567
     16          1           0        1.111521    0.569296    1.868022
     17          1           0       -1.565606    2.254431    0.877165
     18          1           0        0.035450    2.798447    0.356644
     19          1           0       -1.190610    2.357309   -0.845947
 ---------------------------------------------------------------------

 SCF Done:  E(RB3LYP) =  -423.179453561     A.U. after    1 cycles

 The electronic state is 1-A.
 Alpha  occ. eigenvalues --  -19.15087 -19.14538 -10.27171 -10.24337 -10.23946
 Alpha  occ. eigenvalues --  -10.21176 -10.20940 -10.19076 -10.18755  -1.06334
 Alpha  occ. eigenvalues --   -1.04283  -0.85149  -0.76341  -0.73066  -0.69847
 Alpha  occ. eigenvalues --   -0.59401  -0.58472  -0.53999  -0.50421  -0.47552
 Alpha  occ. eigenvalues --   -0.45846  -0.45495  -0.42220  -0.41266  -0.40669
 Alpha  occ. eigenvalues --   -0.40351  -0.39630  -0.38139  -0.35848  -0.35201
 Alpha  occ. eigenvalues --   -0.34064  -0.31568  -0.27980  -0.22353
 Alpha virt. eigenvalues --   -0.01756   0.07569   0.10800   0.11622   0.12607
 Alpha virt. eigenvalues --    0.12889   0.13457   0.14155   0.14604   0.17005
 Alpha virt. eigenvalues --    0.17692   0.18684   0.19352   0.19715   0.20296

 Mulliken charges:
               1
     1  C   -0.440952
     2  C   -0.028991
     3  C   -0.043823
     4  O   -0.277129
     5  C   -0.118640
     6  C    0.129249
     7  C   -0.506542
     8  C    0.418533
     9  O   -0.321564
    10  H    0.142094
    11  H    0.125488
    12  H    0.121747
    13  H    0.093534
    14  H    0.097490
    15  H    0.114354
    16  H    0.105929
    17  H    0.133096
    18  H    0.123314
    19  H    0.132812
 Sum of Mulliken charges =   0.00000

 Dipole moment (field-independent basis, Debye):
    X=              2.1058    Y=              1.8956    Z=             -0.1831  Tot=              2.8392
 Quadrupole moment (field-independent basis, Debye-Ang):
   XX=            -59.5904   YY=            -53.3001   ZZ=            -51.9206
   XY=             -1.3629   XZ=             -3.5802   YZ=              2.3554

  Exact polarizability:  81.188   0.413  74.303  -0.848   3.586  69.945
 Approx polarizability: 121.432   2.299 107.594   3.427   3.726 106.838

                      1                      2                      3
                      A                      A                      A
 Frequencies --    135.9709               154.9142               177.6923
 Red. masses --      3.6752                 1.1544                 1.3708
 Frc consts  --      0.0400                 0.0163                 0.0255
 IR Inten    --      2.1080                 0.0291                 0.6945

                      4                      5                      6
                      A                      A                      A
 Frequencies --    188.0081               229.9421               277.1953
 Red. masses --      1.8095                 3.3943                 2.9649
 Frc consts  --      0.0377                 0.1057                 0.1342
 IR Inten    --      0.4557                 0.7353                 1.6165

                      7                      8                      9
                      A                      A                      A
 Frequencies --    300.8241               331.3480               498.8967
 Red. masses --      2.4367                 2.8511                 3.4156
 Frc consts  --      0.1299                 0.1844                 0.5009
 IR Inten    --      2.9288                 3.7038                 3.5011

                     10                     11                     12
                      A                      A                      A
 Frequencies --    538.0804               607.5041               681.5158
 Red. masses --      3.9771                 3.9914                 3.7230
 Frc consts  --      0.6784                 0.8679                 1.0188
 IR Inten    --      4.5733                 2.4166                 0.8161

                     13                     14                     15
                      A                      A                      A
 Frequencies --    703.1722               748.3204               770.9979
 Red. masses --      3.4179                 2.9643                 5.0184
 Frc consts  --      0.9957                 0.9780                 1.7576
 IR Inten    --      1.3295                 2.3027                 7.9611

                     16                     17                     18
                      A                      A                      A
 Frequencies --    835.0395               910.1540               927.2977
 Red. masses --      3.8087                 3.3557                 2.1096
 Frc consts  --      1.5647                 1.6378                 1.0688
 IR Inten    --      7.4125                30.9059                 1.0801

                     19                     20                     21
                      A                      A                      A
 Frequencies --    985.2913               999.4406              1032.9063
 Red. masses --      4.1395                 1.3329                 1.8609
 Frc consts  --      2.3677                 0.7845                 1.1697
 IR Inten    --     43.2656                 6.5172                 0.6408

                     22                     23                     24
                      A                      A                      A
 Frequencies --   1054.9334              1065.1507              1106.5811
 Red. masses --      1.8888                 1.6923                 1.8989
 Frc consts  --      1.2384                 1.1312                 1.3700
 IR Inten    --      8.6312                24.6884                 1.5476

                     25                     26                     27
                      A                      A                      A
 Frequencies --   1128.7743              1171.9153              1196.5244
 Red. masses --      1.9137                 1.4058                 2.3909
 Frc consts  --      1.4366                 1.1375                 2.0167
 IR Inten    --      5.1356                 1.4582                 0.6685

                     28                     29                     30
                      A                      A                      A
 Frequencies --   1213.8326              1226.2722              1261.0672
 Red. masses --      1.6993                 1.8888                 1.4194
 Frc consts  --      1.4751                 1.6735                 1.3300
 IR Inten    --      0.9698                 3.2826                 2.6189

                     31                     32                     33
                      A                      A                      A
 Frequencies --   1298.9261              1371.5026              1399.9939
 Red. masses --      2.0276                 1.4775                 1.6379
 Frc consts  --      2.0156                 1.6375                 1.8915
 IR Inten    --      8.0321                 0.9206                 1.9687

                     34                     35                     36
                      A                      A                      A
 Frequencies --   1404.4062              1416.6456              1489.6296
 Red. masses --      1.2623                 1.3942                 1.0480
 Frc consts  --      1.4669                 1.6486                 1.3701
 IR Inten    --      2.2716                 1.1952                 3.6213

                     37                     38                     39
                      A                      A                      A
 Frequencies --   1490.0184              1492.0447              1501.9417
 Red. masses --      1.0461                 1.0465                 1.0516
 Frc consts  --      1.3683                 1.3726                 1.3977
 IR Inten    --      8.9206                 1.0831                 4.2169

                     40                     41                     42
                      A                      A                      A
 Frequencies --   1534.0917              1904.7005              3020.8322
 Red. masses --      1.0826                12.4034                 1.0548
 Frc consts  --      1.5012                26.5121                 5.6710
 IR Inten    --      0.9682               289.0778                50.3595

                     43                     44                     45
                      A                      A                      A
 Frequencies --   3031.8068              3040.2813              3058.8811
 Red. masses --      1.0365                 1.0383                 1.0842
 Frc consts  --      5.6134                 5.6548                 5.9771
 IR Inten    --     28.4113                24.8851                12.6186

                     46                     47                     48
                      A                      A                      A
 Frequencies --   3060.4827              3095.1249              3100.5336
 Red. masses --      1.1103                 1.1004                 1.1009
 Frc consts  --      6.1274                 6.2108                 6.2357
 IR Inten    --     32.5183                17.9605                16.6847

                     49                     50                     51
                      A                      A                      A
 Frequencies --   3107.6245              3132.0729              3165.8984
 Red. masses --      1.1009                 1.0992                 1.0926
 Frc consts  --      6.2643                 6.3533                 6.4523
 IR Inten    --     14.2283                13.9927                20.0094

 - Thermochemistry -
 -------------------
 Temperature   298.150 Kelvin.  Pressure   1.00000 Atm.
 Atom     1 has atomic number  6 and mass  12.00000

 Molecular mass:   126.06808 amu.
 Principal axes and moments of inertia in atomic units:
                           1         2         3
     Eigenvalues --   818.327781047.749761252.66736
           X            0.99787  -0.04056  -0.05116
           Y            0.04289   0.99805   0.04534
           Z            0.04922  -0.04744   0.99766
 This molecule is an asymmetric top.
 Rotational symmetry number  1.
 Warning -- assumption of classical behavior for rotation
           may cause significant error
 Rotational temperatures (Kelvin)      0.10584     0.08267     0.06914
 Rotational constants (GHZ):           2.20540     1.72249     1.44072
 Zero-point vibrational energy     416162.9 (Joules/Mol)
                                   99.46532 (Kcal/Mol)
 Warning -- explicit consideration of  11 degrees of freedom as
           vibrations may cause significant error
 Vibrational temperatures:    195.63   222.89   255.66   270.50   330.83
          (Kelvin)            398.82   432.82   476.74   717.80   774.18
                              874.06   980.55  1011.71  1076.66  1109.29
                             1201.43  1309.51  1334.17  1417.61  1437.97
                             1486.12  1517.81  1532.51  1592.12  1624.05
                             1686.12  1721.53  1746.43  1764.33  1814.39
                             1868.86  1973.28  2014.28  2020.62  2038.23
                             2143.24  2143.80  2146.72  2160.96  2207.21
                             2740.44  4346.30  4362.09  4374.28  4401.04
                             4403.35  4453.19  4460.97  4471.17  4506.35
                             4555.02

 Zero-point correction=                           0.158508 (Hartree/Particle)
 Thermal correction to Energy=                    0.167107
 Thermal correction to Enthalpy=                  0.168051
 Thermal correction to Gibbs Free Energy=         0.125689
 Sum of electronic and zero-point Energies=           -423.020945
 Sum of electronic and thermal Energies=              -423.012346
 Sum of electronic and thermal Enthalpies=            -423.011402
 Sum of electronic and thermal Free Energies=         -423.053765

                     E (Thermal)             CV                S
                      KCal/Mol        Cal/Mol-Kelvin    Cal/Mol-Kelvin
 Total                  104.861             32.632             89.159
 Electronic               0.000              0.000              0.000
 Translational            0.889              2.981             40.409
 Rotational               0.889              2.981             28.465
 Vibrational            103.084             26.671             20.286
 Vibration     1          0.614              1.917              2.860
 Vibration     2          0.620              1.897              2.611
 Vibration     3          0.628              1.870              2.353
 Vibration     4          0.633              1.856              2.247
 Vibration     5          0.652              1.795              1.879
 Vibration     6          0.678              1.716              1.551
 Vibration     7          0.693              1.672              1.412
 Vibration     8          0.714              1.613              1.254
 Vibration     9          0.854              1.252              0.661
 Vibration    10          0.893              1.166              0.569
 Vibration    11          0.966              1.016              0.437

 Optimization completed.
    -- Stationary point found.
 Normal termination of Gaussian 09 at Tue Jan 28 01:33:10 2020.
