 Gaussian 09, Revision D.01,
 Gaussian 09:  ES64L-G09RevD.01 24-Apr-2013

 -----------------------------
 # b3lyp 6-31G(2df,p) opt Freq
 -----------------------------

 -----
 titel
 -----
 Symbolic Z-matrix:
 Charge =  0 Multiplicity = 1

 SCF Done:  E(RB3LYP) =  -423.199864025     A.U. after   14 cycles
 Optimization completed.
    -- Stationary point found.
 Normal termination of Gaussian 09 at Mon Jan 27 17:44:18 2020.

 ----------------------------------------------------------------------
 #N Geom=AllCheck Guess=TCheck SCRF=Check GenChk RB3LYP/6-31G(2df,p) Fr
 eq
 ----------------------------------------------------------------------

 Structure from the checkpoint file:  "/scratch/puck/g09_805e3ea3-85e6-4c46-b33a-51db34204518/Gau-169560.chk"
 -----
 titel
 -----
 Charge =  0 Multiplicity = 1

                         Standard orientation:
 ---------------------------------------------------------------------
 Center     Atomic      Atomic             Coordinates (Angstroms)
 Number     Number       Type             X           Y           Z
 ---------------------------------------------------------------------
      1          6           0        2.655857   -1.027124   -0.333419
      2          6           0        1.393130   -0.288586    0.014126
      3          6           0        0.070204   -1.032413    0.130514
      4          6           0       -1.003229    0.083668    0.265591
      5          6           0       -0.390934    1.313581   -0.466112
      6          6           0        1.103387    1.109473   -0.332464
      7          8           0        1.512566    0.757426    0.998069
      8          6           0       -2.324888   -0.328777   -0.336465
      9          8           0       -3.374535   -0.383042    0.248351
     10          1           0        2.895827   -1.766806    0.438121
     11          1           0        2.547395   -1.558920   -1.284669
     12          1           0        3.497342   -0.334595   -0.411693
     13          1           0       -0.087346   -1.622507   -0.782884
     14          1           0        0.044636   -1.725788    0.976305
     15          1           0       -1.166567    0.319703    1.317205
     16          1           0       -0.658709    1.317409   -1.531755
     17          1           0       -0.739617    2.256237   -0.035405
     18          1           0        1.799538    1.735436   -0.886264
     19          1           0       -2.257911   -0.594173   -1.420945
 ---------------------------------------------------------------------

 SCF Done:  E(RB3LYP) =  -423.199864025     A.U. after    1 cycles

 The electronic state is 1-A.
 Alpha  occ. eigenvalues --  -19.15041 -19.14060 -10.27139 -10.24672 -10.23970
 Alpha  occ. eigenvalues --  -10.20216 -10.20197 -10.20093 -10.19093  -1.07434
 Alpha  occ. eigenvalues --   -1.04774  -0.82970  -0.76325  -0.71984  -0.67969
 Alpha  occ. eigenvalues --   -0.60900  -0.57100  -0.56506  -0.50835  -0.47632
 Alpha  occ. eigenvalues --   -0.45631  -0.44819  -0.44320  -0.42301  -0.40990
 Alpha  occ. eigenvalues --   -0.40646  -0.38938  -0.37422  -0.36078  -0.35252
 Alpha  occ. eigenvalues --   -0.34226  -0.29289  -0.26739  -0.25136
 Alpha virt. eigenvalues --   -0.02350   0.08709   0.09658   0.10558   0.10957
 Alpha virt. eigenvalues --    0.11992   0.13267   0.13913   0.15230   0.15909
 Alpha virt. eigenvalues --    0.17346   0.17801   0.18354   0.19859   0.20141

 Mulliken charges:
               1
     1  C   -0.484122
     2  C    0.417510
     3  C   -0.311452
     4  C   -0.061647
     5  C   -0.277051
     6  C   -0.010029
     7  O   -0.295304
     8  C    0.151662
     9  O   -0.246332
    10  H    0.131051
    11  H    0.122702
    12  H    0.133224
    13  H    0.104041
    14  H    0.122296
    15  H    0.112015
    16  H    0.106088
    17  H    0.126120
    18  H    0.094233
    19  H    0.064995
 Sum of Mulliken charges =   0.00000

 Dipole moment (field-independent basis, Debye):
    X=              2.3413    Y=             -0.3334    Z=             -2.3274  Tot=              3.3181
 Quadrupole moment (field-independent basis, Debye-Ang):
   XX=            -64.9300   YY=            -50.5978   ZZ=            -53.7164
   XY=             -3.0638   XZ=             -0.4169   YZ=             -1.7265

  Exact polarizability:  90.328  -1.603  72.948  -2.002  -1.341  65.091
 Approx polarizability: 118.666   0.131 107.780  -4.352  -0.407 107.936

                      1                      2                      3
                      A                      A                      A
 Frequencies --     66.7525                92.4830               184.9524
 Red. masses --      4.8881                 3.7280                 1.1144
 Frc consts  --      0.0128                 0.0188                 0.0225
 IR Inten    --      4.9045                 2.6012                 0.2315

                      4                      5                      6
                      A                      A                      A
 Frequencies --    230.4066               269.0204               340.3836
 Red. masses --      2.0333                 2.2734                 2.6344
 Frc consts  --      0.0636                 0.0969                 0.1798
 IR Inten    --      1.2567                 0.5900                 2.4071

                      7                      8                      9
                      A                      A                      A
 Frequencies --    353.6187               364.1027               403.1646
 Red. masses --      3.3568                 3.0075                 2.2836
 Frc consts  --      0.2473                 0.2349                 0.2187
 IR Inten    --      7.4720                 1.1959                 2.7702

                     10                     11                     12
                      A                      A                      A
 Frequencies --    494.2252               588.3330               688.7703
 Red. masses --      3.9930                 3.8433                 4.0855
 Frc consts  --      0.5746                 0.7838                 1.1419
 IR Inten    --     16.0188                 1.0045                 7.2630

                     13                     14                     15
                      A                      A                      A
 Frequencies --    718.6199               840.7168               862.8337
 Red. masses --      3.9115                 3.3322                 2.2525
 Frc consts  --      1.1901                 1.3877                 0.9880
 IR Inten    --      7.6681                 8.7418                 8.9617

                     16                     17                     18
                      A                      A                      A
 Frequencies --    897.6442               906.0225               924.6543
 Red. masses --      1.8903                 2.6347                 1.8907
 Frc consts  --      0.8974                 1.2743                 0.9524
 IR Inten    --      1.9068                 7.8932                 1.8735

                     19                     20                     21
                      A                      A                      A
 Frequencies --    981.0496               997.9386              1030.7469
 Red. masses --      1.8051                 1.7216                 1.6754
 Frc consts  --      1.0236                 1.0102                 1.0487
 IR Inten    --      0.2329                 1.9970                 5.4943

                     22                     23                     24
                      A                      A                      A
 Frequencies --   1060.4238              1084.5924              1101.2866
 Red. masses --      2.3519                 1.6970                 2.1850
 Frc consts  --      1.5582                 1.1762                 1.5614
 IR Inten    --     22.7659                19.9219                 1.7495

                     25                     26                     27
                      A                      A                      A
 Frequencies --   1146.9687              1182.9491              1220.4831
 Red. masses --      2.8389                 1.3335                 1.5078
 Frc consts  --      2.2004                 1.0995                 1.3233
 IR Inten    --     16.6928                 0.8965                11.5916

                     28                     29                     30
                      A                      A                      A
 Frequencies --   1234.3781              1278.0773              1293.2134
 Red. masses --      1.5501                 1.4888                 1.4371
 Frc consts  --      1.3916                 1.4328                 1.4160
 IR Inten    --      7.8893                 5.2782                 1.7421

                     31                     32                     33
                      A                      A                      A
 Frequencies --   1316.2908              1338.4253              1344.0800
 Red. masses --      1.7140                 1.2168                 1.8232
 Frc consts  --      1.7497                 1.2843                 1.9406
 IR Inten    --      7.8905                 2.3961                 3.1957

                     34                     35                     36
                      A                      A                      A
 Frequencies --   1413.0398              1427.6274              1457.6534
 Red. masses --      1.2803                 1.1941                 2.0814
 Frc consts  --      1.5061                 1.4339                 2.6057
 IR Inten    --      4.4997                 5.1252                12.7189

                     37                     38                     39
                      A                      A                      A
 Frequencies --   1476.5433              1482.6898              1489.9773
 Red. masses --      1.0969                 1.0942                 1.0936
 Frc consts  --      1.4090                 1.4172                 1.4304
 IR Inten    --      1.2048                 7.1623                 3.5539

                     40                     41                     42
                      A                      A                      A
 Frequencies --   1503.3597              1837.3258              2824.3512
 Red. masses --      1.3560                10.5643                 1.0806
 Frc consts  --      1.8057                21.0118                 5.0787
 IR Inten    --      1.0894               221.9809               100.9779

                     43                     44                     45
                      A                      A                      A
 Frequencies --   3019.5612              3023.5571              3036.6759
 Red. masses --      1.0656                 1.0666                 1.0370
 Frc consts  --      5.7245                 5.7450                 5.6341
 IR Inten    --     21.8338                23.3286                24.5502

                     46                     47                     48
                      A                      A                      A
 Frequencies --   3086.2594              3091.3192              3098.3531
 Red. masses --      1.0951                 1.0949                 1.1004
 Frc consts  --      6.1457                 6.1644                 6.2241
 IR Inten    --      8.4124                13.8808                19.0205

                     49                     50                     51
                      A                      A                      A
 Frequencies --   3119.1785              3125.0065              3141.0638
 Red. masses --      1.0874                 1.1009                 1.0909
 Frc consts  --      6.2332                 6.3345                 6.3417
 IR Inten    --     14.3965                11.9375                28.5365

 - Thermochemistry -
 -------------------
 Temperature   298.150 Kelvin.  Pressure   1.00000 Atm.
 Atom     1 has atomic number  6 and mass  12.00000

 Molecular mass:   126.06808 amu.
 Principal axes and moments of inertia in atomic units:
                           1         2         3
     Eigenvalues --   469.097231761.088991980.18965
           X            0.99970  -0.02404  -0.00516
           Y            0.02393   0.99949  -0.02119
           Z            0.00566   0.02106   0.99976
 This molecule is an asymmetric top.
 Rotational symmetry number  1.
 Warning -- assumption of classical behavior for rotation
           may cause significant error
 Rotational temperatures (Kelvin)      0.18464     0.04918     0.04374
 Rotational constants (GHZ):           3.84726     1.02479     0.91140
 Zero-point vibrational energy     415649.4 (Joules/Mol)
                                   99.34259 (Kcal/Mol)
 Warning -- explicit consideration of  11 degrees of freedom as
           vibrations may cause significant error
 Vibrational temperatures:     96.04   133.06   266.10   331.50   387.06
          (Kelvin)            489.74   508.78   523.86   580.06   711.08
                              846.48   990.99  1033.93  1209.60  1241.42
                             1291.51  1303.56  1330.37  1411.51  1435.81
                             1483.01  1525.71  1560.48  1584.50  1650.23
                             1702.00  1756.00  1775.99  1838.87  1860.64
                             1893.85  1925.69  1933.83  2033.05  2054.03
                             2097.24  2124.41  2133.26  2143.74  2163.00
                             2643.50  4063.61  4344.47  4350.22  4369.09
                             4440.43  4447.71  4457.83  4487.80  4496.18
                             4519.28

 Zero-point correction=                           0.158312 (Hartree/Particle)
 Thermal correction to Energy=                    0.166892
 Thermal correction to Enthalpy=                  0.167837
 Thermal correction to Gibbs Free Energy=         0.124749
 Sum of electronic and zero-point Energies=           -423.041552
 Sum of electronic and thermal Energies=              -423.032972
 Sum of electronic and thermal Enthalpies=            -423.032027
 Sum of electronic and thermal Free Energies=         -423.075115

                     E (Thermal)             CV                S
                      KCal/Mol        Cal/Mol-Kelvin    Cal/Mol-Kelvin
 Total                  104.727             32.183             90.685
 Electronic               0.000              0.000              0.000
 Translational            0.889              2.981             40.409
 Rotational               0.889              2.981             28.883
 Vibrational            102.949             26.221             21.394
 Vibration     1          0.598              1.970              4.247
 Vibration     2          0.602              1.955              3.607
 Vibration     3          0.631              1.860              2.278
 Vibration     4          0.652              1.795              1.876
 Vibration     5          0.673              1.730              1.602
 Vibration     6          0.720              1.595              1.210
 Vibration     7          0.730              1.568              1.150
 Vibration     8          0.738              1.546              1.105
 Vibration     9          0.769              1.463              0.951
 Vibration    10          0.850              1.263              0.673
 Vibration    11          0.946              1.057              0.470

 Normal termination of Gaussian 09 at Mon Jan 27 18:25:50 2020.
