 Gaussian 09, Revision D.01,
 Gaussian 09:  ES64L-G09RevD.01 24-Apr-2013

 -----------------------------
 # b3lyp 6-31G(2df,p) opt Freq
 -----------------------------

 -----
 titel
 -----
 Symbolic Z-matrix:
 Charge =  0 Multiplicity = 1

 SCF Done:  E(RB3LYP) =  -423.221126597     A.U. after   14 cycles
 Optimization completed.
    -- Stationary point found.
 Normal termination of Gaussian 09 at Tue Jan 28 08:19:57 2020.

 ----------------------------------------------------------------------
 #N Geom=AllCheck Guess=TCheck SCRF=Check GenChk RB3LYP/6-31G(2df,p) Fr
 eq
 ----------------------------------------------------------------------

 Structure from the checkpoint file:  "/scratch/puck/g09_99a97a48-628d-45fe-8932-d1b8a43fb76d/Gau-79815.chk"
 -----
 titel
 -----
 Charge =  0 Multiplicity = 1

                         Standard orientation:
 ---------------------------------------------------------------------
 Center     Atomic      Atomic             Coordinates (Angstroms)
 Number     Number       Type             X           Y           Z
 ---------------------------------------------------------------------
      1          8           0        2.200110   -1.157591    0.014750
      2          6           0        0.930842   -0.660507    0.341243
      3          6           0       -0.149498   -1.491620   -0.360630
      4          6           0       -1.550043   -1.310498    0.230162
      5          6           0       -2.286918   -0.033023   -0.185314
      6          6           0       -1.627108    1.298465    0.037210
      7          6           0       -0.338494    1.653862    0.140091
      8          6           0        0.890528    0.842765    0.048958
      9          8           0        1.946265    1.394576   -0.223838
     10          1           0        2.737532   -0.367417   -0.164845
     11          1           0        0.756251   -0.743868    1.432377
     12          1           0       -0.143004   -1.280574   -1.437216
     13          1           0        0.159785   -2.535343   -0.248037
     14          1           0       -2.175383   -2.159761   -0.066049
     15          1           0       -1.485278   -1.349739    1.325263
     16          1           0       -2.531715   -0.086173   -1.258584
     17          1           0       -3.261785   -0.008358    0.317654
     18          1           0       -2.337054    2.125228    0.051726
     19          1           0       -0.106208    2.713460    0.210108
 ---------------------------------------------------------------------

 SCF Done:  E(RB3LYP) =  -423.221126597     A.U. after    1 cycles

 The electronic state is 1-A.
 Alpha  occ. eigenvalues --  -19.14002 -19.12187 -10.27263 -10.23591 -10.21976
 Alpha  occ. eigenvalues --  -10.20665 -10.19888 -10.19619 -10.18847  -1.05561
 Alpha  occ. eigenvalues --   -1.00360  -0.83564  -0.77817  -0.74972  -0.65940
 Alpha  occ. eigenvalues --   -0.63984  -0.57515  -0.54309  -0.49184  -0.48746
 Alpha  occ. eigenvalues --   -0.47694  -0.45660  -0.43304  -0.42413  -0.41517
 Alpha  occ. eigenvalues --   -0.39498  -0.37338  -0.35210  -0.35067  -0.33804
 Alpha  occ. eigenvalues --   -0.33194  -0.27869  -0.26774  -0.25434
 Alpha virt. eigenvalues --   -0.05969   0.05156   0.07332   0.11200   0.11856
 Alpha virt. eigenvalues --    0.12438   0.14104   0.14880   0.15292   0.16743
 Alpha virt. eigenvalues --    0.18001   0.18506   0.20474   0.21204   0.23481

 Mulliken charges:
               1
     1  O   -0.444471
     2  C    0.046494
     3  C   -0.220469
     4  C   -0.214683
     5  C   -0.256171
     6  C   -0.031994
     7  C   -0.139663
     8  C    0.335177
     9  O   -0.351889
    10  H    0.290552
    11  H    0.086070
    12  H    0.102494
    13  H    0.120731
    14  H    0.104705
    15  H    0.105907
    16  H    0.129223
    17  H    0.115254
    18  H    0.110721
    19  H    0.112013
 Sum of Mulliken charges =   0.00000

 Dipole moment (field-independent basis, Debye):
    X=             -3.9198    Y=              0.1133    Z=              0.3098  Tot=              3.9337
 Quadrupole moment (field-independent basis, Debye-Ang):
   XX=            -55.1001   YY=            -55.1085   ZZ=            -52.9487
   XY=             -0.3895   XZ=              0.9307   YZ=              0.7099

  Exact polarizability: 102.207   3.101  80.427  -0.548   0.316  55.030
 Approx polarizability: 161.675  11.898 112.156  -2.963  -0.564  88.502

                      1                      2                      3
                      A                      A                      A
 Frequencies --     80.6994               111.1757               249.5243
 Red. masses --      5.2730                 2.5006                 2.8809
 Frc consts  --      0.0202                 0.0182                 0.1057
 IR Inten    --      0.2985                 1.3176                 0.1280

                      4                      5                      6
                      A                      A                      A
 Frequencies --    292.3102               316.6270               348.9158
 Red. masses --      2.1213                 4.1993                 4.5106
 Frc consts  --      0.1068                 0.2480                 0.3235
 IR Inten    --      2.3420                 3.3775                 5.4217

                      7                      8                      9
                      A                      A                      A
 Frequencies --    386.1023               413.7703               488.5832
 Red. masses --      3.6356                 3.7736                 2.3757
 Frc consts  --      0.3193                 0.3806                 0.3341
 IR Inten    --     15.4494                10.9796                14.9857

                     10                     11                     12
                      A                      A                      A
 Frequencies --    533.6850               587.2677               636.6942
 Red. masses --      1.2287                 3.9401                 2.6063
 Frc consts  --      0.2062                 0.8006                 0.6225
 IR Inten    --     52.1457                 3.6789                 2.0012

                     13                     14                     15
                      A                      A                      A
 Frequencies --    688.9641               759.6917               815.7277
 Red. masses --      1.6152                 4.5690                 2.1947
 Frc consts  --      0.4517                 1.5536                 0.8604
 IR Inten    --     12.0362                 3.8457                 6.6677

                     16                     17                     18
                      A                      A                      A
 Frequencies --    838.9699               896.2796               929.0784
 Red. masses --      2.0133                 2.1164                 2.1817
 Frc consts  --      0.8349                 1.0017                 1.1095
 IR Inten    --     26.1405                 2.0549                 2.3460

                     19                     20                     21
                      A                      A                      A
 Frequencies --    945.4689              1034.0590              1050.7033
 Red. masses --      2.4280                 1.2409                 1.9843
 Frc consts  --      1.2788                 0.7818                 1.2907
 IR Inten    --      2.4361                 1.9110                 8.9870

                     22                     23                     24
                      A                      A                      A
 Frequencies --   1089.2506              1100.6089              1136.5310
 Red. masses --      2.1688                 2.9516                 2.8769
 Frc consts  --      1.5161                 2.1066                 2.1894
 IR Inten    --     20.3899                20.3804               109.5978

                     25                     26                     27
                      A                      A                      A
 Frequencies --   1165.8493              1205.0891              1241.0835
 Red. masses --      1.2759                 2.0505                 1.3246
 Frc consts  --      1.0218                 1.7545                 1.2021
 IR Inten    --      5.9580                16.9134                17.8811

                     28                     29                     30
                      A                      A                      A
 Frequencies --   1270.1488              1291.0278              1315.5530
 Red. masses --      1.1851                 1.1646                 1.2977
 Frc consts  --      1.1265                 1.1436                 1.3232
 IR Inten    --      1.3032                11.8928                89.4154

                     31                     32                     33
                      A                      A                      A
 Frequencies --   1339.5815              1384.7610              1386.9804
 Red. masses --      1.1588                 1.5248                 1.5700
 Frc consts  --      1.2252                 1.7227                 1.7795
 IR Inten    --      4.3049                 0.8603                 4.6430

                     34                     35                     36
                      A                      A                      A
 Frequencies --   1403.4091              1430.3036              1453.1873
 Red. masses --      1.4417                 1.4950                 1.4586
 Frc consts  --      1.6730                 1.8020                 1.8148
 IR Inten    --      3.7541                 9.8368                88.9958

                     37                     38                     39
                      A                      A                      A
 Frequencies --   1462.3620              1490.5559              1492.4614
 Red. masses --      1.0878                 1.0947                 1.0933
 Frc consts  --      1.3706                 1.4330                 1.4348
 IR Inten    --      7.7413                 4.2891                 3.3890

                     40                     41                     42
                      A                      A                      A
 Frequencies --   1694.8099              1734.1686              2906.4067
 Red. masses --      7.1993                10.7828                 1.0788
 Frc consts  --     12.1837                19.1057                 5.3690
 IR Inten    --     21.1384               187.8799                37.9096

                     43                     44                     45
                      A                      A                      A
 Frequencies --   2987.6094              3023.5971              3035.0035
 Red. masses --      1.0708                 1.0654                 1.0644
 Frc consts  --      5.6313                 5.7387                 5.7767
 IR Inten    --     11.1171                13.6906                15.1028

                     46                     47                     48
                      A                      A                      A
 Frequencies --   3044.5113              3069.6488              3086.0717
 Red. masses --      1.0850                 1.0994                 1.0997
 Frc consts  --      5.9253                 6.1038                 6.1709
 IR Inten    --     37.3780                35.9982                21.8400

                     49                     50                     51
                      A                      A                      A
 Frequencies --   3128.7850              3168.0706              3653.9373
 Red. masses --      1.0853                 1.0911                 1.0639
 Frc consts  --      6.2598                 6.4519                 8.3692
 IR Inten    --     12.3296                10.3107                78.6833

 - Thermochemistry -
 -------------------
 Temperature   298.150 Kelvin.  Pressure   1.00000 Atm.
 Atom     1 has atomic number  8 and mass  15.99491

 Molecular mass:   126.06808 amu.
 Principal axes and moments of inertia in atomic units:
                           1         2         3
     Eigenvalues --   738.345981189.513111836.11777
           X            0.99999   0.00113   0.00312
           Y           -0.00114   0.99999   0.00328
           Z           -0.00312  -0.00328   0.99999
 This molecule is an asymmetric top.
 Rotational symmetry number  1.
 Warning -- assumption of classical behavior for rotation
           may cause significant error
 Rotational temperatures (Kelvin)      0.11731     0.07281     0.04717
 Rotational constants (GHZ):           2.44430     1.51721     0.98291
 Zero-point vibrational energy     422255.8 (Joules/Mol)
                                  100.92156 (Kcal/Mol)
 Warning -- explicit consideration of  11 degrees of freedom as
           vibrations may cause significant error
 Vibrational temperatures:    116.11   159.96   359.01   420.57   455.56
          (Kelvin)            502.01   555.51   595.32   702.96   767.85
                              844.95   916.06   991.26  1093.03  1173.65
                             1207.09  1289.54  1336.73  1360.32  1487.78
                             1511.73  1567.19  1583.53  1635.21  1677.39
                             1733.85  1785.64  1827.46  1857.50  1892.78
                             1927.36  1992.36  1995.55  2019.19  2057.89
                             2090.81  2104.01  2144.57  2147.32  2438.45
                             2495.08  4181.67  4298.50  4350.28  4366.69
                             4380.37  4416.53  4440.16  4501.62  4558.14
                             5257.19

 Zero-point correction=                           0.160829 (Hartree/Particle)
 Thermal correction to Energy=                    0.168970
 Thermal correction to Enthalpy=                  0.169914
 Thermal correction to Gibbs Free Energy=         0.128021
 Sum of electronic and zero-point Energies=           -423.060298
 Sum of electronic and thermal Energies=              -423.052157
 Sum of electronic and thermal Enthalpies=            -423.051213
 Sum of electronic and thermal Free Energies=         -423.093105

                     E (Thermal)             CV                S
                      KCal/Mol        Cal/Mol-Kelvin    Cal/Mol-Kelvin
 Total                  106.030             31.633             88.171
 Electronic               0.000              0.000              0.000
 Translational            0.889              2.981             40.409
 Rotational               0.889              2.981             28.868
 Vibrational            104.253             25.672             18.894
 Vibration     1          0.600              1.962              3.874
 Vibration     2          0.607              1.940              3.248
 Vibration     3          0.662              1.764              1.734
 Vibration     4          0.688              1.688              1.461
 Vibration     5          0.704              1.642              1.327
 Vibration     6          0.726              1.577              1.171
 Vibration     7          0.755              1.500              1.015
 Vibration     8          0.777              1.440              0.913
 Vibration     9          0.844              1.275              0.687
 Vibration    10          0.889              1.176              0.579
 Vibration    11          0.944              1.059              0.472

 Optimization completed.
    -- Stationary point found.
 Normal termination of Gaussian 09 at Tue Jan 28 09:12:26 2020.
