 Gaussian 09, Revision D.01,
 Gaussian 09:  ES64L-G09RevD.01 24-Apr-2013

 -----------------------------
 # b3lyp 6-31G(2df,p) opt Freq
 -----------------------------

 -----
 titel
 -----
 Symbolic Z-matrix:
 Charge =  0 Multiplicity = 1

 SCF Done:  E(RB3LYP) =  -423.108902540     A.U. after   14 cycles
 SCF Done:  E(RB3LYP) =  -423.108902526     A.U. after    6 cycles
 Optimization completed.
    -- Stationary point found.
 Normal termination of Gaussian 09 at Mon Jan 27 22:02:18 2020.

 ----------------------------------------------------------------------
 #N Geom=AllCheck Guess=TCheck SCRF=Check GenChk RB3LYP/6-31G(2df,p) Fr
 eq
 ----------------------------------------------------------------------

 Structure from the checkpoint file:  "/scratch/puck/g09_defcde52-a547-42c4-8ab6-557863da7b6e/Gau-192411.chk"
 -----
 titel
 -----
 Charge =  0 Multiplicity = 1

                         Standard orientation:
 ---------------------------------------------------------------------
 Center     Atomic      Atomic             Coordinates (Angstroms)
 Number     Number       Type             X           Y           Z
 ---------------------------------------------------------------------
      1          6           0       -3.191219   -0.937723   -0.243462
      2          6           0       -1.868963   -0.251836   -0.504715
      3          6           0       -1.374956    0.875913    0.377534
      4          8           0       -0.666445    1.949963   -0.163107
      5          6           0       -0.699084   -0.476323    0.419834
      6          8           0        0.558013   -0.536322   -0.198779
      7          6           0        1.614699   -0.264595    0.725185
      8          6           0        2.886036   -0.234242    0.017608
      9          6           0        3.945987   -0.198365   -0.545387
     10          1           0       -3.410713   -0.980586    0.828805
     11          1           0       -4.014489   -0.400601   -0.725987
     12          1           0       -3.189017   -1.966145   -0.621022
     13          1           0       -1.585498   -0.153252   -1.550228
     14          1           0       -1.993749    1.195040    1.210555
     15          1           0        0.045437    1.569468   -0.694478
     16          1           0       -0.815277   -1.135773    1.281137
     17          1           0        1.438115    0.696535    1.229532
     18          1           0        1.636181   -1.042805    1.504514
     19          1           0        4.881475   -0.167991   -1.047320
 ---------------------------------------------------------------------

 SCF Done:  E(RB3LYP) =  -423.108902526     A.U. after    1 cycles

 The electronic state is 1-A.
 Alpha  occ. eigenvalues --  -19.16379 -19.13960 -10.26147 -10.23567 -10.23340
 Alpha  occ. eigenvalues --  -10.19085 -10.18983 -10.18406 -10.18386  -1.05980
 Alpha  occ. eigenvalues --   -1.01999  -0.84975  -0.77553  -0.71497  -0.69492
 Alpha  occ. eigenvalues --   -0.60533  -0.58800  -0.53804  -0.52580  -0.51023
 Alpha  occ. eigenvalues --   -0.48149  -0.46158  -0.44641  -0.42242  -0.41109
 Alpha  occ. eigenvalues --   -0.37942  -0.37294  -0.36122  -0.35711  -0.30775
 Alpha  occ. eigenvalues --   -0.28552  -0.27310  -0.26518  -0.22970
 Alpha virt. eigenvalues --    0.02362   0.04895   0.09133   0.09877   0.11139
 Alpha virt. eigenvalues --    0.12050   0.13294   0.14582   0.15141   0.15768
 Alpha virt. eigenvalues --    0.16281   0.17114   0.18761   0.19843   0.21315

 Mulliken charges:
               1
     1  C   -0.415269
     2  C   -0.105034
     3  C    0.104069
     4  O   -0.437313
     5  C    0.067933
     6  O   -0.268031
     7  C   -0.227105
     8  C    0.280154
     9  C   -0.414124
    10  H    0.114775
    11  H    0.125326
    12  H    0.123433
    13  H    0.100030
    14  H    0.102322
    15  H    0.291709
    16  H    0.084588
    17  H    0.140666
    18  H    0.127844
    19  H    0.204029
 Sum of Mulliken charges =   0.00000

 Dipole moment (field-independent basis, Debye):
    X=              0.0181    Y=             -1.1625    Z=              0.8418  Tot=              1.4354
 Quadrupole moment (field-independent basis, Debye-Ang):
   XX=            -46.4743   YY=            -58.6633   ZZ=            -50.5302
   XY=              2.5952   XZ=             -2.1223   YZ=             -1.2612

  Exact polarizability: 108.839   3.000  64.022  -7.961  -0.825  64.992
 Approx polarizability: 138.144   2.233  95.340 -17.909  -0.832 101.984

                      1                      2                      3
                      A                      A                      A
 Frequencies --     45.1783                93.1263               105.3904
 Red. masses --      4.5170                 3.3062                 3.1071
 Frc consts  --      0.0054                 0.0169                 0.0203
 IR Inten    --      0.2558                 5.1026                 5.5696

                      4                      5                      6
                      A                      A                      A
 Frequencies --    187.2300               201.5938               238.4706
 Red. masses --      1.1465                 3.3639                 2.9431
 Frc consts  --      0.0237                 0.0805                 0.0986
 IR Inten    --      0.4288                 2.4549                 0.4704

                      7                      8                      9
                      A                      A                      A
 Frequencies --    257.3574               303.2770               336.4632
 Red. masses --      4.3150                 3.0239                 3.5299
 Frc consts  --      0.1684                 0.1639                 0.2354
 IR Inten    --     17.0765                 0.9749                 2.4991

                     10                     11                     12
                      A                      A                      A
 Frequencies --    372.3513               429.8095               441.7624
 Red. masses --      3.0713                 1.3080                 2.8556
 Frc consts  --      0.2509                 0.1424                 0.3283
 IR Inten    --      5.0403                95.4010                 4.0441

                     13                     14                     15
                      A                      A                      A
 Frequencies --    534.1366               612.8286               680.2226
 Red. masses --      5.2737                 1.1957                 1.2460
 Frc consts  --      0.8865                 0.2646                 0.3397
 IR Inten    --      0.6680                44.0932                34.6124

                     16                     17                     18
                      A                      A                      A
 Frequencies --    696.8876               795.5387               832.7569
 Red. masses --      4.8805                 2.4965                 2.3252
 Frc consts  --      1.3965                 0.9309                 0.9500
 IR Inten    --      8.2340                24.6172                 3.7906

                     19                     20                     21
                      A                      A                      A
 Frequencies --    911.3425               967.1976              1003.7867
 Red. masses --      1.9801                 2.7592                 2.3964
 Frc consts  --      0.9689                 1.5207                 1.4226
 IR Inten    --      6.5389                25.0753                25.1052

                     22                     23                     24
                      A                      A                      A
 Frequencies --   1013.3572              1036.8756              1060.4203
 Red. masses --      1.7139                 1.6844                 1.9477
 Frc consts  --      1.0370                 1.0669                 1.2904
 IR Inten    --     21.0841                11.6489                53.1543

                     25                     26                     27
                      A                      A                      A
 Frequencies --   1096.3348              1109.4101              1144.2460
 Red. masses --      1.5328                 1.9724                 2.6977
 Frc consts  --      1.0855                 1.4303                 2.0811
 IR Inten    --      7.8247                41.5737                37.6211

                     28                     29                     30
                      A                      A                      A
 Frequencies --   1147.4910              1176.7390              1212.8757
 Red. masses --      2.2482                 2.4057                 1.6580
 Frc consts  --      1.7441                 1.9627                 1.4370
 IR Inten    --     32.1886                49.0791                50.5471

                     31                     32                     33
                      A                      A                      A
 Frequencies --   1251.5807              1287.9979              1331.7469
 Red. masses --      1.0677                 1.3730                 1.3414
 Frc consts  --      0.9855                 1.3420                 1.4017
 IR Inten    --      1.1276                 8.6466                43.3221

                     34                     35                     36
                      A                      A                      A
 Frequencies --   1385.2144              1416.5207              1422.6702
 Red. masses --      1.4003                 1.2673                 1.3234
 Frc consts  --      1.5831                 1.4982                 1.5782
 IR Inten    --     38.2261                 5.2945                55.7528

                     37                     38                     39
                      A                      A                      A
 Frequencies --   1474.3995              1494.3638              1500.8839
 Red. masses --      1.9145                 1.0467                 1.0785
 Frc consts  --      2.4521                 1.3772                 1.4314
 IR Inten    --     33.3130                 3.9846                 0.9757

                     40                     41                     42
                      A                      A                      A
 Frequencies --   1502.6192              2248.4381              2979.6058
 Red. masses --      1.1295                 5.8929                 1.0607
 Frc consts  --      1.5026                17.5526                 5.5483
 IR Inten    --      9.9426                 2.6066                31.5166

                     43                     44                     45
                      A                      A                      A
 Frequencies --   3017.2499              3028.3454              3088.9223
 Red. masses --      1.0980                 1.0350                 1.0899
 Frc consts  --      5.8894                 5.5927                 6.1269
 IR Inten    --     15.6978                34.6697                21.5938

                     46                     47                     48
                      A                      A                      A
 Frequencies --   3093.1380              3096.8399              3142.2245
 Red. masses --      1.0993                 1.1007                 1.0883
 Frc consts  --      6.1967                 6.2195                 6.3310
 IR Inten    --     22.0172                26.2385                 6.3072

                     49                     50                     51
                      A                      A                      A
 Frequencies --   3161.6073              3505.7619              3765.0302
 Red. masses --      1.0892                 1.1640                 1.0649
 Frc consts  --      6.4148                 8.4290                 8.8943
 IR Inten    --     23.1351                64.3130                38.0935

 - Thermochemistry -
 -------------------
 Temperature   298.150 Kelvin.  Pressure   1.00000 Atm.
 Atom     1 has atomic number  6 and mass  12.00000

 Molecular mass:   126.06808 amu.
 Principal axes and moments of inertia in atomic units:
                           1         2         3
     Eigenvalues --   476.396632242.309012496.77295
           X            0.99985   0.01742  -0.00002
           Y           -0.01742   0.99980  -0.01009
           Z           -0.00016   0.01009   0.99995
 This molecule is an asymmetric top.
 Rotational symmetry number  1.
 Warning -- assumption of classical behavior for rotation
           may cause significant error
 Rotational temperatures (Kelvin)      0.18181     0.03863     0.03469
 Rotational constants (GHZ):           3.78832     0.80486     0.72283
 Zero-point vibrational energy     408163.6 (Joules/Mol)
                                   97.55343 (Kcal/Mol)
 Warning -- explicit consideration of  14 degrees of freedom as
           vibrations may cause significant error
 Vibrational temperatures:     65.00   133.99   151.63   269.38   290.05
          (Kelvin)            343.11   370.28   436.35   484.09   535.73
                              618.40   635.60   768.50   881.72   978.69
                             1002.66  1144.60  1198.15  1311.22  1391.58
                             1444.22  1457.99  1491.83  1525.71  1577.38
                             1596.19  1646.31  1650.98  1693.06  1745.06
                             1800.74  1853.14  1916.08  1993.01  2038.05
                             2046.90  2121.33  2150.05  2159.43  2161.93
                             3235.00  4286.98  4341.14  4357.11  4444.26
                             4450.33  4455.66  4520.95  4548.84  5044.00
                             5417.03

 Zero-point correction=                           0.155461 (Hartree/Particle)
 Thermal correction to Energy=                    0.165577
 Thermal correction to Enthalpy=                  0.166521
 Thermal correction to Gibbs Free Energy=         0.119911
 Sum of electronic and zero-point Energies=           -422.953441
 Sum of electronic and thermal Energies=              -422.943325
 Sum of electronic and thermal Enthalpies=            -422.942381
 Sum of electronic and thermal Free Energies=         -422.988991

                     E (Thermal)             CV                S
                      KCal/Mol        Cal/Mol-Kelvin    Cal/Mol-Kelvin
 Total                  103.901             36.620             98.099
 Electronic               0.000              0.000              0.000
 Translational            0.889              2.981             40.409
 Rotational               0.889              2.981             29.368
 Vibrational            102.124             30.658             28.322
 Vibration     1          0.595              1.979              5.018
 Vibration     2          0.602              1.954              3.593
 Vibration     3          0.605              1.945              3.352
 Vibration     4          0.632              1.857              2.255
 Vibration     5          0.638              1.838              2.119
 Vibration     6          0.656              1.782              1.814
 Vibration     7          0.667              1.750              1.680
 Vibration     8          0.695              1.667              1.399
 Vibration     9          0.717              1.603              1.229
 Vibration    10          0.744              1.529              1.070
 Vibration    11          0.791              1.405              0.859
 Vibration    12          0.802              1.379              0.821
 Vibration    13          0.889              1.175              0.578
 Vibration    14          0.972              1.005              0.428

 Optimization completed.
    -- Stationary point found.
 Normal termination of Gaussian 09 at Mon Jan 27 22:35:57 2020.
