 Gaussian 09, Revision D.01,
 Gaussian 09:  ES64L-G09RevD.01 24-Apr-2013

 -----------------------------
 # b3lyp 6-31G(2df,p) opt Freq
 -----------------------------

 -----
 titel
 -----
 Symbolic Z-matrix:
 Charge =  0 Multiplicity = 1

 SCF Done:  E(RB3LYP) =  -423.201325549     A.U. after   14 cycles
 Optimization completed.
    -- Stationary point found.
 Normal termination of Gaussian 09 at Tue Jan 28 04:08:33 2020.

 ----------------------------------------------------------------------
 #N Geom=AllCheck Guess=TCheck SCRF=Check GenChk RB3LYP/6-31G(2df,p) Fr
 eq
 ----------------------------------------------------------------------

 Structure from the checkpoint file:  "/scratch/puck/g09_3d34644c-2c93-4647-89e9-404663abc370/Gau-81934.chk"
 -----
 titel
 -----
 Charge =  0 Multiplicity = 1

                         Standard orientation:
 ---------------------------------------------------------------------
 Center     Atomic      Atomic             Coordinates (Angstroms)
 Number     Number       Type             X           Y           Z
 ---------------------------------------------------------------------
      1          6           0        2.472114    0.316851    0.648136
      2          6           0        1.449018    0.029603   -0.455043
      3          8           0        1.072248   -1.342196   -0.519951
      4          6           0       -0.158349   -1.541589    0.183505
      5          6           0       -0.901343   -0.224629    0.080890
      6          6           0       -2.263384   -0.050592   -0.574251
      7          6           0       -2.108884    0.170570    0.895392
      8          6           0        0.144035    0.798660   -0.222221
      9          8           0       -0.000929    1.996009   -0.270198
     10          1           0        2.076885    0.051712    1.634057
     11          1           0        3.382140   -0.262993    0.474963
     12          1           0        2.720898    1.381977    0.652362
     13          1           0        1.867853    0.307162   -1.429187
     14          1           0       -0.676823   -2.379955   -0.290878
     15          1           0        0.036100   -1.809482    1.234122
     16          1           0       -2.384918    0.820285   -1.209279
     17          1           0       -2.758805   -0.952469   -0.917913
     18          1           0       -2.123969    1.193206    1.257822
     19          1           0       -2.509150   -0.573188    1.576681
 ---------------------------------------------------------------------

 SCF Done:  E(RB3LYP) =  -423.201325549     A.U. after    1 cycles

 The electronic state is 1-A.
 Alpha  occ. eigenvalues --  -19.14429 -19.13343 -10.26735 -10.23864 -10.23844
 Alpha  occ. eigenvalues --  -10.20800 -10.20550 -10.20331 -10.18332  -1.05176
 Alpha  occ. eigenvalues --   -1.03351  -0.87636  -0.77042  -0.71824  -0.67658
 Alpha  occ. eigenvalues --   -0.61644  -0.58664  -0.53976  -0.50211  -0.49140
 Alpha  occ. eigenvalues --   -0.47666  -0.45658  -0.42645  -0.41805  -0.40454
 Alpha  occ. eigenvalues --   -0.39413  -0.38220  -0.37093  -0.36796  -0.35459
 Alpha  occ. eigenvalues --   -0.31216  -0.29553  -0.26148  -0.24008
 Alpha virt. eigenvalues --   -0.02329   0.08632   0.09496   0.10920   0.11518
 Alpha virt. eigenvalues --    0.13234   0.14063   0.14957   0.15751   0.16753
 Alpha virt. eigenvalues --    0.18420   0.19059   0.19553   0.20660   0.22325

 Mulliken charges:
               1
     1  C   -0.403043
     2  C    0.020419
     3  O   -0.269764
     4  C   -0.185496
     5  C    0.220842
     6  C   -0.290003
     7  C   -0.303505
     8  C    0.317258
     9  O   -0.340361
    10  H    0.119970
    11  H    0.129172
    12  H    0.138086
    13  H    0.110626
    14  H    0.114714
    15  H    0.098414
    16  H    0.138700
    17  H    0.123171
    18  H    0.138986
    19  H    0.121812
 Sum of Mulliken charges =   0.00000

 Dipole moment (field-independent basis, Debye):
    X=             -0.8574    Y=             -1.5667    Z=              0.7984  Tot=              1.9563
 Quadrupole moment (field-independent basis, Debye-Ang):
   XX=            -49.7204   YY=            -59.4031   ZZ=            -51.7737
   XY=              3.5057   XZ=              0.3945   YZ=             -0.7901

  Exact polarizability:  89.724   3.608  74.592  -0.649  -1.621  64.326
 Approx polarizability: 115.570   4.325 117.516  -2.903  -1.979  98.098

                      1                      2                      3
                      A                      A                      A
 Frequencies --     56.6640               114.3854               209.2612
 Red. masses --      3.7158                 2.9902                 2.8863
 Frc consts  --      0.0070                 0.0231                 0.0745
 IR Inten    --      2.2760                 3.9550                 1.8587

                      4                      5                      6
                      A                      A                      A
 Frequencies --    225.8996               239.9768               248.4712
 Red. masses --      1.0949                 3.3779                 2.5269
 Frc consts  --      0.0329                 0.1146                 0.0919
 IR Inten    --      0.3248                 3.3679                 0.6679

                      7                      8                      9
                      A                      A                      A
 Frequencies --    332.9902               387.5341               460.7941
 Red. masses --      2.3982                 3.4733                 4.0787
 Frc consts  --      0.1567                 0.3073                 0.5103
 IR Inten    --      0.9165                 5.1534                15.3326

                     10                     11                     12
                      A                      A                      A
 Frequencies --    556.2833               646.3964               699.0669
 Red. masses --      4.2835                 7.1749                 3.7559
 Frc consts  --      0.7810                 1.7663                 1.0814
 IR Inten    --      2.8096                 3.8413                 7.2635

                     13                     14                     15
                      A                      A                      A
 Frequencies --    759.0494               790.3806               841.4175
 Red. masses --      3.3402                 1.0657                 2.7799
 Frc consts  --      1.1339                 0.3923                 1.1596
 IR Inten    --      2.1641                 0.4306                 5.3855

                     16                     17                     18
                      A                      A                      A
 Frequencies --    863.9865               894.3821               945.1836
 Red. masses --      2.7398                 2.8796                 1.2453
 Frc consts  --      1.2050                 1.3571                 0.6555
 IR Inten    --     11.9515                 0.5292                 3.8477

                     19                     20                     21
                      A                      A                      A
 Frequencies --    962.9007               998.3059              1042.1108
 Red. masses --      2.1487                 2.7886                 2.0500
 Frc consts  --      1.1738                 1.6374                 1.3117
 IR Inten    --      8.3851                 6.1161                74.9168

                     22                     23                     24
                      A                      A                      A
 Frequencies --   1064.6766              1076.9338              1087.8076
 Red. masses --      1.2612                 1.5853                 2.4539
 Frc consts  --      0.8423                 1.0833                 1.7108
 IR Inten    --      4.2901                 7.3889                32.0153

                     25                     26                     27
                      A                      A                      A
 Frequencies --   1103.8844              1123.2597              1142.0855
 Red. masses --      1.9782                 2.5273                 2.5554
 Frc consts  --      1.4203                 1.8787                 1.9638
 IR Inten    --     11.4289                14.0713                74.5194

                     28                     29                     30
                      A                      A                      A
 Frequencies --   1201.5478              1230.3215              1284.2869
 Red. masses --      1.2944                 1.1395                 2.6607
 Frc consts  --      1.1011                 1.0163                 2.5857
 IR Inten    --      0.0134                 9.6971                26.8660

                     31                     32                     33
                      A                      A                      A
 Frequencies --   1302.0147              1331.8187              1354.6912
 Red. masses --      1.7882                 1.7109                 1.3795
 Frc consts  --      1.7861                 1.7880                 1.4916
 IR Inten    --      2.4965                13.8887                20.3359

                     34                     35                     36
                      A                      A                      A
 Frequencies --   1393.5296              1408.0844              1455.5966
 Red. masses --      1.2498                 1.6610                 1.0893
 Frc consts  --      1.4299                 1.9403                 1.3598
 IR Inten    --      7.1635                53.7836                 3.2166

                     37                     38                     39
                      A                      A                      A
 Frequencies --   1487.0370              1487.7746              1494.7662
 Red. masses --      1.0531                 1.4074                 1.0521
 Frc consts  --      1.3721                 1.8355                 1.3850
 IR Inten    --      4.1251                 9.6355                 1.2271

                     40                     41                     42
                      A                      A                      A
 Frequencies --   1523.1844              1833.7571              2975.5066
 Red. masses --      1.0915                12.2737                 1.0709
 Frc consts  --      1.4921                24.3169                 5.5865
 IR Inten    --      0.3199               151.5693                60.2154

                     43                     44                     45
                      A                      A                      A
 Frequencies --   3040.7910              3046.2086              3075.9046
 Red. masses --      1.0375                 1.0810                 1.0933
 Frc consts  --      5.6522                 5.9102                 6.0946
 IR Inten    --     11.9429                19.0419                29.2465

                     46                     47                     48
                      A                      A                      A
 Frequencies --   3115.4984              3128.4958              3128.6441
 Red. masses --      1.1013                 1.0522                 1.1026
 Frc consts  --      6.2979                 6.0679                 6.3590
 IR Inten    --     23.1076                11.4293                12.4526

                     49                     50                     51
                      A                      A                      A
 Frequencies --   3131.9804              3215.1718              3230.2369
 Red. masses --      1.0547                 1.1188                 1.1171
 Frc consts  --      6.0956                 6.8143                 6.8676
 IR Inten    --     12.0408                 0.0888                 5.2863

 - Thermochemistry -
 -------------------
 Temperature   298.150 Kelvin.  Pressure   1.00000 Atm.
 Atom     1 has atomic number  6 and mass  12.00000

 Molecular mass:   126.06808 amu.
 Principal axes and moments of inertia in atomic units:
                           1         2         3
     Eigenvalues --   664.931941195.826021567.86932
           X            0.99944   0.03132   0.01216
           Y           -0.03125   0.99949  -0.00603
           Z           -0.01234   0.00564   0.99991
 This molecule is an asymmetric top.
 Rotational symmetry number  1.
 Warning -- assumption of classical behavior for rotation
           may cause significant error
 Rotational temperatures (Kelvin)      0.13026     0.07243     0.05524
 Rotational constants (GHZ):           2.71417     1.50920     1.15108
 Zero-point vibrational energy     417203.2 (Joules/Mol)
                                   99.71397 (Kcal/Mol)
 Warning -- explicit consideration of  10 degrees of freedom as
           vibrations may cause significant error
 Vibrational temperatures:     81.53   164.57   301.08   325.02   345.27
          (Kelvin)            357.49   479.10   557.57   662.98   800.37
                              930.02  1005.80  1092.10  1137.18  1210.61
                             1243.08  1286.81  1359.91  1385.40  1436.34
                             1499.36  1531.83  1549.47  1565.11  1588.24
                             1616.12  1643.20  1728.76  1770.16  1847.80
                             1873.31  1916.19  1949.10  2004.98  2025.92
                             2094.28  2139.51  2140.57  2150.63  2191.52
                             2638.36  4281.08  4375.01  4382.81  4425.54
                             4482.50  4501.20  4501.42  4506.22  4625.91
                             4647.58

 Zero-point correction=                           0.158904 (Hartree/Particle)
 Thermal correction to Energy=                    0.167493
 Thermal correction to Enthalpy=                  0.168437
 Thermal correction to Gibbs Free Energy=         0.125429
 Sum of electronic and zero-point Energies=           -423.042421
 Sum of electronic and thermal Energies=              -423.033833
 Sum of electronic and thermal Enthalpies=            -423.032889
 Sum of electronic and thermal Free Energies=         -423.075897

                     E (Thermal)             CV                S
                      KCal/Mol        Cal/Mol-Kelvin    Cal/Mol-Kelvin
 Total                  105.103             32.246             90.518
 Electronic               0.000              0.000              0.000
 Translational            0.889              2.981             40.409
 Rotational               0.889              2.981             28.613
 Vibrational            103.326             26.284             21.496
 Vibration     1          0.596              1.975              4.570
 Vibration     2          0.607              1.938              3.193
 Vibration     3          0.642              1.827              2.050
 Vibration     4          0.650              1.802              1.911
 Vibration     5          0.657              1.779              1.803
 Vibration     6          0.662              1.765              1.741
 Vibration     7          0.715              1.610              1.246
 Vibration     8          0.756              1.497              1.010
 Vibration     9          0.819              1.337              0.764
 Vibration    10          0.912              1.126              0.531

 Optimization completed.
    -- Stationary point found.
 Normal termination of Gaussian 09 at Tue Jan 28 04:46:38 2020.
