 Gaussian 09, Revision D.01,
 Gaussian 09:  ES64L-G09RevD.01 24-Apr-2013

 -----------------------------
 # b3lyp 6-31G(2df,p) opt Freq
 -----------------------------

 -----
 titel
 -----
 Symbolic Z-matrix:
 Charge =  0 Multiplicity = 1

 SCF Done:  E(RB3LYP) =  -423.075001663     A.U. after   14 cycles
 Optimization completed.
    -- Stationary point found.
 Normal termination of Gaussian 09 at Tue Jan 28 14:06:00 2020.

 ----------------------------------------------------------------------
 #N Geom=AllCheck Guess=TCheck SCRF=Check GenChk RB3LYP/6-31G(2df,p) Fr
 eq
 ----------------------------------------------------------------------

 Structure from the checkpoint file:  "/scratch/puck/g09_ca2c3240-4004-4d35-abe2-46ca6a5ec80c/Gau-98257.chk"
 -----
 titel
 -----
 Charge =  0 Multiplicity = 1

                         Standard orientation:
 ---------------------------------------------------------------------
 Center     Atomic      Atomic             Coordinates (Angstroms)
 Number     Number       Type             X           Y           Z
 ---------------------------------------------------------------------
      1          8           0        2.937311   -0.591681   -0.394777
      2          6           0        1.835328   -0.540471    0.504278
      3          6           0        0.947141    0.662943    0.234674
      4          6           0       -0.157594    0.687977   -0.871616
      5          8           0       -0.751625    1.854984   -0.174049
      6          6           0       -0.448821    0.867391    0.894473
      7          6           0       -1.053152   -0.215445   -0.011825
      8          6           0       -1.337510   -1.676325    0.092792
      9          6           0       -2.452226   -0.675831   -0.194816
     10          1           0        2.585789   -0.711409   -1.282607
     11          1           0        1.264110   -1.476898    0.490727
     12          1           0        2.278797   -0.443706    1.501678
     13          1           0        1.531051    1.586847    0.231626
     14          1           0       -0.064222    0.748190   -1.957356
     15          1           0       -0.700458    1.140054    1.920279
     16          1           0       -1.020787   -2.329729   -0.714399
     17          1           0       -1.313177   -2.143173    1.072589
     18          1           0       -2.875662   -0.662014   -1.193839
     19          1           0       -3.169925   -0.476015    0.594140
 ---------------------------------------------------------------------

 SCF Done:  E(RB3LYP) =  -423.075001664     A.U. after    1 cycles

 The electronic state is 1-A.
 Alpha  occ. eigenvalues --  -19.13643 -19.13237 -10.25076 -10.25059 -10.22814
 Alpha  occ. eigenvalues --  -10.20843 -10.19661 -10.19494 -10.18938  -1.05642
 Alpha  occ. eigenvalues --   -1.01627  -0.86075  -0.78208  -0.69134  -0.65646
 Alpha  occ. eigenvalues --   -0.61705  -0.60745  -0.52555  -0.52070  -0.50688
 Alpha  occ. eigenvalues --   -0.48257  -0.46200  -0.43975  -0.40311  -0.39166
 Alpha  occ. eigenvalues --   -0.37310  -0.37296  -0.33287  -0.32878  -0.31666
 Alpha  occ. eigenvalues --   -0.30870  -0.28626  -0.26725  -0.23588
 Alpha virt. eigenvalues --    0.06035   0.08460   0.08836   0.10325   0.11150
 Alpha virt. eigenvalues --    0.12238   0.12960   0.14334   0.15426   0.16078
 Alpha virt. eigenvalues --    0.17447   0.18427   0.18872   0.20105   0.21713

 Mulliken charges:
               1
     1  O   -0.415463
     2  C   -0.117653
     3  C    0.015537
     4  C   -0.080377
     5  O   -0.305024
     6  C   -0.084434
     7  C    0.459065
     8  C   -0.359187
     9  C   -0.361831
    10  H    0.282219
    11  H    0.100449
    12  H    0.112620
    13  H    0.092315
    14  H    0.092006
    15  H    0.094748
    16  H    0.116071
    17  H    0.119444
    18  H    0.119217
    19  H    0.120278
 Sum of Mulliken charges =   0.00000

 Dipole moment (field-independent basis, Debye):
    X=             -0.8914    Y=             -1.8018    Z=             -0.1434  Tot=              2.0154
 Quadrupole moment (field-independent basis, Debye-Ang):
   XX=            -60.8345   YY=            -57.9624   ZZ=            -46.4041
   XY=              2.8020   XZ=             -1.7151   YZ=              1.7771

  Exact polarizability:  83.902   2.748  72.607   0.374   0.532  71.024
 Approx polarizability: 111.613  -0.115 110.009  -0.325   0.133 111.108

                      1                      2                      3
                      A                      A                      A
 Frequencies --     66.0659               147.1979               181.1001
 Red. masses --      3.2163                 3.4470                 2.4298
 Frc consts  --      0.0083                 0.0440                 0.0470
 IR Inten    --      2.4519                 1.5894                 1.4908

                      4                      5                      6
                      A                      A                      A
 Frequencies --    252.1983               277.4145               283.7101
 Red. masses --      1.9584                 1.8542                 2.3724
 Frc consts  --      0.0734                 0.0841                 0.1125
 IR Inten    --     12.4140                62.9495                 3.6160

                      7                      8                      9
                      A                      A                      A
 Frequencies --    322.1165               424.4419               504.4589
 Red. masses --      2.2332                 4.4080                 4.3815
 Frc consts  --      0.1365                 0.4679                 0.6569
 IR Inten    --     25.0211                 1.6356                 4.4111

                     10                     11                     12
                      A                      A                      A
 Frequencies --    622.9587               673.2828               721.7494
 Red. masses --      3.7751                 3.9342                 3.5969
 Frc consts  --      0.8632                 1.0508                 1.1040
 IR Inten    --      1.9291                 8.2743                10.0718

                     13                     14                     15
                      A                      A                      A
 Frequencies --    768.4091               785.5498               846.5283
 Red. masses --      1.3501                 1.6674                 2.3108
 Frc consts  --      0.4697                 0.6062                 0.9757
 IR Inten    --      3.6028                 5.1419                 4.3774

                     16                     17                     18
                      A                      A                      A
 Frequencies --    875.0267               911.7485               915.9603
 Red. masses --      3.2740                 1.8116                 1.4823
 Frc consts  --      1.4770                 0.8873                 0.7327
 IR Inten    --     32.9777                 7.2497                 3.4213

                     19                     20                     21
                      A                      A                      A
 Frequencies --    960.2017               989.3689              1030.5573
 Red. masses --      2.5222                 2.3475                 3.0523
 Frc consts  --      1.3701                 1.3539                 1.9100
 IR Inten    --      3.9077                37.3633                23.4514

                     22                     23                     24
                      A                      A                      A
 Frequencies --   1053.9875              1067.4150              1071.0667
 Red. masses --      1.6153                 3.2323                 1.3785
 Frc consts  --      1.0572                 2.1698                 0.9318
 IR Inten    --     26.7521                61.8500                 4.2682

                     25                     26                     27
                      A                      A                      A
 Frequencies --   1079.5649              1103.6181              1135.8804
 Red. masses --      1.4890                 4.8512                 1.9520
 Frc consts  --      1.0225                 3.4812                 1.4839
 IR Inten    --      0.1424                 5.9636                 1.0409

                     28                     29                     30
                      A                      A                      A
 Frequencies --   1139.2032              1181.1651              1182.7434
 Red. masses --      1.3166                 1.3687                 1.3083
 Frc consts  --      1.0067                 1.1250                 1.0783
 IR Inten    --      1.9031                 1.1866                 0.5145

                     31                     32                     33
                      A                      A                      A
 Frequencies --   1203.8956              1231.4508              1247.0649
 Red. masses --      1.5645                 1.7177                 1.5427
 Frc consts  --      1.3360                 1.5348                 1.4135
 IR Inten    --     13.5080                 8.6199                12.1485

                     34                     35                     36
                      A                      A                      A
 Frequencies --   1252.9096              1341.9670              1397.0984
 Red. masses --      1.4874                 1.4297                 1.2971
 Frc consts  --      1.3757                 1.5170                 1.4917
 IR Inten    --      5.9760                 0.5337                16.0008

                     37                     38                     39
                      A                      A                      A
 Frequencies --   1415.8632              1429.6907              1461.0284
 Red. masses --      1.4451                 1.5844                 1.0886
 Frc consts  --      1.7068                 1.9081                 1.3691
 IR Inten    --     30.1067                 7.9807                 1.0222

                     40                     41                     42
                      A                      A                      A
 Frequencies --   1505.7439              1519.0098              3027.9839
 Red. masses --      1.0895                 2.0928                 1.0591
 Frc consts  --      1.4555                 2.8451                 5.7215
 IR Inten    --      2.1787                 0.6791                32.4325

                     43                     44                     45
                      A                      A                      A
 Frequencies --   3068.6846              3091.8600              3103.5426
 Red. masses --      1.1002                 1.0878                 1.0910
 Frc consts  --      6.1040                 6.1271                 6.1912
 IR Inten    --     15.6127                34.4161                69.0367

                     46                     47                     48
                      A                      A                      A
 Frequencies --   3113.8076              3121.4202              3129.1443
 Red. masses --      1.0950                 1.0528                 1.0561
 Frc consts  --      6.2555                 6.0437                 6.0924
 IR Inten    --     23.3431                13.4773                11.1180

                     49                     50                     51
                      A                      A                      A
 Frequencies --   3199.1713              3215.2222              3817.5598
 Red. masses --      1.1172                 1.1153                 1.0663
 Frc consts  --      6.7369                 6.7928                 9.1555
 IR Inten    --      1.0048                12.2568                12.0069

 - Thermochemistry -
 -------------------
 Temperature   298.150 Kelvin.  Pressure   1.00000 Atm.
 Atom     1 has atomic number  8 and mass  15.99491

 Molecular mass:   126.06808 amu.
 Principal axes and moments of inertia in atomic units:
                           1         2         3
     Eigenvalues --   653.082321381.758161740.36060
           X            0.99964   0.02678   0.00243
           Y           -0.02679   0.99963   0.00469
           Z           -0.00230  -0.00475   0.99999
 This molecule is an asymmetric top.
 Rotational symmetry number  1.
 Warning -- assumption of classical behavior for rotation
           may cause significant error
 Rotational temperatures (Kelvin)      0.13262     0.06268     0.04977
 Rotational constants (GHZ):           2.76342     1.30612     1.03699
 Zero-point vibrational energy     415515.7 (Joules/Mol)
                                   99.31065 (Kcal/Mol)
 Warning -- explicit consideration of   9 degrees of freedom as
           vibrations may cause significant error
 Vibrational temperatures:     95.05   211.78   260.56   362.86   399.14
          (Kelvin)            408.20   463.45   610.68   725.80   896.30
                              968.70  1038.44  1105.57  1130.23  1217.96
                             1258.97  1311.80  1317.86  1381.51  1423.48
                             1482.74  1516.45  1535.77  1541.02  1553.25
                             1587.86  1634.28  1639.06  1699.43  1701.70
                             1732.14  1771.78  1794.25  1802.66  1930.79
                             2010.11  2037.11  2057.00  2102.09  2166.43
                             2185.51  4356.59  4415.15  4448.49  4465.30
                             4480.07  4491.02  4502.14  4602.89  4625.98
                             5492.61

 Zero-point correction=                           0.158262 (Hartree/Particle)
 Thermal correction to Energy=                    0.166618
 Thermal correction to Enthalpy=                  0.167562
 Thermal correction to Gibbs Free Energy=         0.125130
 Sum of electronic and zero-point Energies=           -422.916740
 Sum of electronic and thermal Energies=              -422.908383
 Sum of electronic and thermal Enthalpies=            -422.907439
 Sum of electronic and thermal Free Energies=         -422.949871

                     E (Thermal)             CV                S
                      KCal/Mol        Cal/Mol-Kelvin    Cal/Mol-Kelvin
 Total                  104.555             32.276             89.306
 Electronic               0.000              0.000              0.000
 Translational            0.889              2.981             40.409
 Rotational               0.889              2.981             28.842
 Vibrational            102.777             26.314             20.056
 Vibration     1          0.597              1.970              4.267
 Vibration     2          0.617              1.906              2.708
 Vibration     3          0.630              1.865              2.317
 Vibration     4          0.664              1.759              1.715
 Vibration     5          0.678              1.715              1.550
 Vibration     6          0.682              1.704              1.511
 Vibration     7          0.707              1.631              1.299
 Vibration     8          0.786              1.417              0.877
 Vibration     9          0.860              1.240              0.647

 Optimization completed.
    -- Stationary point found.
 Normal termination of Gaussian 09 at Tue Jan 28 14:53:56 2020.
 Normal termination of Gaussian 09 at Tue Jan 28 14:00:18 2020.
