 Gaussian 09, Revision D.01,
 Gaussian 09:  ES64L-G09RevD.01 24-Apr-2013

 -----------------------------
 # b3lyp 6-31G(2df,p) opt Freq
 -----------------------------

 -----
 titel
 -----
 Symbolic Z-matrix:
 Charge =  0 Multiplicity = 1

 SCF Done:  E(RB3LYP) =  -423.206543246     A.U. after   14 cycles
 Optimization completed.
    -- Stationary point found.
 Normal termination of Gaussian 09 at Mon Jan 27 16:10:01 2020.

 ----------------------------------------------------------------------
 #N Geom=AllCheck Guess=TCheck SCRF=Check GenChk RB3LYP/6-31G(2df,p) Fr
 eq
 ----------------------------------------------------------------------

 Structure from the checkpoint file:  "/scratch/puck/g09_f589b760-942d-4679-8287-07ba7c3333c5/Gau-165091.chk"
 -----
 titel
 -----
 Charge =  0 Multiplicity = 1

                         Standard orientation:
 ---------------------------------------------------------------------
 Center     Atomic      Atomic             Coordinates (Angstroms)
 Number     Number       Type             X           Y           Z
 ---------------------------------------------------------------------
      1          6           0        1.454312   -0.920464   -1.116679
      2          6           0        0.661913   -0.417513    0.095861
      3          6           0        1.501323   -0.504148    1.386319
      4          6           0       -0.672820   -1.118337    0.276419
      5          8           0       -1.581331   -0.906441   -0.811210
      6          6           0       -1.771848   -0.143309    0.388848
      7          6           0       -1.232984    1.260600    0.271251
      8          6           0        0.244099    1.062334   -0.110617
      9          8           0        0.984542    1.929285   -0.492549
     10          1           0        0.817114   -0.954478   -2.004119
     11          1           0        2.290879   -0.245688   -1.316943
     12          1           0        1.849711   -1.925161   -0.934903
     13          1           0        0.947806   -0.142975    2.259977
     14          1           0        1.796211   -1.540787    1.580496
     15          1           0        2.407753    0.098557    1.285143
     16          1           0       -0.716046   -2.103137    0.736824
     17          1           0       -2.686990   -0.352055    0.935947
     18          1           0       -1.743164    1.864802   -0.483960
     19          1           0       -1.292934    1.803183    1.223192
 ---------------------------------------------------------------------

 SCF Done:  E(RB3LYP) =  -423.206543246     A.U. after    1 cycles

 The electronic state is 1-A.
 Alpha  occ. eigenvalues --  -19.15915 -19.13612 -10.27153 -10.24661 -10.24176
 Alpha  occ. eigenvalues --  -10.20691 -10.19974 -10.19047 -10.17715  -1.08211
 Alpha  occ. eigenvalues --   -1.04656  -0.82693  -0.77263  -0.69499  -0.66946
 Alpha  occ. eigenvalues --   -0.63943  -0.58828  -0.52449  -0.51186  -0.46756
 Alpha  occ. eigenvalues --   -0.46097  -0.45097  -0.43237  -0.42011  -0.41541
 Alpha  occ. eigenvalues --   -0.39869  -0.37919  -0.37237  -0.36054  -0.35287
 Alpha  occ. eigenvalues --   -0.34561  -0.30098  -0.27572  -0.24430
 Alpha virt. eigenvalues --   -0.01985   0.08592   0.09160   0.11240   0.11410
 Alpha virt. eigenvalues --    0.11791   0.14661   0.15116   0.16187   0.16520
 Alpha virt. eigenvalues --    0.17925   0.18419   0.19295   0.20784   0.21171

 Mulliken charges:
               1
     1  C   -0.425589
     2  C    0.135760
     3  C   -0.435262
     4  C    0.022057
     5  O   -0.267246
     6  C    0.032756
     7  C   -0.358031
     8  C    0.381656
     9  O   -0.320485
    10  H    0.135828
    11  H    0.136188
    12  H    0.109358
    13  H    0.116185
    14  H    0.121155
    15  H    0.141296
    16  H    0.095628
    17  H    0.102181
    18  H    0.144712
    19  H    0.131855
 Sum of Mulliken charges =   0.00000

 Dipole moment (field-independent basis, Debye):
    X=             -0.7811    Y=             -1.3048    Z=              2.3996  Tot=              2.8409
 Quadrupole moment (field-independent basis, Debye-Ang):
   XX=            -53.0833   YY=            -56.3094   ZZ=            -53.3103
   XY=             -5.6420   XZ=             -1.9221   YZ=              0.1158

  Exact polarizability:  80.601  -4.125  76.139  -2.963  -1.027  65.655
 Approx polarizability: 113.538  -0.782 114.563  -3.171  -2.209 101.596

                      1                      2                      3
                      A                      A                      A
 Frequencies --     71.7248               193.6938               202.8553
 Red. masses --      3.8652                 3.4246                 1.7546
 Frc consts  --      0.0117                 0.0757                 0.0425
 IR Inten    --      5.0818                 2.5040                 0.9664

                      4                      5                      6
                      A                      A                      A
 Frequencies --    222.1143               240.4587               291.7890
 Red. masses --      1.3759                 1.1088                 2.7180
 Frc consts  --      0.0400                 0.0378                 0.1363
 IR Inten    --      1.1527                 1.3206                 3.2055

                      7                      8                      9
                      A                      A                      A
 Frequencies --    310.2675               358.6914               478.5715
 Red. masses --      2.5212                 2.3952                 4.9820
 Frc consts  --      0.1430                 0.1816                 0.6723
 IR Inten    --      0.1923                 3.4696                 8.6541

                     10                     11                     12
                      A                      A                      A
 Frequencies --    494.0016               583.0781               597.7160
 Red. masses --      3.7041                 2.9495                 3.6306
 Frc consts  --      0.5326                 0.5908                 0.7642
 IR Inten    --      3.2552                 3.5705                 1.4097

                     13                     14                     15
                      A                      A                      A
 Frequencies --    682.2710               708.7170               825.3274
 Red. masses --      4.4795                 4.5396                 3.1479
 Frc consts  --      1.2285                 1.3434                 1.2634
 IR Inten    --      5.3665                10.9291                 3.0231

                     16                     17                     18
                      A                      A                      A
 Frequencies --    851.2464               879.6424               935.2932
 Red. masses --      2.5222                 2.7910                 2.5741
 Frc consts  --      1.0768                 1.2724                 1.3267
 IR Inten    --     14.9863                14.9627                 4.2572

                     19                     20                     21
                      A                      A                      A
 Frequencies --    954.6479               963.0650               996.2390
 Red. masses --      1.8060                 1.5306                 2.4322
 Frc consts  --      0.9698                 0.8364                 1.4222
 IR Inten    --      1.9788                 3.4735                 6.5797

                     22                     23                     24
                      A                      A                      A
 Frequencies --   1022.9645              1029.2927              1086.7169
 Red. masses --      1.3280                 1.4389                 2.6485
 Frc consts  --      0.8188                 0.8982                 1.8428
 IR Inten    --      6.8452                13.9132                53.2001

                     25                     26                     27
                      A                      A                      A
 Frequencies --   1117.1520              1165.1344              1197.0336
 Red. masses --      1.3571                 1.9782                 1.8726
 Frc consts  --      0.9979                 1.5822                 1.5809
 IR Inten    --     12.0369                 1.3295                 3.5023

                     28                     29                     30
                      A                      A                      A
 Frequencies --   1229.3948              1255.2562              1261.5463
 Red. masses --      2.4196                 1.4407                 2.3844
 Frc consts  --      2.1547                 1.3375                 2.2358
 IR Inten    --      6.1469                 4.3304                 5.7072

                     31                     32                     33
                      A                      A                      A
 Frequencies --   1288.4835              1351.0535              1388.9091
 Red. masses --      1.9195                 1.6612                 1.2116
 Frc consts  --      1.8776                 1.7865                 1.3771
 IR Inten    --      3.3992                10.6345                 4.1003

                     34                     35                     36
                      A                      A                      A
 Frequencies --   1407.6393              1432.3367              1442.2143
 Red. masses --      1.3919                 2.0874                 1.2118
 Frc consts  --      1.6250                 2.5231                 1.4850
 IR Inten    --      6.8543                12.3509                 8.1988

                     37                     38                     39
                      A                      A                      A
 Frequencies --   1482.7922              1488.4129              1501.1945
 Red. masses --      1.0467                 1.0470                 1.0649
 Frc consts  --      1.3559                 1.3666                 1.4139
 IR Inten    --      2.3317                 1.1823                 7.3588

                     40                     41                     42
                      A                      A                      A
 Frequencies --   1511.1319              1847.1309              3030.7955
 Red. masses --      1.0573                12.6290                 1.0351
 Frc consts  --      1.4224                25.3872                 5.6019
 IR Inten    --      9.1182               162.3395                19.6752

                     43                     44                     45
                      A                      A                      A
 Frequencies --   3039.8221              3042.9272              3096.5103
 Red. masses --      1.0355                 1.0645                 1.1014
 Frc consts  --      5.6375                 5.8072                 6.2221
 IR Inten    --     22.3233                 6.8201                21.8413

                     46                     47                     48
                      A                      A                      A
 Frequencies --   3101.5459              3111.7526              3119.5405
 Red. masses --      1.0971                 1.1006                 1.1012
 Frc consts  --      6.2178                 6.2787                 6.3140
 IR Inten    --      3.8237                13.2230                11.1050

                     49                     50                     51
                      A                      A                      A
 Frequencies --   3127.5962              3135.3177              3156.2344
 Red. masses --      1.1022                 1.0885                 1.0937
 Frc consts  --      6.3525                 6.3044                 6.4192
 IR Inten    --     12.8781                19.9877                28.6982

 - Thermochemistry -
 -------------------
 Temperature   298.150 Kelvin.  Pressure   1.00000 Atm.
 Atom     1 has atomic number  6 and mass  12.00000

 Molecular mass:   126.06808 amu.
 Principal axes and moments of inertia in atomic units:
                           1         2         3
     Eigenvalues --   812.598161016.197411290.56268
           X            0.98151  -0.19075  -0.01592
           Y            0.19094   0.98153   0.01143
           Z            0.01344  -0.01426   0.99981
 This molecule is an asymmetric top.
 Rotational symmetry number  1.
 Warning -- assumption of classical behavior for rotation
           may cause significant error
 Rotational temperatures (Kelvin)      0.10659     0.08523     0.06711
 Rotational constants (GHZ):           2.22095     1.77598     1.39841
 Zero-point vibrational energy     414561.3 (Joules/Mol)
                                   99.08254 (Kcal/Mol)
 Warning -- explicit consideration of  12 degrees of freedom as
           vibrations may cause significant error
 Vibrational temperatures:    103.20   278.68   291.86   319.57   345.97
          (Kelvin)            419.82   446.41   516.08   688.56   710.76
                              838.92   859.98   981.63  1019.68  1187.46
                             1224.75  1265.61  1345.68  1373.52  1385.63
                             1433.36  1471.82  1480.92  1563.54  1607.33
                             1676.37  1722.26  1768.82  1806.03  1815.08
                             1853.84  1943.86  1998.33  2025.28  2060.81
                             2075.02  2133.40  2141.49  2159.88  2174.18
                             2657.61  4360.63  4373.62  4378.09  4455.18
                             4462.43  4477.11  4488.32  4499.91  4511.02
                             4541.11

 Zero-point correction=                           0.157898 (Hartree/Particle)
 Thermal correction to Energy=                    0.166522
 Thermal correction to Enthalpy=                  0.167467
 Thermal correction to Gibbs Free Energy=         0.124940
 Sum of electronic and zero-point Energies=           -423.048645
 Sum of electronic and thermal Energies=              -423.040021
 Sum of electronic and thermal Enthalpies=            -423.039077
 Sum of electronic and thermal Free Energies=         -423.081603

                     E (Thermal)             CV                S
                      KCal/Mol        Cal/Mol-Kelvin    Cal/Mol-Kelvin
 Total                  104.494             33.056             89.505
 Electronic               0.000              0.000              0.000
 Translational            0.889              2.981             40.409
 Rotational               0.889              2.981             28.457
 Vibrational            102.717             27.095             20.640
 Vibration     1          0.598              1.967              4.105
 Vibration     2          0.635              1.849              2.192
 Vibration     3          0.639              1.836              2.107
 Vibration     4          0.648              1.807              1.942
 Vibration     5          0.658              1.778              1.799
 Vibration     6          0.687              1.689              1.464
 Vibration     7          0.699              1.654              1.361
 Vibration     8          0.734              1.557              1.128
 Vibration     9          0.835              1.298              0.714
 Vibration    10          0.850              1.263              0.673
 Vibration    11          0.940              1.068              0.480
 Vibration    12          0.956              1.037              0.454

 Optimization completed.
    -- Stationary point found.
 Normal termination of Gaussian 09 at Mon Jan 27 16:54:46 2020.
 Normal termination of Gaussian 09 at Mon Jan 27 16:03:21 2020.
