 Gaussian 09, Revision D.01,
 Gaussian 09:  ES64L-G09RevD.01 24-Apr-2013

 -----------------------------
 # b3lyp 6-31G(2df,p) opt Freq
 -----------------------------

 -----
 titel
 -----
 Symbolic Z-matrix:
 Charge =  0 Multiplicity = 1

 SCF Done:  E(RB3LYP) =  -423.179183519     A.U. after   14 cycles
 Optimization completed.
    -- Stationary point found.
 Normal termination of Gaussian 09 at Mon Jan 27 22:00:57 2020.

 ----------------------------------------------------------------------
 #N Geom=AllCheck Guess=TCheck SCRF=Check GenChk RB3LYP/6-31G(2df,p) Fr
 eq
 ----------------------------------------------------------------------

 Structure from the checkpoint file:  "/scratch/puck/g09_9e7ea223-5a09-4a07-9964-4d4a37cd26d5/Gau-98588.chk"
 -----
 titel
 -----
 Charge =  0 Multiplicity = 1

                         Standard orientation:
 ---------------------------------------------------------------------
 Center     Atomic      Atomic             Coordinates (Angstroms)
 Number     Number       Type             X           Y           Z
 ---------------------------------------------------------------------
      1          6           0        2.225701    0.657148   -0.838608
      2          6           0        0.824279    0.087070   -0.915063
      3          6           0        0.367003   -0.857583    0.148714
      4          8           0        1.195725   -1.359592    1.132402
      5          6           0       -0.990040   -1.466297   -0.236110
      6          6           0       -1.536927   -0.012428   -0.238543
      7          8           0       -2.643693    0.441800   -0.328837
      8          6           0       -0.209731    0.583451    0.126947
      9          6           0       -0.018302    1.800349    0.986212
     10          1           0        2.609987    0.649902    0.183775
     11          1           0        2.906679    0.057857   -1.452753
     12          1           0        2.261621    1.684287   -1.214825
     13          1           0        0.472521   -0.078532   -1.932846
     14          1           0        1.788496   -2.007880    0.734910
     15          1           0       -1.051999   -2.046599   -1.162421
     16          1           0       -1.446556   -2.029715    0.583503
     17          1           0       -0.270003    2.710132    0.430474
     18          1           0       -0.670824    1.759198    1.863556
     19          1           0        1.011920    1.893426    1.336810
 ---------------------------------------------------------------------

 SCF Done:  E(RB3LYP) =  -423.179183519     A.U. after    1 cycles

 The electronic state is 1-A.
 Alpha  occ. eigenvalues --  -19.16426 -19.12513 -10.26295 -10.25489 -10.20908
 Alpha  occ. eigenvalues --  -10.20312 -10.19039 -10.19003 -10.18481  -1.05119
 Alpha  occ. eigenvalues --   -1.03476  -0.90010  -0.76284  -0.73365  -0.67833
 Alpha  occ. eigenvalues --   -0.61463  -0.59070  -0.51337  -0.49800  -0.47501
 Alpha  occ. eigenvalues --   -0.45609  -0.44662  -0.42891  -0.40943  -0.40076
 Alpha  occ. eigenvalues --   -0.39715  -0.39566  -0.37507  -0.37170  -0.36427
 Alpha  occ. eigenvalues --   -0.32525  -0.27089  -0.25963  -0.23526
 Alpha virt. eigenvalues --   -0.00504   0.05841   0.09849   0.10622   0.11036
 Alpha virt. eigenvalues --    0.13134   0.13905   0.15188   0.16060   0.16517
 Alpha virt. eigenvalues --    0.17792   0.18082   0.19825   0.20466   0.21588

 Mulliken charges:
               1
     1  C   -0.435955
     2  C   -0.121452
     3  C    0.341308
     4  O   -0.456505
     5  C   -0.431786
     6  C    0.383413
     7  O   -0.320094
     8  C    0.133685
     9  C   -0.500579
    10  H    0.136505
    11  H    0.120027
    12  H    0.128776
    13  H    0.088217
    14  H    0.291587
    15  H    0.110483
    16  H    0.134056
    17  H    0.134668
    18  H    0.134440
    19  H    0.129208
 Sum of Mulliken charges =   0.00000

 Dipole moment (field-independent basis, Debye):
    X=              3.5324    Y=             -1.2647    Z=             -0.6870  Tot=              3.8144
 Quadrupole moment (field-independent basis, Debye-Ang):
   XX=            -59.7832   YY=            -48.8720   ZZ=            -53.7711
   XY=              0.6325   XZ=             -2.8333   YZ=              1.6615

  Exact polarizability:  87.581  -0.180  78.943  -2.215   2.175  64.977
 Approx polarizability: 128.452  -8.601 113.741  -0.694   0.483  99.738

                      1                      2                      3
                      A                      A                      A
 Frequencies --     75.1471               106.7321               159.7789
 Red. masses --      1.1270                 3.6629                 3.1669
 Frc consts  --      0.0037                 0.0246                 0.0476
 IR Inten    --      1.1954                 3.3994                 5.5909

                      4                      5                      6
                      A                      A                      A
 Frequencies --    173.6379               220.9385               234.8988
 Red. masses --      1.2305                 2.2859                 1.1909
 Frc consts  --      0.0219                 0.0657                 0.0387
 IR Inten    --      3.1972                 0.1911                97.0531

                      7                      8                      9
                      A                      A                      A
 Frequencies --    257.9748               268.9767               337.0730
 Red. masses --      2.4818                 2.3935                 3.7485
 Frc consts  --      0.0973                 0.1020                 0.2509
 IR Inten    --      1.4514                 3.8618                 5.8767

                     10                     11                     12
                      A                      A                      A
 Frequencies --    464.4711               485.1736               555.4812
 Red. masses --      3.6630                 3.9877                 3.2998
 Frc consts  --      0.4656                 0.5531                 0.5999
 IR Inten    --      4.3451                 2.5682                 5.6448

                     13                     14                     15
                      A                      A                      A
 Frequencies --    565.2484               643.6127               657.5689
 Red. masses --      2.7270                 3.9496                 2.9810
 Frc consts  --      0.5134                 0.9639                 0.7594
 IR Inten    --      0.5982                 1.2912                 8.4865

                     16                     17                     18
                      A                      A                      A
 Frequencies --    705.1025               759.3203               834.0703
 Red. masses --      4.0986                 2.9003                 2.5828
 Frc consts  --      1.2006                 0.9852                 1.0586
 IR Inten    --      1.7517                36.1293                 5.8617

                     19                     20                     21
                      A                      A                      A
 Frequencies --    950.9310               985.2383              1020.3215
 Red. masses --      2.0852                 2.5661                 1.3830
 Frc consts  --      1.1110                 1.4676                 0.8483
 IR Inten    --     25.8749                 5.5052                15.9743

                     22                     23                     24
                      A                      A                      A
 Frequencies --   1058.6725              1064.4365              1082.5622
 Red. masses --      1.9453                 1.5691                 1.6820
 Frc consts  --      1.2846                 1.0475                 1.1614
 IR Inten    --     35.4942                 9.7613                 1.8355

                     25                     26                     27
                      A                      A                      A
 Frequencies --   1117.6779              1131.0560              1164.6968
 Red. masses --      1.8937                 1.8157                 2.2792
 Frc consts  --      1.3938                 1.3686                 1.8216
 IR Inten    --     16.3020                 8.6963                13.0659

                     28                     29                     30
                      A                      A                      A
 Frequencies --   1197.6913              1220.9770              1287.8490
 Red. masses --      1.4853                 2.1994                 1.4213
 Frc consts  --      1.2553                 1.9318                 1.3889
 IR Inten    --      2.3904                35.0686                64.4545

                     31                     32                     33
                      A                      A                      A
 Frequencies --   1339.0782              1376.5457              1410.2028
 Red. masses --      5.0115                 1.5485                 1.3534
 Frc consts  --      5.2946                 1.7288                 1.5858
 IR Inten    --     49.6612                 2.4270                 0.9315

                     34                     35                     36
                      A                      A                      A
 Frequencies --   1418.2255              1432.8112              1468.6222
 Red. masses --      1.3324                 1.8499                 1.3567
 Frc consts  --      1.5789                 2.2376                 1.7240
 IR Inten    --      0.4626                20.2354                 8.8315

                     37                     38                     39
                      A                      A                      A
 Frequencies --   1483.1464              1489.8322              1500.7609
 Red. masses --      1.1033                 1.0463                 1.0563
 Frc consts  --      1.4299                 1.3682                 1.4017
 IR Inten    --      6.5815                 3.1474                 1.8138

                     40                     41                     42
                      A                      A                      A
 Frequencies --   1511.0643              1874.6547              3037.9630
 Red. masses --      1.1117                12.6740                 1.0370
 Frc consts  --      1.4956                26.2426                 5.6387
 IR Inten    --     19.3639               325.2798                24.3468

                     43                     44                     45
                      A                      A                      A
 Frequencies --   3040.7212              3046.2274              3095.0797
 Red. masses --      1.0379                 1.0584                 1.0971
 Frc consts  --      5.6538                 5.7866                 6.1922
 IR Inten    --     30.9628                19.4150                12.1744

                     46                     47                     48
                      A                      A                      A
 Frequencies --   3099.2562              3100.4078              3106.1039
 Red. masses --      1.0982                 1.0937                 1.1052
 Frc consts  --      6.2152                 6.1940                 6.2825
 IR Inten    --     18.0972                11.1561                12.5357

                     49                     50                     51
                      A                      A                      A
 Frequencies --   3124.1036              3132.2434              3786.6551
 Red. masses --      1.0998                 1.0987                 1.0661
 Frc consts  --      6.3245                 6.3510                 9.0066
 IR Inten    --     14.4437                19.1340                26.2948

 - Thermochemistry -
 -------------------
 Temperature   298.150 Kelvin.  Pressure   1.00000 Atm.
 Atom     1 has atomic number  6 and mass  12.00000

 Molecular mass:   126.06808 amu.
 Principal axes and moments of inertia in atomic units:
                           1         2         3
     Eigenvalues --   764.767451222.498091495.00982
           X            0.99792   0.05901  -0.02580
           Y           -0.05739   0.99655   0.05991
           Z            0.02925  -0.05831   0.99787
 This molecule is an asymmetric top.
 Rotational symmetry number  1.
 Warning -- assumption of classical behavior for rotation
           may cause significant error
 Rotational temperatures (Kelvin)      0.11326     0.07085     0.05794
 Rotational constants (GHZ):           2.35986     1.47627     1.20718
 Zero-point vibrational energy     410684.1 (Joules/Mol)
                                   98.15586 (Kcal/Mol)
 Warning -- explicit consideration of  13 degrees of freedom as
           vibrations may cause significant error
 Vibrational temperatures:    108.12   153.56   229.89   249.83   317.88
          (Kelvin)            337.97   371.17   387.00   484.97   668.27
                              698.06   799.21   813.27   926.01   946.09
                             1014.48  1092.49  1200.04  1368.18  1417.54
                             1468.01  1523.19  1531.48  1557.56  1608.09
                             1627.34  1675.74  1723.21  1756.71  1852.93
                             1926.63  1980.54  2028.96  2040.51  2061.49
                             2113.02  2133.91  2143.53  2159.26  2174.08
                             2697.21  4370.95  4374.91  4382.84  4453.12
                             4459.13  4460.79  4468.99  4494.88  4506.59
                             5448.15

 Zero-point correction=                           0.156421 (Hartree/Particle)
 Thermal correction to Energy=                    0.166105
 Thermal correction to Enthalpy=                  0.167050
 Thermal correction to Gibbs Free Energy=         0.122093
 Sum of electronic and zero-point Energies=           -423.022762
 Sum of electronic and thermal Energies=              -423.013078
 Sum of electronic and thermal Enthalpies=            -423.012134
 Sum of electronic and thermal Free Energies=         -423.057091

                     E (Thermal)             CV                S
                      KCal/Mol        Cal/Mol-Kelvin    Cal/Mol-Kelvin
 Total                  104.233             35.507             94.620
 Electronic               0.000              0.000              0.000
 Translational            0.889              2.981             40.409
 Rotational               0.889              2.981             28.726
 Vibrational            102.455             29.546             25.485
 Vibration     1          0.599              1.966              4.014
 Vibration     2          0.606              1.944              3.328
 Vibration     3          0.622              1.892              2.552
 Vibration     4          0.627              1.875              2.396
 Vibration     5          0.648              1.809              1.951
 Vibration     6          0.655              1.787              1.841
 Vibration     7          0.667              1.749              1.675
 Vibration     8          0.673              1.730              1.603
 Vibration     9          0.718              1.601              1.226
 Vibration    10          0.822              1.329              0.753
 Vibration    11          0.841              1.283              0.696
 Vibration    12          0.911              1.128              0.533
 Vibration    13          0.921              1.106              0.513

 Optimization completed.
    -- Stationary point found.
 Normal termination of Gaussian 09 at Mon Jan 27 22:45:29 2020.
