 Gaussian 09, Revision D.01,
 Gaussian 09:  ES64L-G09RevD.01 24-Apr-2013

 -----------------------------
 # b3lyp 6-31G(2df,p) opt Freq
 -----------------------------

 -----
 titel
 -----
 Symbolic Z-matrix:
 Charge =  0 Multiplicity = 1

 SCF Done:  E(RB3LYP) =  -423.136419131     A.U. after   13 cycles
 Optimization completed.
    -- Stationary point found.
 Normal termination of Gaussian 09 at Mon Jan 27 17:16:54 2020.

 ----------------------------------------------------------------------
 #N Geom=AllCheck Guess=TCheck SCRF=Check GenChk RB3LYP/6-31G(2df,p) Fr
 eq
 ----------------------------------------------------------------------

 Structure from the checkpoint file:  "/scratch/puck/g09_99698294-4872-4f44-bdcd-6eea58b518e6/Gau-86454.chk"
 -----
 titel
 -----
 Charge =  0 Multiplicity = 1

                         Standard orientation:
 ---------------------------------------------------------------------
 Center     Atomic      Atomic             Coordinates (Angstroms)
 Number     Number       Type             X           Y           Z
 ---------------------------------------------------------------------
      1          6           0        1.386602    1.655598   -0.748530
      2          6           0        0.722068    0.685381    0.184808
      3          6           0        1.516960   -0.276237    1.054673
      4          6           0        0.536856   -0.853995    0.094289
      5          8           0        0.913771   -1.757114   -0.873406
      6          6           0       -0.867919   -0.739543    0.639654
      7          8           0       -1.826614   -0.577161   -0.432529
      8          6           0       -1.797785    0.864350   -0.298699
      9          6           0       -0.686089    0.811459    0.766773
     10          1           0        2.234503    1.182599   -1.254657
     11          1           0        0.698424    2.012283   -1.523131
     12          1           0        1.767550    2.535080   -0.215220
     13          1           0        2.550584   -0.398102    0.745071
     14          1           0        1.366273   -0.334290    2.131627
     15          1           0        0.201837   -1.761478   -1.527014
     16          1           0       -1.225151   -1.426991    1.412245
     17          1           0       -1.562410    1.368116   -1.243516
     18          1           0       -2.758732    1.239314    0.074894
     19          1           0       -0.834296    1.375591    1.689373
 ---------------------------------------------------------------------

 SCF Done:  E(RB3LYP) =  -423.136419131     A.U. after    1 cycles

 The electronic state is 1-A.
 Alpha  occ. eigenvalues --  -19.14891 -19.13788 -10.23692 -10.23440 -10.23331
 Alpha  occ. eigenvalues --  -10.19717 -10.19676 -10.18669 -10.18153  -1.05057
 Alpha  occ. eigenvalues --   -1.02831  -0.88399  -0.73314  -0.72825  -0.68657
 Alpha  occ. eigenvalues --   -0.59757  -0.58463  -0.54423  -0.50040  -0.49389
 Alpha  occ. eigenvalues --   -0.48087  -0.44543  -0.42721  -0.41460  -0.40986
 Alpha  occ. eigenvalues --   -0.39149  -0.37650  -0.36896  -0.34011  -0.33042
 Alpha  occ. eigenvalues --   -0.29467  -0.28742  -0.24794  -0.22948
 Alpha virt. eigenvalues --    0.06745   0.08678   0.10787   0.11428   0.12203
 Alpha virt. eigenvalues --    0.12761   0.13672   0.14104   0.16177   0.17659
 Alpha virt. eigenvalues --    0.18337   0.19202   0.19751   0.20757   0.21289

 Mulliken charges:
               1
     1  C   -0.507298
     2  C    0.258090
     3  C   -0.393000
     4  C    0.381303
     5  O   -0.460229
     6  C    0.021789
     7  O   -0.307379
     8  C   -0.091747
     9  C   -0.143744
    10  H    0.128961
    11  H    0.116466
    12  H    0.120882
    13  H    0.123234
    14  H    0.103543
    15  H    0.293087
    16  H    0.076228
    17  H    0.102811
    18  H    0.103475
    19  H    0.073528
 Sum of Mulliken charges =   0.00000

 Dipole moment (field-independent basis, Debye):
    X=             -0.1059    Y=              1.7153    Z=              0.4698  Tot=              1.7816
 Quadrupole moment (field-independent basis, Debye-Ang):
   XX=            -55.3864   YY=            -54.5618   ZZ=            -50.5372
   XY=             -0.0835   XZ=             -0.3654   YZ=             -0.6608

  Exact polarizability:  80.398  -1.527  74.780   1.350  -2.729  69.563
 Approx polarizability: 110.859  -2.189 113.978   4.097  -0.172 104.897

                      1                      2                      3
                      A                      A                      A
 Frequencies --    140.0003               169.0406               187.1828
 Red. masses --      3.2315                 1.5238                 1.6995
 Frc consts  --      0.0373                 0.0257                 0.0351
 IR Inten    --      0.1474                 0.4761                 0.6236

                      4                      5                      6
                      A                      A                      A
 Frequencies --    196.7859               254.7289               396.4374
 Red. masses --      4.7039                 2.5220                 2.1135
 Frc consts  --      0.1073                 0.0964                 0.1957
 IR Inten    --      6.7122                 3.7939                 1.3216

                      7                      8                      9
                      A                      A                      A
 Frequencies --    428.7936               463.9755               501.0228
 Red. masses --      1.5385                 1.6486                 3.0772
 Frc consts  --      0.1667                 0.2091                 0.4551
 IR Inten    --     22.2361                57.8273                18.3410

                     10                     11                     12
                      A                      A                      A
 Frequencies --    537.9903               562.6434               703.7455
 Red. masses --      4.1164                 3.9404                 3.9494
 Frc consts  --      0.7020                 0.7349                 1.1524
 IR Inten    --      6.1915                 7.4262                 3.4308

                     13                     14                     15
                      A                      A                      A
 Frequencies --    732.5427               822.2403               845.8011
 Red. masses --      3.3121                 2.2061                 2.7188
 Frc consts  --      1.0472                 0.8788                 1.1460
 IR Inten    --      1.3973                 7.7323                 5.0893

                     16                     17                     18
                      A                      A                      A
 Frequencies --    866.7583               921.7473               965.1049
 Red. masses --      2.2391                 3.7441                 1.2639
 Frc consts  --      0.9911                 1.8742                 0.6936
 IR Inten    --     12.0672                 5.4252                 2.4946

                     19                     20                     21
                      A                      A                      A
 Frequencies --    972.6171               991.4393              1008.3149
 Red. masses --      1.8669                 2.4616                 4.4666
 Frc consts  --      1.0405                 1.4256                 2.6756
 IR Inten    --     19.8079                10.9878                65.8839

                     22                     23                     24
                      A                      A                      A
 Frequencies --   1016.8101              1063.8362              1080.8630
 Red. masses --      1.7755                 2.0385                 1.4666
 Frc consts  --      1.0815                 1.3593                 1.0095
 IR Inten    --     12.0864                 8.6250                 6.5235

                     25                     26                     27
                      A                      A                      A
 Frequencies --   1107.9026              1157.3744              1159.0781
 Red. masses --      1.8372                 2.0351                 1.3514
 Frc consts  --      1.3286                 1.6061                 1.0697
 IR Inten    --      1.9139                50.4309                18.7123

                     28                     29                     30
                      A                      A                      A
 Frequencies --   1182.9021              1200.8434              1244.2263
 Red. masses --      1.4693                 1.7192                 2.0057
 Frc consts  --      1.2113                 1.4606                 1.8294
 IR Inten    --      3.8153                 9.4371                 6.3529

                     31                     32                     33
                      A                      A                      A
 Frequencies --   1279.3548              1297.1073              1345.1749
 Red. masses --      1.3754                 1.7709                 1.8625
 Frc consts  --      1.3264                 1.7555                 1.9857
 IR Inten    --     21.9462                 9.3053                22.0139

                     34                     35                     36
                      A                      A                      A
 Frequencies --   1355.2757              1373.3756              1415.9409
 Red. masses --      2.2554                 2.2643                 1.3629
 Frc consts  --      2.4408                 2.5163                 1.6099
 IR Inten    --     35.4783               101.0697                 3.7030

                     37                     38                     39
                      A                      A                      A
 Frequencies --   1426.5070              1485.6724              1497.2584
 Red. masses --      1.6306                 1.0489                 1.0617
 Frc consts  --      1.9549                 1.3640                 1.4023
 IR Inten    --      1.0925                 3.4549                 3.4603

                     40                     41                     42
                      A                      A                      A
 Frequencies --   1509.6899              1521.6656              3015.7299
 Red. masses --      1.6893                 1.0979                 1.0544
 Frc consts  --      2.2684                 1.4979                 5.6497
 IR Inten    --     18.5273                 1.9511                57.4586

                     43                     44                     45
                      A                      A                      A
 Frequencies --   3021.3691              3060.2298              3064.7369
 Red. masses --      1.0382                 1.1090                 1.0875
 Frc consts  --      5.5839                 6.1192                 6.0184
 IR Inten    --     54.3805                40.3903                45.9838

                     46                     47                     48
                      A                      A                      A
 Frequencies --   3077.4626              3092.1968              3094.2486
 Red. masses --      1.0997                 1.0860                 1.0663
 Frc consts  --      6.1363                 6.1181                 6.0152
 IR Inten    --     24.5318                38.8807                36.8337

                     49                     50                     51
                      A                      A                      A
 Frequencies --   3097.0806              3194.2607              3763.9422
 Red. masses --      1.0970                 1.1095                 1.0652
 Frc consts  --      6.1996                 6.6698                 8.8914
 IR Inten    --     21.8602                 7.3284                29.6856

 - Thermochemistry -
 -------------------
 Temperature   298.150 Kelvin.  Pressure   1.00000 Atm.
 Atom     1 has atomic number  6 and mass  12.00000

 Molecular mass:   126.06808 amu.
 Principal axes and moments of inertia in atomic units:
                           1         2         3
     Eigenvalues --   769.57564 987.620811282.57235
           X            0.99954   0.02903  -0.00860
           Y           -0.02947   0.99796  -0.05660
           Z            0.00694   0.05683   0.99836
 This molecule is an asymmetric top.
 Rotational symmetry number  1.
 Warning -- assumption of classical behavior for rotation
           may cause significant error
 Rotational temperatures (Kelvin)      0.11255     0.08770     0.06753
 Rotational constants (GHZ):           2.34511     1.82736     1.40713
 Zero-point vibrational energy     417921.6 (Joules/Mol)
                                   99.88565 (Kcal/Mol)
 Warning -- explicit consideration of  11 degrees of freedom as
           vibrations may cause significant error
 Vibrational temperatures:    201.43   243.21   269.31   283.13   366.50
          (Kelvin)            570.38   616.94   667.56   720.86   774.05
                              809.52  1012.53  1053.96  1183.02  1216.92
                             1247.07  1326.19  1388.57  1399.38  1426.46
                             1450.74  1462.96  1530.62  1555.12  1594.02
                             1665.20  1667.65  1701.93  1727.74  1790.16
                             1840.70  1866.25  1935.40  1949.94  1975.98
                             2037.22  2052.42  2137.55  2154.22  2172.10
                             2189.33  4338.96  4347.07  4402.98  4409.47
                             4427.78  4448.98  4451.93  4456.00  4595.82
                             5415.47

 Zero-point correction=                           0.159178 (Hartree/Particle)
 Thermal correction to Energy=                    0.167262
 Thermal correction to Enthalpy=                  0.168206
 Thermal correction to Gibbs Free Energy=         0.126961
 Sum of electronic and zero-point Energies=           -422.977241
 Sum of electronic and thermal Energies=              -422.969157
 Sum of electronic and thermal Enthalpies=            -422.968213
 Sum of electronic and thermal Free Energies=         -423.009458

                     E (Thermal)             CV                S
                      KCal/Mol        Cal/Mol-Kelvin    Cal/Mol-Kelvin
 Total                  104.959             31.811             86.808
 Electronic               0.000              0.000              0.000
 Translational            0.889              2.981             40.409
 Rotational               0.889              2.981             28.368
 Vibrational            103.181             25.849             18.031
 Vibration     1          0.615              1.913              2.804
 Vibration     2          0.625              1.881              2.446
 Vibration     3          0.632              1.857              2.256
 Vibration     4          0.636              1.844              2.163
 Vibration     5          0.665              1.755              1.698
 Vibration     6          0.763              1.478              0.976
 Vibration     7          0.790              1.408              0.863
 Vibration     8          0.822              1.330              0.755
 Vibration     9          0.856              1.248              0.656
 Vibration    10          0.893              1.166              0.570
 Vibration    11          0.918              1.112              0.519

 Optimization completed.
    -- Stationary point found.
 Normal termination of Gaussian 09 at Mon Jan 27 18:03:35 2020.
