 Gaussian 09, Revision D.01,
 Gaussian 09:  ES64L-G09RevD.01 24-Apr-2013

 -----------------------------
 # b3lyp 6-31G(2df,p) opt Freq
 -----------------------------

 -----
 titel
 -----
 Symbolic Z-matrix:
 Charge =  0 Multiplicity = 1

 SCF Done:  E(RB3LYP) =  -423.110104185     A.U. after   14 cycles
 Optimization completed.
    -- Stationary point found.
 Normal termination of Gaussian 09 at Mon Jan 27 17:27:08 2020.

 ----------------------------------------------------------------------
 #N Geom=AllCheck Guess=TCheck SCRF=Check GenChk RB3LYP/6-31G(2df,p) Fr
 eq
 ----------------------------------------------------------------------

 Structure from the checkpoint file:  "/scratch/puck/g09_2e41df1d-2e9f-49c7-9b04-6fc1f49ec3e0/Gau-79005.chk"
 -----
 titel
 -----
 Charge =  0 Multiplicity = 1

                         Standard orientation:
 ---------------------------------------------------------------------
 Center     Atomic      Atomic             Coordinates (Angstroms)
 Number     Number       Type             X           Y           Z
 ---------------------------------------------------------------------
      1          6           0        0.384935    2.165807   -0.052814
      2          6           0        0.215659    0.713575    0.287013
      3          6           0        1.078386   -0.026760    1.297783
      4          6           0        1.038433   -0.485350   -0.135726
      5          8           0        2.122013   -0.485609   -0.993089
      6          6           0       -0.284146   -1.266138   -0.449276
      7          8           0       -1.082920   -1.331777    0.743321
      8          6           0       -1.087743   -0.118525   -0.037383
      9          6           0       -2.400586    0.429850   -0.489994
     10          1           0        0.014408    2.392409   -1.059017
     11          1           0       -0.149353    2.812557    0.653175
     12          1           0        1.442875    2.443675   -0.025092
     13          1           0        1.988776    0.509349    1.551577
     14          1           0        0.639712   -0.614696    2.094288
     15          1           0        2.737056   -1.169593   -0.704269
     16          1           0       -0.432140   -2.021884   -1.213397
     17          1           0       -3.047103   -0.381167   -0.835425
     18          1           0       -2.911218    0.950848    0.327989
     19          1           0       -2.265388    1.142830   -1.309301
 ---------------------------------------------------------------------

 SCF Done:  E(RB3LYP) =  -423.110104185     A.U. after    1 cycles

 The electronic state is 1-A.
 Alpha  occ. eigenvalues --  -19.15167 -19.14620 -10.23849 -10.23627 -10.22879
 Alpha  occ. eigenvalues --  -10.19403 -10.18594 -10.18100 -10.18046  -1.07278
 Alpha  occ. eigenvalues --   -1.03392  -0.86133  -0.74764  -0.71539  -0.67938
 Alpha  occ. eigenvalues --   -0.60629  -0.57744  -0.52686  -0.50569  -0.48722
 Alpha  occ. eigenvalues --   -0.45448  -0.43265  -0.42098  -0.40940  -0.40685
 Alpha  occ. eigenvalues --   -0.39835  -0.38255  -0.36994  -0.34459  -0.33100
 Alpha  occ. eigenvalues --   -0.32132  -0.26608  -0.24449  -0.22111
 Alpha virt. eigenvalues --    0.06713   0.08358   0.09687   0.11406   0.12109
 Alpha virt. eigenvalues --    0.13690   0.14507   0.14877   0.15542   0.16818
 Alpha virt. eigenvalues --    0.17810   0.18692   0.19089   0.21118   0.23202

 Mulliken charges:
               1
     1  C   -0.497477
     2  C    0.208728
     3  C   -0.403535
     4  C    0.308937
     5  O   -0.458028
     6  C   -0.143577
     7  O   -0.283712
     8  C    0.381455
     9  C   -0.507734
    10  H    0.119453
    11  H    0.120391
    12  H    0.129195
    13  H    0.108572
    14  H    0.130224
    15  H    0.288360
    16  H    0.103970
    17  H    0.135161
    18  H    0.130841
    19  H    0.128776
 Sum of Mulliken charges =   0.00000

 Dipole moment (field-independent basis, Debye):
    X=              0.5250    Y=              0.3417    Z=             -0.5257  Tot=              0.8178
 Quadrupole moment (field-independent basis, Debye-Ang):
   XX=            -49.3639   YY=            -51.5128   ZZ=            -55.0929
   XY=             -4.6177   XZ=              3.6895   YZ=              2.7099

  Exact polarizability:  82.553  -3.285  77.158   2.806   2.143  65.857
 Approx polarizability: 113.103  -6.167 113.318  -2.117   1.425 104.216

                      1                      2                      3
                      A                      A                      A
 Frequencies --    143.7278               166.7164               184.7433
 Red. masses --      2.5274                 2.5469                 1.2362
 Frc consts  --      0.0308                 0.0417                 0.0249
 IR Inten    --      0.1585                 4.4246                 1.6498

                      4                      5                      6
                      A                      A                      A
 Frequencies --    186.8270               233.3410               300.6707
 Red. masses --      1.2100                 2.0120                 1.1718
 Frc consts  --      0.0249                 0.0645                 0.0624
 IR Inten    --      0.7852                 0.7056                59.0010

                      7                      8                      9
                      A                      A                      A
 Frequencies --    330.6892               359.2151               398.3181
 Red. masses --      2.6608                 4.0473                 3.1886
 Frc consts  --      0.1714                 0.3077                 0.2981
 IR Inten    --     16.5907                18.2770                13.6732

                     10                     11                     12
                      A                      A                      A
 Frequencies --    444.5877               514.5307               544.7876
 Red. masses --      2.9369                 3.8802                 3.8646
 Frc consts  --      0.3420                 0.6052                 0.6758
 IR Inten    --      0.4575                12.7421                 1.1471

                     13                     14                     15
                      A                      A                      A
 Frequencies --    567.5901               626.3615               744.6223
 Red. masses --      3.3201                 3.5610                 3.5148
 Frc consts  --      0.6302                 0.8231                 1.1482
 IR Inten    --      4.1076                 1.7568                 0.1261

                     16                     17                     18
                      A                      A                      A
 Frequencies --    770.2715               816.4204               863.2479
 Red. masses --      4.1546                 3.6691                 2.5124
 Frc consts  --      1.4523                 1.4409                 1.1031
 IR Inten    --      5.1046                22.3937                 1.2122

                     19                     20                     21
                      A                      A                      A
 Frequencies --    873.7781               960.1994               970.9637
 Red. masses --      2.2670                 1.8018                 1.3076
 Frc consts  --      1.0198                 0.9788                 0.7263
 IR Inten    --     22.2001                 9.5142                 1.5924

                     22                     23                     24
                      A                      A                      A
 Frequencies --    989.3724              1014.5510              1071.2673
 Red. masses --      1.7938                 2.2211                 1.3107
 Frc consts  --      1.0345                 1.3470                 0.8862
 IR Inten    --      5.9160                 8.4123                 2.5383

                     25                     26                     27
                      A                      A                      A
 Frequencies --   1086.4469              1103.6919              1143.9085
 Red. masses --      1.7036                 1.6658                 2.0931
 Frc consts  --      1.1848                 1.1955                 1.6137
 IR Inten    --     23.8183                 5.8090                 5.5050

                     28                     29                     30
                      A                      A                      A
 Frequencies --   1149.9683              1184.0489              1260.1044
 Red. masses --      2.1302                 2.0498                 2.5247
 Frc consts  --      1.6597                 1.6932                 2.3620
 IR Inten    --     50.1042                10.9364                 3.8591

                     31                     32                     33
                      A                      A                      A
 Frequencies --   1286.4572              1318.6865              1401.2150
 Red. masses --      1.6496                 3.2631                 1.2748
 Frc consts  --      1.6085                 3.3433                 1.4747
 IR Inten    --    110.0649                15.1135                 1.9834

                     34                     35                     36
                      A                      A                      A
 Frequencies --   1403.0720              1420.8720              1460.6055
 Red. masses --      1.3728                 1.3379                 2.3328
 Frc consts  --      1.5922                 1.5914                 2.9322
 IR Inten    --      9.9592                 2.1629                 7.1885

                     37                     38                     39
                      A                      A                      A
 Frequencies --   1480.3454              1485.3444              1490.8361
 Red. masses --      1.1653                 1.2697                 1.1728
 Frc consts  --      1.5046                 1.6504                 1.5358
 IR Inten    --      2.9265                 6.7248                13.6823

                     40                     41                     42
                      A                      A                      A
 Frequencies --   1499.7849              1506.6187              3022.8977
 Red. masses --      1.1132                 1.7633                 1.0364
 Frc consts  --      1.4754                 2.3583                 5.5800
 IR Inten    --      0.9372                15.7054                30.7174

                     43                     44                     45
                      A                      A                      A
 Frequencies --   3033.9944              3079.2389              3096.6032
 Red. masses --      1.0367                 1.1007                 1.0990
 Frc consts  --      5.6224                 6.1488                 6.2090
 IR Inten    --     27.4219                18.6776                19.5721

                     46                     47                     48
                      A                      A                      A
 Frequencies --   3102.3612              3121.8205              3129.4792
 Red. masses --      1.0991                 1.1011                 1.0542
 Frc consts  --      6.2327                 6.3226                 6.0829
 IR Inten    --     16.1867                12.6855                15.8444

                     49                     50                     51
                      A                      A                      A
 Frequencies --   3174.3894              3225.8565              3781.3780
 Red. masses --      1.0948                 1.1153                 1.0662
 Frc consts  --      6.4996                 6.8379                 8.9826
 IR Inten    --     18.0610                 3.6581                21.3873

 - Thermochemistry -
 -------------------
 Temperature   298.150 Kelvin.  Pressure   1.00000 Atm.
 Atom     1 has atomic number  6 and mass  12.00000

 Molecular mass:   126.06808 amu.
 Principal axes and moments of inertia in atomic units:
                           1         2         3
     Eigenvalues --   753.166901092.824441388.91420
           X            0.99868  -0.03073   0.04123
           Y            0.03026   0.99947   0.01207
           Z           -0.04158  -0.01081   0.99908
 This molecule is an asymmetric top.
 Rotational symmetry number  1.
 Warning -- assumption of classical behavior for rotation
           may cause significant error
 Rotational temperatures (Kelvin)      0.11500     0.07926     0.06236
 Rotational constants (GHZ):           2.39620     1.65145     1.29939
 Zero-point vibrational energy     409881.4 (Joules/Mol)
                                   97.96401 (Kcal/Mol)
 Warning -- explicit consideration of  13 degrees of freedom as
           vibrations may cause significant error
 Vibrational temperatures:    206.79   239.87   265.80   268.80   335.73
          (Kelvin)            432.60   475.79   516.83   573.09   639.66
                              740.29   783.83   816.63   901.19  1071.34
                             1108.25  1174.65  1242.02  1257.17  1381.51
                             1397.00  1423.48  1459.71  1541.31  1563.15
                             1587.96  1645.83  1654.55  1703.58  1813.01
                             1850.92  1897.29  2016.03  2018.71  2044.32
                             2101.48  2129.88  2137.08  2144.98  2157.85
                             2167.69  4349.27  4365.24  4430.33  4455.32
                             4463.60  4491.60  4502.62  4567.23  4641.28
                             5440.55

 Zero-point correction=                           0.156116 (Hartree/Particle)
 Thermal correction to Energy=                    0.165121
 Thermal correction to Enthalpy=                  0.166065
 Thermal correction to Gibbs Free Energy=         0.123217
 Sum of electronic and zero-point Energies=           -422.953989
 Sum of electronic and thermal Energies=              -422.944983
 Sum of electronic and thermal Enthalpies=            -422.944039
 Sum of electronic and thermal Free Energies=         -422.986888

                     E (Thermal)             CV                S
                      KCal/Mol        Cal/Mol-Kelvin    Cal/Mol-Kelvin
 Total                  103.615             34.960             90.183
 Electronic               0.000              0.000              0.000
 Translational            0.889              2.981             40.409
 Rotational               0.889              2.981             28.527
 Vibrational            101.838             28.998             21.247
 Vibration     1          0.616              1.909              2.754
 Vibration     2          0.624              1.883              2.472
 Vibration     3          0.631              1.861              2.280
 Vibration     4          0.632              1.858              2.259
 Vibration     5          0.654              1.790              1.853
 Vibration     6          0.693              1.672              1.413
 Vibration     7          0.713              1.614              1.257
 Vibration     8          0.734              1.556              1.126
 Vibration     9          0.765              1.474              0.969
 Vibration    10          0.804              1.373              0.812
 Vibration    11          0.870              1.218              0.623
 Vibration    12          0.900              1.151              0.555
 Vibration    13          0.924              1.101              0.509

 Normal termination of Gaussian 09 at Mon Jan 27 18:20:18 2020.
