 Gaussian 09, Revision D.01,
 Gaussian 09:  ES64L-G09RevD.01 24-Apr-2013

 -----------------------------
 # b3lyp 6-31G(2df,p) opt Freq
 -----------------------------

 -----
 titel
 -----
 Symbolic Z-matrix:
 Charge =  0 Multiplicity = 1

 SCF Done:  E(RB3LYP) =  -423.129972184     A.U. after   12 cycles
 Optimization completed.
    -- Stationary point found.
 Normal termination of Gaussian 09 at Mon Jan 27 17:56:16 2020.

 ----------------------------------------------------------------------
 #N Geom=AllCheck Guess=TCheck SCRF=Check GenChk RB3LYP/6-31G(2df,p) Fr
 eq
 ----------------------------------------------------------------------

 Structure from the checkpoint file:  "/scratch/puck/g09_e9c6c9c0-c68b-42f8-a97f-76f184a6b1cf/Gau-180635.chk"
 -----
 titel
 -----
 Charge =  0 Multiplicity = 1

                         Standard orientation:
 ---------------------------------------------------------------------
 Center     Atomic      Atomic             Coordinates (Angstroms)
 Number     Number       Type             X           Y           Z
 ---------------------------------------------------------------------
      1          6           0       -2.709255   -0.018169    0.339700
      2          6           0       -1.242618   -0.008933   -0.002008
      3          6           0       -0.572942   -1.236968   -0.704010
      4          6           0        0.697074   -0.753117   -0.025374
      5          8           0        1.912015   -1.400029    0.155261
      6          6           0       -0.048721   -0.000599    1.050673
      7          6           0        0.685988    0.786371   -0.021948
      8          8           0        1.865157    1.494638    0.045301
      9          6           0       -0.589231    1.232826   -0.700171
     10          1           0       -2.984879    0.864340    0.926874
     11          1           0       -3.320249   -0.017066   -0.570982
     12          1           0       -2.978038   -0.906590    0.920914
     13          1           0       -0.924747   -2.181850   -0.276975
     14          1           0       -0.617262   -1.279691   -1.799730
     15          1           0        2.323507   -1.506578   -0.711427
     16          1           0       -0.009502   -0.034389    2.129820
     17          1           0        2.563263    0.851666    0.232317
     18          1           0       -0.969695    2.169655   -0.280613
     19          1           0       -0.621552    1.275157   -1.795862
 ---------------------------------------------------------------------

 SCF Done:  E(RB3LYP) =  -423.129972184     A.U. after    1 cycles

 The electronic state is 1-A.
 Alpha  occ. eigenvalues --  -19.16235 -19.14307 -10.23567 -10.23277 -10.20554
 Alpha  occ. eigenvalues --  -10.18279 -10.17936 -10.17802 -10.17760  -1.05126
 Alpha  occ. eigenvalues --   -1.02344  -0.91771  -0.74546  -0.71688  -0.67970
 Alpha  occ. eigenvalues --   -0.60335  -0.56984  -0.54491  -0.51061  -0.47942
 Alpha  occ. eigenvalues --   -0.45727  -0.44492  -0.43161  -0.41864  -0.40213
 Alpha  occ. eigenvalues --   -0.38268  -0.36780  -0.35772  -0.34657  -0.31406
 Alpha  occ. eigenvalues --   -0.30374  -0.29740  -0.24340  -0.21639
 Alpha virt. eigenvalues --    0.05924   0.09053   0.12107   0.12727   0.13485
 Alpha virt. eigenvalues --    0.13685   0.14694   0.14832   0.14861   0.17307
 Alpha virt. eigenvalues --    0.17516   0.18463   0.19764   0.20764   0.23213

 Mulliken charges:
               1
     1  C   -0.497694
     2  C    0.320854
     3  C   -0.347043
     4  C    0.310401
     5  O   -0.473091
     6  C   -0.280002
     7  C    0.378711
     8  O   -0.476833
     9  C   -0.326828
    10  H    0.119822
    11  H    0.118874
    12  H    0.118397
    13  H    0.099920
    14  H    0.082714
    15  H    0.288571
    16  H    0.096848
    17  H    0.280061
    18  H    0.101899
    19  H    0.084419
 Sum of Mulliken charges =   0.00000

 Dipole moment (field-independent basis, Debye):
    X=             -0.3832    Y=             -1.1594    Z=             -0.9570  Tot=              1.5514
 Quadrupole moment (field-independent basis, Debye-Ang):
   XX=            -49.5830   YY=            -57.2734   ZZ=            -51.4980
   XY=             -2.7721   XZ=             -2.7490   YZ=              2.3345

  Exact polarizability:  85.272  -0.810  73.310  -0.881   0.566  67.700
 Approx polarizability: 114.990  -0.891 110.424  -2.045  -0.178 106.946

                      1                      2                      3
                      A                      A                      A
 Frequencies --    206.2279               212.2412               215.2241
 Red. masses --      1.2497                 3.5887                 1.8337
 Frc consts  --      0.0313                 0.0952                 0.0500
 IR Inten    --      9.5100                 6.5791                15.8236

                      4                      5                      6
                      A                      A                      A
 Frequencies --    239.8268               247.3830               292.4262
 Red. masses --      3.5169                 1.4378                 2.2312
 Frc consts  --      0.1192                 0.0518                 0.1124
 IR Inten    --     13.0666                68.9871                19.1730

                      7                      8                      9
                      A                      A                      A
 Frequencies --    379.3673               444.1205               453.1245
 Red. masses --      2.4595                 1.3044                 2.0374
 Frc consts  --      0.2086                 0.1516                 0.2465
 IR Inten    --      4.9773                43.2173                15.5843

                     10                     11                     12
                      A                      A                      A
 Frequencies --    454.5487               484.6177               565.6338
 Red. masses --      1.6815                 3.6547                 4.1273
 Frc consts  --      0.2047                 0.5057                 0.7780
 IR Inten    --     12.0971                 0.2950                 0.7868

                     13                     14                     15
                      A                      A                      A
 Frequencies --    638.1710               672.3029               722.7009
 Red. masses --      4.0877                 3.9451                 3.1542
 Frc consts  --      0.9808                 1.0506                 0.9706
 IR Inten    --      2.2477                31.3279                 5.4915

                     16                     17                     18
                      A                      A                      A
 Frequencies --    778.8499               811.0935               874.6468
 Red. masses --      2.5320                 2.5068                 2.1480
 Frc consts  --      0.9049                 0.9716                 0.9682
 IR Inten    --      2.4214                 0.6414                 0.0864

                     19                     20                     21
                      A                      A                      A
 Frequencies --    891.0257               976.9189               983.4602
 Red. masses --      1.8572                 1.3245                 2.6584
 Frc consts  --      0.8687                 0.7448                 1.5149
 IR Inten    --      1.1986                 0.8170                 6.6496

                     22                     23                     24
                      A                      A                      A
 Frequencies --   1027.1709              1040.4327              1055.8180
 Red. masses --      1.9873                 1.9122                 1.9372
 Frc consts  --      1.2354                 1.2196                 1.2723
 IR Inten    --      4.9813                26.0006                 1.3627

                     25                     26                     27
                      A                      A                      A
 Frequencies --   1106.3993              1119.7119              1134.5464
 Red. masses --      1.4525                 1.3695                 2.1226
 Frc consts  --      1.0476                 1.0117                 1.6097
 IR Inten    --     11.4133                 5.8682                 0.8916

                     28                     29                     30
                      A                      A                      A
 Frequencies --   1163.7307              1193.9414              1214.1657
 Red. masses --      1.9629                 1.7454                 1.9273
 Frc consts  --      1.5662                 1.4660                 1.6740
 IR Inten    --     58.9689                15.7363                 9.5073

                     31                     32                     33
                      A                      A                      A
 Frequencies --   1221.9324              1308.4886              1339.6995
 Red. masses --      1.6365                 2.2814                 2.5247
 Frc consts  --      1.4396                 2.3014                 2.6697
 IR Inten    --     22.5840               156.4326                24.0294

                     34                     35                     36
                      A                      A                      A
 Frequencies --   1355.0708              1410.3037              1416.6534
 Red. masses --      2.3006                 1.7444                 1.6899
 Frc consts  --      2.4890                 2.0442                 1.9981
 IR Inten    --     84.8852                13.7621                 1.0675

                     37                     38                     39
                      A                      A                      A
 Frequencies --   1437.0943              1489.3892              1493.8311
 Red. masses --      2.9540                 1.0597                 1.0575
 Frc consts  --      3.5944                 1.3850                 1.3904
 IR Inten    --     64.1384                 3.9053                 4.4056

                     40                     41                     42
                      A                      A                      A
 Frequencies --   1496.6815              1513.8301              3015.6426
 Red. masses --      1.2306                 1.2615                 1.0590
 Frc consts  --      1.6241                 1.7033                 5.6744
 IR Inten    --      0.3855                12.8497                45.5509

                     43                     44                     45
                      A                      A                      A
 Frequencies --   3021.9409              3026.7732              3081.9032
 Red. masses --      1.0432                 1.0516                 1.1037
 Frc consts  --      5.6129                 5.6761                 6.1764
 IR Inten    --     31.9187                66.2428                16.8362

                     46                     47                     48
                      A                      A                      A
 Frequencies --   3084.7500              3087.7559              3097.3122
 Red. masses --      1.1050                 1.1006                 1.1012
 Frc consts  --      6.1949                 6.1824                 6.2243
 IR Inten    --     14.0273                41.4732                27.8092

                     49                     50                     51
                      A                      A                      A
 Frequencies --   3223.4356              3744.6968              3770.3341
 Red. masses --      1.0969                 1.0650                 1.0657
 Frc consts  --      6.7150                 8.7994                 8.9261
 IR Inten    --      2.7022                36.5290                17.1216

 - Thermochemistry -
 -------------------
 Temperature   298.150 Kelvin.  Pressure   1.00000 Atm.
 Atom     1 has atomic number  6 and mass  12.00000

 Molecular mass:   126.06808 amu.
 Principal axes and moments of inertia in atomic units:
                           1         2         3
     Eigenvalues --   628.714191158.111861496.06919
           X            0.99994  -0.00777  -0.00766
           Y            0.00786   0.99989   0.01255
           Z            0.00757  -0.01260   0.99989
 This molecule is an asymmetric top.
 Rotational symmetry number  1.
 Warning -- assumption of classical behavior for rotation
           may cause significant error
 Rotational temperatures (Kelvin)      0.13776     0.07479     0.05789
 Rotational constants (GHZ):           2.87053     1.55835     1.20632
 Zero-point vibrational energy     414131.3 (Joules/Mol)
                                   98.97976 (Kcal/Mol)
 Warning -- explicit consideration of  12 degrees of freedom as
           vibrations may cause significant error
 Vibrational temperatures:    296.72   305.37   309.66   345.06   355.93
          (Kelvin)            420.74   545.82   638.99   651.94   653.99
                              697.26   813.82   918.18   967.29  1039.80
                             1120.59  1166.98  1258.42  1281.99  1405.57
                             1414.98  1477.87  1496.95  1519.08  1591.86
                             1611.01  1632.36  1674.35  1717.81  1746.91
                             1758.09  1882.62  1927.53  1949.64  2029.11
                             2038.25  2067.66  2142.90  2149.29  2153.39
                             2178.06  4338.83  4347.89  4354.85  4434.17
                             4438.26  4442.59  4456.34  4637.80  5387.78
                             5424.66

 Zero-point correction=                           0.157734 (Hartree/Particle)
 Thermal correction to Energy=                    0.166177
 Thermal correction to Enthalpy=                  0.167121
 Thermal correction to Gibbs Free Energy=         0.125635
 Sum of electronic and zero-point Energies=           -422.972238
 Sum of electronic and thermal Energies=              -422.963795
 Sum of electronic and thermal Enthalpies=            -422.962851
 Sum of electronic and thermal Free Energies=         -423.004337

                     E (Thermal)             CV                S
                      KCal/Mol        Cal/Mol-Kelvin    Cal/Mol-Kelvin
 Total                  104.278             34.051             87.315
 Electronic               0.000              0.000              0.000
 Translational            0.889              2.981             40.409
 Rotational               0.889              2.981             28.479
 Vibrational            102.500             28.089             18.428
 Vibration     1          0.641              1.831              2.077
 Vibration     2          0.643              1.822              2.024
 Vibration     3          0.645              1.818              1.999
 Vibration     4          0.657              1.780              1.804
 Vibration     5          0.661              1.767              1.749
 Vibration     6          0.688              1.688              1.460
 Vibration     7          0.749              1.514              1.042
 Vibration     8          0.804              1.374              0.814
 Vibration     9          0.812              1.354              0.786
 Vibration    10          0.813              1.351              0.782
 Vibration    11          0.841              1.284              0.698
 Vibration    12          0.922              1.106              0.513

 Optimization completed.
    -- Stationary point found.
 Normal termination of Gaussian 09 at Mon Jan 27 18:38:59 2020.
