 Gaussian 09, Revision D.01,
 Gaussian 09:  ES64L-G09RevD.01 24-Apr-2013

 -----------------------------
 # b3lyp 6-31G(2df,p) opt Freq
 -----------------------------

 -----
 titel
 -----
 Symbolic Z-matrix:
 Charge =  0 Multiplicity = 1

 SCF Done:  E(RB3LYP) =  -423.086382801     A.U. after   14 cycles
 Optimization completed.
    -- Stationary point found.
 Normal termination of Gaussian 09 at Tue Jan 28 14:12:57 2020.

 ----------------------------------------------------------------------
 #N Geom=AllCheck Guess=TCheck SCRF=Check GenChk RB3LYP/6-31G(2df,p) Fr
 eq
 ----------------------------------------------------------------------

 Structure from the checkpoint file:  "/scratch/puck/g09_d4cc3000-621c-4f5a-80cd-6fd6db3ee453/Gau-44174.chk"
 -----
 titel
 -----
 Charge =  0 Multiplicity = 1

                         Standard orientation:
 ---------------------------------------------------------------------
 Center     Atomic      Atomic             Coordinates (Angstroms)
 Number     Number       Type             X           Y           Z
 ---------------------------------------------------------------------
      1          8           0        3.443336   -0.298467    0.068520
      2          6           0        2.131234    0.098592    0.431643
      3          6           0        1.082987   -0.327798   -0.604424
      4          6           0       -0.301652    0.099117   -0.229594
      5          8           0       -0.580095    1.535004   -0.091277
      6          6           0       -1.847687    0.883441    0.206168
      7          6           0       -1.691016   -0.225647   -0.877744
      8          6           0       -1.980256   -1.351605    0.137978
      9          6           0       -1.216157   -0.309553    0.982473
     10          1           0        3.703332    0.215202   -0.702718
     11          1           0        1.925956   -0.391821    1.388990
     12          1           0        2.062429    1.182225    0.599842
     13          1           0        1.330573    0.112335   -1.579923
     14          1           0        1.109818   -1.416978   -0.725574
     15          1           0       -2.709223    1.502010    0.455248
     16          1           0       -1.947372   -0.145834   -1.934452
     17          1           0       -3.029586   -1.514466    0.398265
     18          1           0       -1.479282   -2.308406   -0.032870
     19          1           0       -0.937289   -0.325844    2.036252
 ---------------------------------------------------------------------

 SCF Done:  E(RB3LYP) =  -423.086382801     A.U. after    1 cycles

 The electronic state is 1-A.
 Alpha  occ. eigenvalues --  -19.13413 -19.12633 -10.25147 -10.24662 -10.22689
 Alpha  occ. eigenvalues --  -10.20131 -10.20106 -10.19239 -10.18951  -1.05876
 Alpha  occ. eigenvalues --   -1.01505  -0.86616  -0.77375  -0.65731  -0.65134
 Alpha  occ. eigenvalues --   -0.64353  -0.60449  -0.51210  -0.50751  -0.49275
 Alpha  occ. eigenvalues --   -0.46805  -0.45407  -0.44847  -0.41937  -0.40321
 Alpha  occ. eigenvalues --   -0.38385  -0.36548  -0.33358  -0.32428  -0.30804
 Alpha  occ. eigenvalues --   -0.30346  -0.30115  -0.26449  -0.23198
 Alpha virt. eigenvalues --    0.07498   0.08531   0.10112   0.10809   0.11991
 Alpha virt. eigenvalues --    0.12602   0.13496   0.14260   0.16115   0.16279
 Alpha virt. eigenvalues --    0.17734   0.17966   0.18595   0.18890   0.20539

 Mulliken charges:
               1
     1  O   -0.417680
     2  C   -0.064022
     3  C   -0.372455
     4  C    0.498467
     5  O   -0.366669
     6  C    0.088120
     7  C   -0.144591
     8  C   -0.280400
     9  C   -0.134541
    10  H    0.282438
    11  H    0.114386
    12  H    0.114230
    13  H    0.104107
    14  H    0.117520
    15  H    0.094341
    16  H    0.081005
    17  H    0.100431
    18  H    0.102275
    19  H    0.083036
 Sum of Mulliken charges =   0.00000

 Dipole moment (field-independent basis, Debye):
    X=             -1.2498    Y=             -0.6328    Z=             -0.7269  Tot=              1.5782
 Quadrupole moment (field-independent basis, Debye-Ang):
   XX=            -53.6145   YY=            -56.4387   ZZ=            -50.9455
   XY=              3.2649   XZ=             -4.4104   YZ=              0.0001

  Exact polarizability:  87.187   1.053  69.994  -2.307  -0.300  68.597
 Approx polarizability: 113.954   0.384 109.738  -3.327  -1.594 106.343

                      1                      2                      3
                      A                      A                      A
 Frequencies --     77.0016                88.6048               128.7109
 Red. masses --      3.7201                 1.9853                 4.0260
 Frc consts  --      0.0130                 0.0092                 0.0393
 IR Inten    --      2.2549                 5.0526                 0.1493

                      4                      5                      6
                      A                      A                      A
 Frequencies --    255.4452               297.3409               338.7768
 Red. masses --      2.4085                 1.1200                 3.5636
 Frc consts  --      0.0926                 0.0583                 0.2410
 IR Inten    --      6.4434                90.3158                 1.2505

                      7                      8                      9
                      A                      A                      A
 Frequencies --    360.2383               460.9063               544.7234
 Red. masses --      4.5844                 2.3403                 4.2487
 Frc consts  --      0.3505                 0.2929                 0.7428
 IR Inten    --     24.2763                 1.7842                 1.1886

                     10                     11                     12
                      A                      A                      A
 Frequencies --    696.8374               732.7039               768.4398
 Red. masses --      3.2921                 2.2829                 2.2980
 Frc consts  --      0.9419                 0.7221                 0.7995
 IR Inten    --      4.2678                 5.6389                 0.8629

                     13                     14                     15
                      A                      A                      A
 Frequencies --    776.8187               813.6762               854.6531
 Red. masses --      4.7010                 1.9566                 2.0658
 Frc consts  --      1.6714                 0.7632                 0.8890
 IR Inten    --     14.8560                13.6489                 1.2232

                     16                     17                     18
                      A                      A                      A
 Frequencies --    878.3130               901.3809               925.2802
 Red. masses --      1.9455                 1.8615                 2.9537
 Frc consts  --      0.8843                 0.8911                 1.4899
 IR Inten    --     12.7315                 6.6175                 7.7670

                     19                     20                     21
                      A                      A                      A
 Frequencies --    969.9513               994.6258              1028.8720
 Red. masses --      2.3082                 1.6307                 1.4529
 Frc consts  --      1.2794                 0.9505                 0.9061
 IR Inten    --     21.0827                11.6674                 1.8714

                     22                     23                     24
                      A                      A                      A
 Frequencies --   1049.1010              1072.0247              1076.6925
 Red. masses --      1.7121                 3.3862                 3.7811
 Frc consts  --      1.1102                 2.2928                 2.5825
 IR Inten    --      7.5206               136.5726                 4.8289

                     25                     26                     27
                      A                      A                      A
 Frequencies --   1101.6079              1105.2183              1142.8897
 Red. masses --      1.5161                 2.2751                 1.4600
 Frc consts  --      1.0840                 1.6374                 1.1236
 IR Inten    --      1.4138                 8.6916                 1.4478

                     28                     29                     30
                      A                      A                      A
 Frequencies --   1162.7835              1177.8502              1190.6323
 Red. masses --      1.4685                 1.5398                 1.7066
 Frc consts  --      1.1698                 1.2587                 1.4254
 IR Inten    --      4.1376                 9.4263                 1.1274

                     31                     32                     33
                      A                      A                      A
 Frequencies --   1233.7899              1249.5519              1277.0475
 Red. masses --      1.6179                 1.8044                 1.9258
 Frc consts  --      1.4511                 1.6600                 1.8504
 IR Inten    --      5.5003                 4.5137                24.6718

                     34                     35                     36
                      A                      A                      A
 Frequencies --   1292.4796              1326.1999              1381.8743
 Red. masses --      1.4806                 1.2176                 2.0706
 Frc consts  --      1.4573                 1.2617                 2.3297
 IR Inten    --      4.0927                 6.5343                16.9310

                     37                     38                     39
                      A                      A                      A
 Frequencies --   1407.0535              1420.8820              1467.5350
 Red. masses --      1.6166                 1.4077                 1.1004
 Frc consts  --      1.8857                 1.6745                 1.3963
 IR Inten    --      4.9256                47.2103                 4.5690

                     40                     41                     42
                      A                      A                      A
 Frequencies --   1513.1156              1514.9513              3013.0950
 Red. masses --      1.0901                 1.1200                 1.0637
 Frc consts  --      1.4705                 1.5144                 5.6900
 IR Inten    --      0.4302                 0.8884                19.6121

                     43                     44                     45
                      A                      A                      A
 Frequencies --   3020.2018              3053.4435              3065.0216
 Red. masses --      1.0649                 1.0551                 1.0929
 Frc consts  --      5.7228                 5.7957                 6.0490
 IR Inten    --     30.1506                43.6747                 5.6064

                     46                     47                     48
                      A                      A                      A
 Frequencies --   3086.3205              3108.6937              3114.3786
 Red. masses --      1.1027                 1.1098                 1.0880
 Frc consts  --      6.1887                 6.3188                 6.2174
 IR Inten    --     36.4338                28.5642                16.1813

                     49                     50                     51
                      A                      A                      A
 Frequencies --   3116.1024              3132.2182              3817.0148
 Red. masses --      1.0910                 1.0984                 1.0662
 Frc consts  --      6.2414                 6.3489                 9.1524
 IR Inten    --     78.7539                34.8100                20.0386

 - Thermochemistry -
 -------------------
 Temperature   298.150 Kelvin.  Pressure   1.00000 Atm.
 Atom     1 has atomic number  8 and mass  15.99491

 Molecular mass:   126.06808 amu.
 Principal axes and moments of inertia in atomic units:
                           1         2         3
     Eigenvalues --   465.827751773.008961930.44654
           X            0.99987   0.01518  -0.00497
           Y           -0.01511   0.99979   0.01378
           Z            0.00517  -0.01370   0.99989
 This molecule is an asymmetric top.
 Rotational symmetry number  1.
 Warning -- assumption of classical behavior for rotation
           may cause significant error
 Rotational temperatures (Kelvin)      0.18594     0.04885     0.04487
 Rotational constants (GHZ):           3.87427     1.01790     0.93488
 Zero-point vibrational energy     416199.2 (Joules/Mol)
                                   99.47399 (Kcal/Mol)
 Warning -- explicit consideration of   9 degrees of freedom as
           vibrations may cause significant error
 Vibrational temperatures:    110.79   127.48   185.19   367.53   427.81
          (Kelvin)            487.42   518.30   663.14   783.73  1002.59
                             1054.20  1105.61  1117.67  1170.70  1229.65
                             1263.69  1296.88  1331.27  1395.54  1431.04
                             1480.32  1509.42  1542.40  1549.12  1584.97
                             1590.16  1644.36  1672.98  1694.66  1713.05
                             1775.15  1797.82  1837.38  1859.59  1908.10
                             1988.21  2024.43  2044.33  2111.45  2177.03
                             2179.67  4335.17  4345.39  4393.22  4409.88
                             4440.52  4472.71  4480.89  4483.37  4506.56
                             5491.83

 Zero-point correction=                           0.158522 (Hartree/Particle)
 Thermal correction to Energy=                    0.166756
 Thermal correction to Enthalpy=                  0.167700
 Thermal correction to Gibbs Free Energy=         0.125154
 Sum of electronic and zero-point Energies=           -422.927861
 Sum of electronic and thermal Energies=              -422.919627
 Sum of electronic and thermal Enthalpies=            -422.918683
 Sum of electronic and thermal Free Energies=         -422.961228

                     E (Thermal)             CV                S
                      KCal/Mol        Cal/Mol-Kelvin    Cal/Mol-Kelvin
 Total                  104.641             31.447             89.544
 Electronic               0.000              0.000              0.000
 Translational            0.889              2.981             40.409
 Rotational               0.889              2.981             28.857
 Vibrational            102.863             25.486             20.279
 Vibration     1          0.599              1.964              3.966
 Vibration     2          0.601              1.957              3.691
 Vibration     3          0.611              1.925              2.965
 Vibration     4          0.666              1.754              1.693
 Vibration     5          0.691              1.679              1.432
 Vibration     6          0.719              1.598              1.218
 Vibration     7          0.735              1.554              1.121
 Vibration     8          0.819              1.337              0.763
 Vibration     9          0.900              1.151              0.555

 Optimization completed.
    -- Stationary point found.
 Normal termination of Gaussian 09 at Tue Jan 28 14:59:24 2020.
