 Gaussian 09, Revision D.01,
 Gaussian 09:  ES64L-G09RevD.01 24-Apr-2013

 -----------------------------
 # b3lyp 6-31G(2df,p) opt Freq
 -----------------------------

 -----
 titel
 -----
 Symbolic Z-matrix:
 Charge =  0 Multiplicity = 1

 SCF Done:  E(RB3LYP) =  -423.073167750     A.U. after   14 cycles
 Optimization completed.
    -- Stationary point found.
 Normal termination of Gaussian 09 at Tue Jan 28 14:12:49 2020.

 ----------------------------------------------------------------------
 #N Geom=AllCheck Guess=TCheck SCRF=Check GenChk RB3LYP/6-31G(2df,p) Fr
 eq
 ----------------------------------------------------------------------

 Structure from the checkpoint file:  "/scratch/puck/g09_e32c76ba-92a7-4bb6-8ca0-859d33aac65b/Gau-44172.chk"
 -----
 titel
 -----
 Charge =  0 Multiplicity = 1

                         Standard orientation:
 ---------------------------------------------------------------------
 Center     Atomic      Atomic             Coordinates (Angstroms)
 Number     Number       Type             X           Y           Z
 ---------------------------------------------------------------------
      1          6           0        3.342265   -0.147339   -0.118529
      2          8           0        2.009006    0.222261   -0.377430
      3          6           0        1.110929   -0.239424    0.611729
      4          6           0       -0.271396    0.196755    0.238489
      5          6           0       -0.878425    1.607591    0.071409
      6          6           0       -2.068291    0.677929   -0.255432
      7          6           0       -1.144457   -0.384590   -0.923605
      8          8           0       -1.650661   -1.508723   -0.139724
      9          6           0       -1.613921   -0.386736    0.790831
     10          1           0        3.463462   -1.241582   -0.080182
     11          1           0        3.955415    0.247763   -0.932141
     12          1           0        3.704943    0.269727    0.834703
     13          1           0        1.133745   -1.340338    0.681300
     14          1           0        1.389202    0.160396    1.602651
     15          1           0       -0.966206    2.211569    0.979376
     16          1           0       -0.484396    2.208904   -0.751278
     17          1           0       -3.093332    0.918299   -0.535291
     18          1           0       -0.891862   -0.543104   -1.971246
     19          1           0       -1.937962   -0.545056    1.819981
 ---------------------------------------------------------------------

 SCF Done:  E(RB3LYP) =  -423.073167750     A.U. after    1 cycles

 The electronic state is 1-A.
 Alpha  occ. eigenvalues --  -19.14120 -19.12766 -10.24733 -10.24421 -10.22980
 Alpha  occ. eigenvalues --  -10.22485 -10.20430 -10.20143 -10.18859  -1.06003
 Alpha  occ. eigenvalues --   -1.03348  -0.86713  -0.74221  -0.66231  -0.65247
 Alpha  occ. eigenvalues --   -0.64987  -0.60287  -0.52507  -0.49748  -0.48619
 Alpha  occ. eigenvalues --   -0.47918  -0.45505  -0.45332  -0.43066  -0.40928
 Alpha  occ. eigenvalues --   -0.38464  -0.37779  -0.33217  -0.31156  -0.30868
 Alpha  occ. eigenvalues --   -0.30338  -0.30243  -0.25676  -0.23169
 Alpha virt. eigenvalues --    0.07888   0.08772   0.11123   0.12049   0.12337
 Alpha virt. eigenvalues --    0.12985   0.14380   0.15211   0.15315   0.16237
 Alpha virt. eigenvalues --    0.17508   0.17729   0.18397   0.18518   0.19637

 Mulliken charges:
               1
     1  C   -0.218731
     2  O   -0.239153
     3  C   -0.222437
     4  C    0.321994
     5  C   -0.320262
     6  C   -0.100694
     7  C    0.062975
     8  O   -0.331407
     9  C    0.038555
    10  H    0.105667
    11  H    0.127065
    12  H    0.103011
    13  H    0.102419
    14  H    0.085975
    15  H    0.096798
    16  H    0.110379
    17  H    0.084920
    18  H    0.099756
    19  H    0.093171
 Sum of Mulliken charges =   0.00000

 Dipole moment (field-independent basis, Debye):
    X=              0.9156    Y=              1.1792    Z=              0.8910  Tot=              1.7386
 Quadrupole moment (field-independent basis, Debye-Ang):
   XX=            -50.1379   YY=            -57.2464   ZZ=            -50.2200
   XY=             -4.6359   XZ=              0.1752   YZ=             -0.2239

  Exact polarizability:  87.911  -0.988  71.251  -0.960   0.005  69.954
 Approx polarizability: 110.405   1.394 109.367  -1.892  -0.371 109.648

                      1                      2                      3
                      A                      A                      A
 Frequencies --     66.5394                90.2698               126.6206
 Red. masses --      3.3400                 2.2069                 3.4755
 Frc consts  --      0.0087                 0.0106                 0.0328
 IR Inten    --      0.6407                 4.1936                 2.2625

                      4                      5                      6
                      A                      A                      A
 Frequencies --    220.8083               268.3137               344.5928
 Red. masses --      1.4547                 2.1504                 3.2109
 Frc consts  --      0.0418                 0.0912                 0.2246
 IR Inten    --      1.9499                 1.9428                 1.0481

                      7                      8                      9
                      A                      A                      A
 Frequencies --    345.9908               427.2955               579.0228
 Red. masses --      2.7910                 2.3437                 4.0684
 Frc consts  --      0.1969                 0.2521                 0.8036
 IR Inten    --      0.5580                 0.7864                 4.7650

                     10                     11                     12
                      A                      A                      A
 Frequencies --    714.3584               743.8707               781.5756
 Red. masses --      3.2997                 3.4801                 3.3515
 Frc consts  --      0.9921                 1.1346                 1.2062
 IR Inten    --      0.5666                 0.5971                 1.9679

                     13                     14                     15
                      A                      A                      A
 Frequencies --    823.1031               842.4253               878.1803
 Red. masses --      3.7146                 2.2727                 2.4967
 Frc consts  --      1.4828                 0.9503                 1.1344
 IR Inten    --     14.5652                 7.3952                 9.0395

                     16                     17                     18
                      A                      A                      A
 Frequencies --    894.1331               932.9887               946.3906
 Red. masses --      2.4738                 2.2069                 2.2507
 Frc consts  --      1.1652                 1.1318                 1.1877
 IR Inten    --     19.9083                 1.6725                19.7050

                     19                     20                     21
                      A                      A                      A
 Frequencies --    984.1105              1012.6473              1061.9089
 Red. masses --      2.4867                 1.4713                 1.3278
 Frc consts  --      1.4189                 0.8889                 0.8822
 IR Inten    --     12.4535                 2.7280                 1.0808

                     22                     23                     24
                      A                      A                      A
 Frequencies --   1077.5251              1112.0537              1128.6568
 Red. masses --      2.8686                 1.9634                 1.7079
 Frc consts  --      1.9624                 1.4306                 1.2819
 IR Inten    --      4.9219                11.9881                 3.4807

                     25                     26                     27
                      A                      A                      A
 Frequencies --   1145.0704              1157.1686              1169.2186
 Red. masses --      1.7655                 4.6110                 1.5630
 Frc consts  --      1.3639                 3.6378                 1.2590
 IR Inten    --      8.9666               145.4100                 6.7024

                     28                     29                     30
                      A                      A                      A
 Frequencies --   1170.4127              1186.4911              1222.8268
 Red. masses --      1.4243                 1.3613                 1.8779
 Frc consts  --      1.1496                 1.1291                 1.6545
 IR Inten    --      3.7944                 5.1528                28.2889

                     31                     32                     33
                      A                      A                      A
 Frequencies --   1228.8407              1240.8091              1282.1109
 Red. masses --      1.6650                 1.6366                 1.4163
 Frc consts  --      1.4813                 1.4846                 1.3717
 IR Inten    --     24.3666                 0.1752                15.8751

                     34                     35                     36
                      A                      A                      A
 Frequencies --   1315.7408              1353.2441              1426.8011
 Red. masses --      2.0393                 1.8756                 1.8958
 Frc consts  --      2.0801                 2.0236                 2.2739
 IR Inten    --      2.4232                15.3572                26.9358

                     37                     38                     39
                      A                      A                      A
 Frequencies --   1479.3570              1485.0416              1499.0799
 Red. masses --      1.1696                 1.0486                 1.0649
 Frc consts  --      1.5081                 1.3625                 1.4100
 IR Inten    --      2.1254                 4.7980                10.3329

                     40                     41                     42
                      A                      A                      A
 Frequencies --   1517.9965              1521.6497              2945.8155
 Red. masses --      1.1533                 1.0995                 1.0552
 Frc consts  --      1.5657                 1.4999                 5.3949
 IR Inten    --      1.5139                 1.4455                32.9759

                     43                     44                     45
                      A                      A                      A
 Frequencies --   2969.8016              2980.5039              3012.4352
 Red. masses --      1.0394                 1.1005                 1.1031
 Frc consts  --      5.4012                 5.7599                 5.8977
 IR Inten    --     78.5654                45.4923                52.8594

                     46                     47                     48
                      A                      A                      A
 Frequencies --   3053.6372              3112.9398              3113.7182
 Red. masses --      1.0565                 1.0920                 1.1052
 Frc consts  --      5.8043                 6.2345                 6.3133
 IR Inten    --     42.4015                20.5591                26.5980

                     49                     50                     51
                      A                      A                      A
 Frequencies --   3114.0208              3124.4384              3137.4532
 Red. masses --      1.0967                 1.0895                 1.0988
 Frc consts  --      6.2659                 6.2662                 6.3726
 IR Inten    --     50.3584                50.4767                26.1104

 - Thermochemistry -
 -------------------
 Temperature   298.150 Kelvin.  Pressure   1.00000 Atm.
 Atom     1 has atomic number  6 and mass  12.00000

 Molecular mass:   126.06808 amu.
 Principal axes and moments of inertia in atomic units:
                           1         2         3
     Eigenvalues --   476.756981663.695241853.29166
           X            0.99971  -0.02383   0.00407
           Y            0.02386   0.99968  -0.00876
           Z           -0.00386   0.00886   0.99995
 This molecule is an asymmetric top.
 Rotational symmetry number  1.
 Warning -- assumption of classical behavior for rotation
           may cause significant error
 Rotational temperatures (Kelvin)      0.18167     0.05206     0.04674
 Rotational constants (GHZ):           3.78545     1.08478     0.97380
 Zero-point vibrational energy     414924.8 (Joules/Mol)
                                   99.16940 (Kcal/Mol)
 Warning -- explicit consideration of   9 degrees of freedom as
           vibrations may cause significant error
 Vibrational temperatures:     95.74   129.88   182.18   317.69   386.04
          (Kelvin)            495.79   497.80   614.78   833.08  1027.80
                             1070.26  1124.51  1184.26  1212.06  1263.50
                             1286.46  1342.36  1361.64  1415.91  1456.97
                             1527.85  1550.32  1600.00  1623.88  1647.50
                             1664.91  1682.24  1683.96  1707.09  1759.37
                             1768.03  1785.25  1844.67  1893.06  1947.01
                             2052.85  2128.46  2136.64  2156.84  2184.06
                             2189.31  4238.37  4272.88  4288.27  4334.22
                             4393.50  4478.82  4479.94  4480.38  4495.36
                             4514.09

 Zero-point correction=                           0.158036 (Hartree/Particle)
 Thermal correction to Energy=                    0.166300
 Thermal correction to Enthalpy=                  0.167244
 Thermal correction to Gibbs Free Energy=         0.124486
 Sum of electronic and zero-point Energies=           -422.915131
 Sum of electronic and thermal Energies=              -422.906868
 Sum of electronic and thermal Enthalpies=            -422.905924
 Sum of electronic and thermal Free Energies=         -422.948682

                     E (Thermal)             CV                S
                      KCal/Mol        Cal/Mol-Kelvin    Cal/Mol-Kelvin
 Total                  104.355             30.868             89.992
 Electronic               0.000              0.000              0.000
 Translational            0.889              2.981             40.409
 Rotational               0.889              2.981             28.776
 Vibrational            102.577             24.906             20.807
 Vibration     1          0.598              1.970              4.253
 Vibration     2          0.602              1.956              3.654
 Vibration     3          0.611              1.927              2.997
 Vibration     4          0.648              1.809              1.952
 Vibration     5          0.673              1.731              1.607
 Vibration     6          0.723              1.586              1.191
 Vibration     7          0.724              1.583              1.184
 Vibration     8          0.789              1.411              0.868
 Vibration     9          0.936              1.077              0.487

 Optimization completed.
    -- Stationary point found.
 Normal termination of Gaussian 09 at Tue Jan 28 14:59:04 2020.
