 Gaussian 09, Revision D.01,
 Gaussian 09:  ES64L-G09RevD.01 24-Apr-2013

 -----------------------------
 # b3lyp 6-31G(2df,p) opt Freq
 -----------------------------

 -----
 titel
 -----
 Symbolic Z-matrix:
 Charge =  0 Multiplicity = 1

 SCF Done:  E(RB3LYP) =  -423.138273391     A.U. after   13 cycles
 Optimization completed.
    -- Stationary point found.
 Normal termination of Gaussian 09 at Tue Jan 28 14:09:31 2020.

 ----------------------------------------------------------------------
 #N Geom=AllCheck Guess=TCheck SCRF=Check GenChk RB3LYP/6-31G(2df,p) Fr
 eq
 ----------------------------------------------------------------------

 Structure from the checkpoint file:  "/scratch/puck/g09_b47055a2-36e4-4a36-8ea8-1eaf90865c30/Gau-121087.chk"
 -----
 titel
 -----
 Charge =  0 Multiplicity = 1

                         Standard orientation:
 ---------------------------------------------------------------------
 Center     Atomic      Atomic             Coordinates (Angstroms)
 Number     Number       Type             X           Y           Z
 ---------------------------------------------------------------------
      1          8           0       -2.976132   -0.836975   -0.076130
      2          6           0       -2.314578    0.417683   -0.177664
      3          6           0       -0.841964    0.168065   -0.366051
      4          6           0        0.132854    1.156935    0.226249
      5          8           0        1.415480    1.275656   -0.338771
      6          6           0        2.191298    0.140930   -0.025190
      7          6           0        1.873713   -1.169242   -0.695845
      8          6           0        1.331254   -0.871550    0.690656
      9          6           0       -0.018580   -0.206590    0.853499
     10          1           0       -3.922876   -0.671635   -0.031941
     11          1           0       -2.700679    1.002074   -1.027904
     12          1           0       -2.473429    1.022668    0.730904
     13          1           0       -0.583704   -0.283342   -1.317272
     14          1           0       -0.223333    2.085106    0.662957
     15          1           0        3.210744    0.392335    0.247656
     16          1           0        1.208108   -1.181758   -1.549839
     17          1           0        2.681311   -1.892182   -0.753150
     18          1           0        1.701567   -1.446753    1.530268
     19          1           0       -0.536471   -0.353355    1.793613
 ---------------------------------------------------------------------

 SCF Done:  E(RB3LYP) =  -423.138273391     A.U. after    1 cycles

 The electronic state is 1-A.
 Alpha  occ. eigenvalues --  -19.14447 -19.13291 -10.23124 -10.23119 -10.23033
 Alpha  occ. eigenvalues --  -10.19327 -10.19153 -10.18636 -10.18265  -1.04746
 Alpha  occ. eigenvalues --   -1.01372  -0.85688  -0.83608  -0.70169  -0.63537
 Alpha  occ. eigenvalues --   -0.61117  -0.57222  -0.55276  -0.52124  -0.50664
 Alpha  occ. eigenvalues --   -0.46379  -0.45661  -0.44334  -0.42102  -0.41109
 Alpha  occ. eigenvalues --   -0.37821  -0.37235  -0.35637  -0.32891  -0.30438
 Alpha  occ. eigenvalues --   -0.28981  -0.26854  -0.25177  -0.23104
 Alpha virt. eigenvalues --    0.07104   0.08659   0.09729   0.11490   0.12918
 Alpha virt. eigenvalues --    0.13533   0.15381   0.16161   0.16712   0.17042
 Alpha virt. eigenvalues --    0.18433   0.19020   0.20351   0.22034   0.23332

 Mulliken charges:
               1
     1  O   -0.416853
     2  C   -0.114770
     3  C   -0.059445
     4  C    0.075706
     5  O   -0.262366
     6  C    0.100778
     7  C   -0.326912
     8  C   -0.082514
     9  C   -0.078706
    10  H    0.285453
    11  H    0.090921
    12  H    0.079836
    13  H    0.094890
    14  H    0.094489
    15  H    0.097721
    16  H    0.124929
    17  H    0.110820
    18  H    0.092427
    19  H    0.093597
 Sum of Mulliken charges =   0.00000

 Dipole moment (field-independent basis, Debye):
    X=             -1.0862    Y=              0.0994    Z=              0.8349  Tot=              1.3736
 Quadrupole moment (field-independent basis, Debye-Ang):
   XX=            -44.0248   YY=            -56.0869   ZZ=            -52.2718
   XY=             -6.2141   XZ=              1.1797   YZ=              1.0745

  Exact polarizability:  91.180  -4.850  69.403  -0.088   1.324  63.651
 Approx polarizability: 115.259  -1.498 108.001  -0.869  -0.369  99.945

                      1                      2                      3
                      A                      A                      A
 Frequencies --     74.4187               128.7342               209.3934
 Red. masses --      3.7445                 4.6466                 2.3307
 Frc consts  --      0.0122                 0.0454                 0.0602
 IR Inten    --      2.1881                 3.0545                17.7344

                      4                      5                      6
                      A                      A                      A
 Frequencies --    264.7404               283.3876               313.1293
 Red. masses --      1.2890                 2.7152                 2.3552
 Frc consts  --      0.0532                 0.1285                 0.1361
 IR Inten    --     67.3760                 0.5643                26.8184

                      7                      8                      9
                      A                      A                      A
 Frequencies --    384.1984               484.3527               523.1984
 Red. masses --      5.1418                 2.4706                 3.0711
 Frc consts  --      0.4472                 0.3415                 0.4953
 IR Inten    --      0.6495                 6.0120                 8.3099

                     10                     11                     12
                      A                      A                      A
 Frequencies --    704.4141               713.1530               771.2362
 Red. masses --      3.9277                 4.1033                 1.7631
 Frc consts  --      1.1483                 1.2295                 0.6179
 IR Inten    --     11.8749                 1.5372                12.1827

                     13                     14                     15
                      A                      A                      A
 Frequencies --    782.9528               829.5392               873.3508
 Red. masses --      2.3459                 1.6498                 2.5367
 Frc consts  --      0.8473                 0.6689                 1.1400
 IR Inten    --      9.4340                 8.9755                 7.1308

                     16                     17                     18
                      A                      A                      A
 Frequencies --    921.3462               937.1967               968.0096
 Red. masses --      2.2324                 2.8078                 2.5687
 Frc consts  --      1.1165                 1.4530                 1.4182
 IR Inten    --      9.8809                23.4638                10.5091

                     19                     20                     21
                      A                      A                      A
 Frequencies --    992.5003              1012.6571              1028.8985
 Red. masses --      1.8072                 1.6790                 1.5964
 Frc consts  --      1.0489                 1.0145                 0.9957
 IR Inten    --     10.7064                22.6484                 3.1168

                     22                     23                     24
                      A                      A                      A
 Frequencies --   1053.1658              1059.4067              1077.8452
 Red. masses --      1.5039                 2.4466                 1.5086
 Frc consts  --      0.9828                 1.6179                 1.0326
 IR Inten    --      0.5141                30.6049                 5.8555

                     25                     26                     27
                      A                      A                      A
 Frequencies --   1088.3341              1092.8448              1103.9847
 Red. masses --      1.9407                 1.7646                 1.5910
 Frc consts  --      1.3544                 1.2417                 1.1425
 IR Inten    --     20.2219                 1.8322                17.3581

                     28                     29                     30
                      A                      A                      A
 Frequencies --   1136.5566              1166.1464              1196.9740
 Red. masses --      1.9380                 2.6763                 2.0996
 Frc consts  --      1.4750                 2.1443                 1.7724
 IR Inten    --     18.5384                81.3042                40.3920

                     31                     32                     33
                      A                      A                      A
 Frequencies --   1211.4642              1247.7347              1260.6760
 Red. masses --      1.6495                 1.1975                 1.2525
 Frc consts  --      1.4264                 1.0984                 1.1728
 IR Inten    --      8.2784                14.1569                52.1928

                     34                     35                     36
                      A                      A                      A
 Frequencies --   1298.2348              1310.0659              1344.2172
 Red. masses --      1.2532                 1.2557                 1.6939
 Frc consts  --      1.2444                 1.2698                 1.8033
 IR Inten    --      0.9564                 3.5625                 4.9930

                     37                     38                     39
                      A                      A                      A
 Frequencies --   1382.0777              1427.5846              1466.6632
 Red. masses --      1.6400                 1.9743                 1.6033
 Frc consts  --      1.8456                 2.3707                 2.0320
 IR Inten    --      7.5138                 8.0760                31.6716

                     40                     41                     42
                      A                      A                      A
 Frequencies --   1480.9623              1517.9371              2955.6693
 Red. masses --      1.2577                 1.0840                 1.0587
 Frc consts  --      1.6252                 1.4716                 5.4492
 IR Inten    --     10.0049                 3.1263                57.8263

                     43                     44                     45
                      A                      A                      A
 Frequencies --   2988.4964              3137.1970              3150.4529
 Red. masses --      1.1018                 1.0561                 1.0900
 Frc consts  --      5.7978                 6.1239                 6.3743
 IR Inten    --     62.5831                 9.9073                25.2731

                     46                     47                     48
                      A                      A                      A
 Frequencies --   3163.9530              3174.5387              3179.4290
 Red. masses --      1.0912                 1.0900                 1.0876
 Frc consts  --      6.4362                 6.4720                 6.4775
 IR Inten    --     25.7034                 6.1954                11.2136

                     49                     50                     51
                      A                      A                      A
 Frequencies --   3190.9675              3228.1448              3822.0964
 Red. masses --      1.0937                 1.1129                 1.0662
 Frc consts  --      6.5616                 6.8329                 9.1770
 IR Inten    --     15.2357                10.4437                15.5018

 - Thermochemistry -
 -------------------
 Temperature   298.150 Kelvin.  Pressure   1.00000 Atm.
 Atom     1 has atomic number  8 and mass  15.99491

 Molecular mass:   126.06808 amu.
 Principal axes and moments of inertia in atomic units:
                           1         2         3
     Eigenvalues --   476.065141631.929961842.31779
           X            0.99949  -0.03183  -0.00024
           Y            0.03182   0.99893   0.03348
           Z           -0.00082  -0.03348   0.99944
 This molecule is an asymmetric top.
 Rotational symmetry number  1.
 Warning -- assumption of classical behavior for rotation
           may cause significant error
 Rotational temperatures (Kelvin)      0.18194     0.05307     0.04701
 Rotational constants (GHZ):           3.79095     1.10589     0.97960
 Zero-point vibrational energy     419378.6 (Joules/Mol)
                                  100.23389 (Kcal/Mol)
 Warning -- explicit consideration of   9 degrees of freedom as
           vibrations may cause significant error
 Vibrational temperatures:    107.07   185.22   301.27   380.90   407.73
          (Kelvin)            450.52   552.78   696.87   752.76  1013.49
                             1026.07  1109.64  1126.49  1193.52  1256.56
                             1325.61  1348.42  1392.75  1427.98  1456.99
                             1480.35  1515.27  1524.25  1550.78  1565.87
                             1572.36  1588.39  1635.25  1677.82  1722.18
                             1743.02  1795.21  1813.83  1867.87  1884.89
                             1934.03  1988.50  2053.97  2110.20  2130.77
                             2183.97  4252.54  4299.77  4513.72  4532.79
                             4552.22  4567.45  4574.48  4591.08  4644.57
                             5499.14

 Zero-point correction=                           0.159733 (Hartree/Particle)
 Thermal correction to Energy=                    0.167746
 Thermal correction to Enthalpy=                  0.168690
 Thermal correction to Gibbs Free Energy=         0.126958
 Sum of electronic and zero-point Energies=           -422.978541
 Sum of electronic and thermal Energies=              -422.970528
 Sum of electronic and thermal Enthalpies=            -422.969584
 Sum of electronic and thermal Free Energies=         -423.011316

                     E (Thermal)             CV                S
                      KCal/Mol        Cal/Mol-Kelvin    Cal/Mol-Kelvin
 Total                  105.262             31.215             87.833
 Electronic               0.000              0.000              0.000
 Translational            0.889              2.981             40.409
 Rotational               0.889              2.981             28.750
 Vibrational            103.485             25.254             18.674
 Vibration     1          0.599              1.966              4.033
 Vibration     2          0.611              1.925              2.965
 Vibration     3          0.642              1.826              2.049
 Vibration     4          0.671              1.738              1.630
 Vibration     5          0.682              1.704              1.513
 Vibration     6          0.701              1.649              1.346
 Vibration     7          0.753              1.504              1.023
 Vibration     8          0.840              1.285              0.698
 Vibration     9          0.878              1.199              0.603

 Optimization completed.
    -- Stationary point found.
 Normal termination of Gaussian 09 at Tue Jan 28 14:50:25 2020.
