 Gaussian 09, Revision D.01,
 Gaussian 09:  ES64L-G09RevD.01 24-Apr-2013

 -----------------------------
 # b3lyp 6-31G(2df,p) opt Freq
 -----------------------------

 -----
 titel
 -----
 Symbolic Z-matrix:
 Charge =  0 Multiplicity = 1

 SCF Done:  E(RB3LYP) =  -423.133356461     A.U. after   14 cycles
 Optimization completed.
    -- Stationary point found.
 Normal termination of Gaussian 09 at Mon Jan 27 13:58:50 2020.

 ----------------------------------------------------------------------
 #N Geom=AllCheck Guess=TCheck SCRF=Check GenChk RB3LYP/6-31G(2df,p) Fr
 eq
 ----------------------------------------------------------------------

 Structure from the checkpoint file:  "/scratch/puck/g09_5c38bda1-6eee-4ec2-98c6-53b795af0cbb/Gau-170712.chk"
 -----
 titel
 -----
 Charge =  0 Multiplicity = 1

                         Standard orientation:
 ---------------------------------------------------------------------
 Center     Atomic      Atomic             Coordinates (Angstroms)
 Number     Number       Type             X           Y           Z
 ---------------------------------------------------------------------
      1          6           0       -3.660915   -0.621282   -0.011243
      2          6           0       -2.297729   -0.136828   -0.171177
      3          6           0       -1.169676    0.257343   -0.325159
      4          6           0        0.196142    0.762494   -0.463247
      5          8           0        0.348892    2.057281    0.123898
      6          6           0        1.230955   -0.207570    0.120755
      7          6           0        1.107232   -0.522153    1.591882
      8          6           0        2.526902   -0.301579   -0.561833
      9          8           0        1.525991   -1.310925   -0.741244
     10          1           0       -4.350458   -0.098320   -0.682630
     11          1           0       -3.724232   -1.691553   -0.235529
     12          1           0       -4.018003   -0.475713    1.014037
     13          1           0        0.430115    0.876672   -1.528694
     14          1           0       -0.294970    2.128516    0.835519
     15          1           0        1.204254    0.393486    2.183499
     16          1           0        0.133095   -0.971805    1.807228
     17          1           0        1.887820   -1.221270    1.899969
     18          1           0        2.728974    0.318708   -1.434102
     19          1           0        3.406877   -0.612125   -0.000399
 ---------------------------------------------------------------------

 SCF Done:  E(RB3LYP) =  -423.133356461     A.U. after    1 cycles

 The electronic state is 1-A.
 Alpha  occ. eigenvalues --  -19.14683 -19.14306 -10.25556 -10.24092 -10.22875
 Alpha  occ. eigenvalues --  -10.21026 -10.18631 -10.17936 -10.17475  -1.06876
 Alpha  occ. eigenvalues --   -1.02438  -0.78961  -0.76205  -0.72313  -0.68010
 Alpha  occ. eigenvalues --   -0.65669  -0.57085  -0.53759  -0.50130  -0.48121
 Alpha  occ. eigenvalues --   -0.46270  -0.44370  -0.43289  -0.43193  -0.41932
 Alpha  occ. eigenvalues --   -0.39723  -0.38054  -0.36816  -0.36046  -0.29703
 Alpha  occ. eigenvalues --   -0.29415  -0.26974  -0.26235  -0.24815
 Alpha virt. eigenvalues --    0.03073   0.04685   0.09442   0.10562   0.10918
 Alpha virt. eigenvalues --    0.11269   0.13374   0.14412   0.15558   0.15717
 Alpha virt. eigenvalues --    0.17328   0.17952   0.19044   0.20000   0.21269

 Mulliken charges:
               1
     1  C   -0.500305
     2  C    0.062905
     3  C    0.050257
     4  C   -0.113251
     5  O   -0.423154
     6  C    0.433964
     7  C   -0.479275
     8  C   -0.232225
     9  O   -0.275947
    10  H    0.153470
    11  H    0.157485
    12  H    0.149948
    13  H    0.115121
    14  H    0.288610
    15  H    0.124706
    16  H    0.133496
    17  H    0.127027
    18  H    0.115175
    19  H    0.111993
 Sum of Mulliken charges =   0.00000

 Dipole moment (field-independent basis, Debye):
    X=             -1.3566    Y=              0.2340    Z=              1.4470  Tot=              1.9972
 Quadrupole moment (field-independent basis, Debye-Ang):
   XX=            -42.5854   YY=            -58.3375   ZZ=            -51.4322
   XY=              1.4045   XZ=             -0.6144   YZ=             -0.5391

  Exact polarizability: 109.705   7.029  65.225  -5.225  -1.239  66.135
 Approx polarizability: 149.783  17.392 101.272 -10.698   1.101  95.486

                      1                      2                      3
                      A                      A                      A
 Frequencies --     19.4342                52.0518                84.2013
 Red. masses --      1.0206                 3.7838                 3.5017
 Frc consts  --      0.0002                 0.0060                 0.0146
 IR Inten    --      0.0322                 2.4554                 3.4919

                      4                      5                      6
                      A                      A                      A
 Frequencies --    136.9043               157.3319               203.4816
 Red. masses --      3.3039                 1.2269                 1.1377
 Frc consts  --      0.0365                 0.0179                 0.0278
 IR Inten    --      6.3392                66.3751                25.0977

                      7                      8                      9
                      A                      A                      A
 Frequencies --    221.8200               260.0554               303.3241
 Red. masses --      3.2742                 3.1803                 4.0225
 Frc consts  --      0.0949                 0.1267                 0.2181
 IR Inten    --      1.4199                 3.1194                 6.7451

                     10                     11                     12
                      A                      A                      A
 Frequencies --    349.1530               372.9858               382.4523
 Red. masses --      2.8450                 3.7020                 3.4205
 Frc consts  --      0.2043                 0.3034                 0.2948
 IR Inten    --      3.9648                10.2697                 2.7977

                     13                     14                     15
                      A                      A                      A
 Frequencies --    474.9523               506.9236               588.8448
 Red. masses --      5.1837                 4.0101                 5.9778
 Frc consts  --      0.6890                 0.6071                 1.2212
 IR Inten    --      1.4887                 2.8559                 9.3858

                     16                     17                     18
                      A                      A                      A
 Frequencies --    761.0885               796.8764               850.0926
 Red. masses --      3.8474                 3.4943                 3.5526
 Frc consts  --      1.3131                 1.3073                 1.5126
 IR Inten    --      8.1147                10.7801                17.2195

                     19                     20                     21
                      A                      A                      A
 Frequencies --    924.9970               935.2642              1027.8227
 Red. masses --      1.9170                 1.8604                 3.1172
 Frc consts  --      0.9664                 0.9588                 1.9402
 IR Inten    --      5.7215                10.4611                89.1364

                     22                     23                     24
                      A                      A                      A
 Frequencies --   1031.9154              1051.7737              1054.4569
 Red. masses --      2.3956                 1.4233                 1.3998
 Frc consts  --      1.5030                 0.9277                 0.9170
 IR Inten    --     60.2037                 0.0220                 1.2424

                     25                     26                     27
                      A                      A                      A
 Frequencies --   1106.5597              1133.9672              1161.6048
 Red. masses --      1.7131                 1.4130                 1.6545
 Frc consts  --      1.2359                 1.0705                 1.3153
 IR Inten    --      9.6518                 6.5411                 0.7274

                     28                     29                     30
                      A                      A                      A
 Frequencies --   1167.7088              1252.0124              1281.1802
 Red. masses --      2.4729                 1.2685                 3.0540
 Frc consts  --      1.9867                 1.1715                 2.9535
 IR Inten    --      8.3436                13.4556                 4.6517

                     31                     32                     33
                      A                      A                      A
 Frequencies --   1302.5114              1392.2536              1399.2956
 Red. masses --      1.4743                 1.3044                 1.3349
 Frc consts  --      1.4737                 1.4897                 1.5399
 IR Inten    --     14.0580                39.4569                49.0736

                     34                     35                     36
                      A                      A                      A
 Frequencies --   1414.2976              1433.5966              1476.2020
 Red. masses --      1.2399                 1.9456                 1.0392
 Frc consts  --      1.4612                 2.3558                 1.3343
 IR Inten    --      2.6585                22.4276                 5.7032

                     37                     38                     39
                      A                      A                      A
 Frequencies --   1477.7466              1481.6255              1500.0164
 Red. masses --      1.0397                 1.0464                 1.0680
 Frc consts  --      1.3377                 1.3534                 1.4159
 IR Inten    --      6.3449                 3.4826                 4.2961

                     40                     41                     42
                      A                      A                      A
 Frequencies --   1532.5760              2365.2997              3030.2927
 Red. masses --      1.4127                11.8721                 1.0347
 Frc consts  --      1.9550                39.1337                 5.5981
 IR Inten    --      4.4110                17.2247                25.9041

                     43                     44                     45
                      A                      A                      A
 Frequencies --   3035.9728              3043.9351              3081.9903
 Red. masses --      1.0836                 1.0352                 1.0506
 Frc consts  --      5.8847                 5.6512                 5.8798
 IR Inten    --     20.6988                12.6222                26.8741

                     46                     47                     48
                      A                      A                      A
 Frequencies --   3092.0959              3093.8845              3112.4008
 Red. masses --      1.1003                 1.1002                 1.1008
 Frc consts  --      6.1981                 6.2050                 6.2827
 IR Inten    --      8.6602                 7.5172                13.8898

                     49                     50                     51
                      A                      A                      A
 Frequencies --   3129.6950              3168.3195              3827.4988
 Red. masses --      1.1016                 1.1194                 1.0666
 Frc consts  --      6.3572                 6.6208                 9.2059
 IR Inten    --     15.8097                23.5446                26.8834

 - Thermochemistry -
 -------------------
 Temperature   298.150 Kelvin.  Pressure   1.00000 Atm.
 Atom     1 has atomic number  6 and mass  12.00000

 Molecular mass:   126.06808 amu.
 Principal axes and moments of inertia in atomic units:
                           1         2         3
     Eigenvalues --   678.725321890.546342099.81763
           X            0.99988   0.01549   0.00258
           Y           -0.01532   0.99834  -0.05544
           Z           -0.00343   0.05540   0.99846
 This molecule is an asymmetric top.
 Rotational symmetry number  1.
 Warning -- assumption of classical behavior for rotation
           may cause significant error
 Rotational temperatures (Kelvin)      0.12761     0.04581     0.04125
 Rotational constants (GHZ):           2.65902     0.95461     0.85948
 Zero-point vibrational energy     406986.0 (Joules/Mol)
                                   97.27198 (Kcal/Mol)
 Warning -- explicit consideration of  15 degrees of freedom as
           vibrations may cause significant error
 Vibrational temperatures:     27.96    74.89   121.15   196.97   226.37
          (Kelvin)            292.76   319.15   374.16   436.42   502.35
                              536.64   550.26   683.35   729.35   847.22
                             1095.04  1146.53  1223.09  1330.86  1345.63
                             1478.81  1484.69  1513.27  1517.13  1592.09
                             1631.52  1671.29  1680.07  1801.36  1843.33
                             1874.02  2003.14  2013.27  2034.86  2062.62
                             2123.92  2126.15  2131.73  2158.19  2205.03
                             3403.13  4359.91  4368.08  4379.54  4434.29
                             4448.83  4451.40  4478.04  4502.93  4558.50
                             5506.91

 Zero-point correction=                           0.155013 (Hartree/Particle)
 Thermal correction to Energy=                    0.165897
 Thermal correction to Enthalpy=                  0.166841
 Thermal correction to Gibbs Free Energy=         0.117304
 Sum of electronic and zero-point Energies=           -422.978344
 Sum of electronic and thermal Energies=              -422.967460
 Sum of electronic and thermal Enthalpies=            -422.966516
 Sum of electronic and thermal Free Energies=         -423.016052

                     E (Thermal)             CV                S
                      KCal/Mol        Cal/Mol-Kelvin    Cal/Mol-Kelvin
 Total                  104.102             37.421            104.258
 Electronic               0.000              0.000              0.000
 Translational            0.889              2.981             40.409
 Rotational               0.889              2.981             29.378
 Vibrational            102.324             31.459             34.471
 Vibration     1          0.593              1.986              6.691
 Vibration     2          0.596              1.977              4.738
 Vibration     3          0.601              1.960              3.790
 Vibration     4          0.614              1.916              2.847
 Vibration     5          0.621              1.894              2.582
 Vibration     6          0.639              1.835              2.101
 Vibration     7          0.648              1.808              1.944
 Vibration     8          0.668              1.746              1.661
 Vibration     9          0.695              1.667              1.398
 Vibration    10          0.726              1.577              1.170
 Vibration    11          0.744              1.528              1.067
 Vibration    12          0.752              1.508              1.029
 Vibration    13          0.832              1.306              0.724
 Vibration    14          0.862              1.235              0.641
 Vibration    15          0.946              1.056              0.469

 Optimization completed on the basis of negligible forces.
    -- Stationary point found.
 Normal termination of Gaussian 09 at Mon Jan 27 14:34:50 2020.
