 Gaussian 09, Revision D.01,
 Gaussian 09:  ES64L-G09RevD.01 24-Apr-2013

 -----------------------------
 # b3lyp 6-31G(2df,p) opt Freq
 -----------------------------

 -----
 titel
 -----
 Symbolic Z-matrix:
 Charge =  0 Multiplicity = 1

 SCF Done:  E(RB3LYP) =  -423.146506660     A.U. after   13 cycles
 Optimization completed.
    -- Stationary point found.
 Normal termination of Gaussian 09 at Mon Jan 27 23:47:43 2020.

 ----------------------------------------------------------------------
 #N Geom=AllCheck Guess=TCheck SCRF=Check GenChk RB3LYP/6-31G(2df,p) Fr
 eq
 ----------------------------------------------------------------------

 Structure from the checkpoint file:  "/scratch/puck/g09_9199c16b-6bd1-4fbc-81c5-ec3496238cf6/Gau-78012.chk"
 -----
 titel
 -----
 Charge =  0 Multiplicity = 1

                         Standard orientation:
 ---------------------------------------------------------------------
 Center     Atomic      Atomic             Coordinates (Angstroms)
 Number     Number       Type             X           Y           Z
 ---------------------------------------------------------------------
      1          6           0        2.342235   -0.499332    0.166422
      2          6           0        0.859545   -0.268211    0.111233
      3          8           0        0.274779   -0.668932   -1.165788
      4          6           0       -0.906097   -1.200697   -0.505418
      5          6           0       -1.941524   -0.094431   -0.213184
      6          6           0       -1.063083    0.377260    0.971031
      7          6           0        0.233710    1.102382    0.482293
      8          8           0        0.160343    2.046127   -0.546983
      9          6           0       -0.272825   -0.988688    0.898507
     10          1           0        2.733241   -0.245743    1.156922
     11          1           0        2.584877   -1.543513   -0.051207
     12          1           0        2.848554    0.132541   -0.571729
     13          1           0       -1.221340   -2.146821   -0.949435
     14          1           0       -2.160537    0.620045   -1.012138
     15          1           0       -2.878019   -0.533406    0.145509
     16          1           0       -1.554559    0.768548    1.860915
     17          1           0        0.753651    1.560905    1.330711
     18          1           0        0.053771    1.528107   -1.357832
     19          1           0       -0.152391   -1.727915    1.685149
 ---------------------------------------------------------------------

 SCF Done:  E(RB3LYP) =  -423.146506660     A.U. after    1 cycles

 The electronic state is 1-A.
 Alpha  occ. eigenvalues --  -19.14111 -19.13085 -10.23856 -10.23700 -10.22688
 Alpha  occ. eigenvalues --  -10.19267 -10.18884 -10.18488 -10.18002  -1.05386
 Alpha  occ. eigenvalues --   -1.01049  -0.84549  -0.77229  -0.70152  -0.66666
 Alpha  occ. eigenvalues --   -0.60894  -0.58392  -0.53435  -0.50562  -0.48739
 Alpha  occ. eigenvalues --   -0.47274  -0.44138  -0.41938  -0.41087  -0.40537
 Alpha  occ. eigenvalues --   -0.38567  -0.37929  -0.36853  -0.34552  -0.31872
 Alpha  occ. eigenvalues --   -0.28665  -0.27992  -0.26073  -0.24094
 Alpha virt. eigenvalues --    0.06934   0.09207   0.10490   0.10956   0.11408
 Alpha virt. eigenvalues --    0.13429   0.14195   0.15554   0.16015   0.16561
 Alpha virt. eigenvalues --    0.17660   0.18170   0.20061   0.21408   0.21885

 Mulliken charges:
               1
     1  C   -0.499930
     2  C    0.393873
     3  O   -0.355041
     4  C    0.105571
     5  C   -0.251423
     6  C   -0.102384
     7  C    0.128443
     8  O   -0.446724
     9  C   -0.152559
    10  H    0.120234
    11  H    0.125419
    12  H    0.135113
    13  H    0.079851
    14  H    0.103621
    15  H    0.104259
    16  H    0.068187
    17  H    0.081915
    18  H    0.286987
    19  H    0.074590
 Sum of Mulliken charges =   0.00000

 Dipole moment (field-independent basis, Debye):
    X=             -0.4118    Y=             -1.6601    Z=              1.3293  Tot=              2.1662
 Quadrupole moment (field-independent basis, Debye-Ang):
   XX=            -50.4978   YY=            -57.1234   ZZ=            -52.2526
   XY=              0.7582   XZ=              1.3518   YZ=             -0.4154

  Exact polarizability:  82.065   1.366  71.786   1.458   0.916  67.696
 Approx polarizability: 109.201   2.802 107.268   0.837   0.940 107.651

                      1                      2                      3
                      A                      A                      A
 Frequencies --    165.1382               200.4957               225.2209
 Red. masses --      3.6944                 1.2131                 2.2701
 Frc consts  --      0.0594                 0.0287                 0.0678
 IR Inten    --      3.7102                 0.4046                 0.0715

                      4                      5                      6
                      A                      A                      A
 Frequencies --    260.5785               289.7122               435.6613
 Red. masses --      4.2524                 2.4758                 2.4017
 Frc consts  --      0.1701                 0.1224                 0.2686
 IR Inten    --      5.2462                 0.7737                 3.8789

                      7                      8                      9
                      A                      A                      A
 Frequencies --    485.1718               532.6459               576.3253
 Red. masses --      2.0774                 1.4588                 3.0682
 Frc consts  --      0.2881                 0.2438                 0.6004
 IR Inten    --      7.9505                62.8935                 1.0941

                     10                     11                     12
                      A                      A                      A
 Frequencies --    592.8538               696.1417               764.8106
 Red. masses --      4.1122                 3.7251                 4.1636
 Frc consts  --      0.8516                 1.0636                 1.4349
 IR Inten    --      5.5384                 6.6659                 7.8939

                     13                     14                     15
                      A                      A                      A
 Frequencies --    796.5752               828.8151               852.1494
 Red. masses --      2.3463                 1.8634                 2.2945
 Frc consts  --      0.8772                 0.7542                 0.9817
 IR Inten    --      1.2780                 3.7162                 6.7130

                     16                     17                     18
                      A                      A                      A
 Frequencies --    857.0425               900.0323               922.1554
 Red. masses --      1.7395                 2.3690                 2.0097
 Frc consts  --      0.7528                 1.1307                 1.0069
 IR Inten    --      2.3837                14.2872                22.3612

                     19                     20                     21
                      A                      A                      A
 Frequencies --    968.9655               978.9497              1001.0889
 Red. masses --      4.3549                 2.4415                 1.6922
 Frc consts  --      2.4090                 1.3786                 0.9992
 IR Inten    --     10.4581                45.6499                27.3273

                     22                     23                     24
                      A                      A                      A
 Frequencies --   1031.7784              1100.4030              1119.3712
 Red. masses --      2.5968                 1.6619                 1.5315
 Frc consts  --      1.6288                 1.1856                 1.1306
 IR Inten    --      1.0728                19.0766                53.9419

                     25                     26                     27
                      A                      A                      A
 Frequencies --   1127.9538              1141.6963              1144.7015
 Red. masses --      2.0329                 2.5353                 1.9188
 Frc consts  --      1.5239                 1.9471                 1.4814
 IR Inten    --     39.6824                13.4203                25.2640

                     28                     29                     30
                      A                      A                      A
 Frequencies --   1175.6879              1186.9415              1207.5941
 Red. masses --      2.1414                 1.5559                 1.5796
 Frc consts  --      1.7439                 1.2915                 1.3572
 IR Inten    --      8.0210                 6.9780                 5.1914

                     31                     32                     33
                      A                      A                      A
 Frequencies --   1257.8483              1265.4761              1306.8043
 Red. masses --      1.8257                 1.8955                 1.5129
 Frc consts  --      1.7019                 1.7885                 1.5223
 IR Inten    --      7.3398                 2.4289                 3.5167

                     34                     35                     36
                      A                      A                      A
 Frequencies --   1310.7287              1330.2049              1349.2568
 Red. masses --      1.5717                 1.8786                 1.6990
 Frc consts  --      1.5909                 1.9584                 1.8224
 IR Inten    --      6.5471                18.8357                 3.1162

                     37                     38                     39
                      A                      A                      A
 Frequencies --   1409.0175              1439.7578              1477.3267
 Red. masses --      1.4382                 1.3335                 1.1102
 Frc consts  --      1.6823                 1.6287                 1.4276
 IR Inten    --     13.7759                81.6132                 2.3520

                     40                     41                     42
                      A                      A                      A
 Frequencies --   1479.3632              1488.5751              3033.8727
 Red. masses --      1.0557                 1.0507                 1.0354
 Frc consts  --      1.3613                 1.3717                 5.6152
 IR Inten    --      7.9584                 3.6880                14.5274

                     43                     44                     45
                      A                      A                      A
 Frequencies --   3047.0572              3053.2920              3089.7527
 Red. masses --      1.0579                 1.0859                 1.0907
 Frc consts  --      5.7870                 5.9644                 6.1346
 IR Inten    --     27.0270                34.6369                59.7727

                     46                     47                     48
                      A                      A                      A
 Frequencies --   3101.8643              3104.3038              3114.2023
 Red. masses --      1.1065                 1.1004                 1.1018
 Frc consts  --      6.2726                 6.2478                 6.2957
 IR Inten    --     19.7009                13.7881                13.3716

                     49                     50                     51
                      A                      A                      A
 Frequencies --   3115.2963              3158.0170              3735.8546
 Red. masses --      1.0904                 1.0941                 1.0647
 Frc consts  --      6.2347                 6.4287                 8.7552
 IR Inten    --     43.8780                23.9862                29.7524

 - Thermochemistry -
 -------------------
 Temperature   298.150 Kelvin.  Pressure   1.00000 Atm.
 Atom     1 has atomic number  6 and mass  12.00000

 Molecular mass:   126.06808 amu.
 Principal axes and moments of inertia in atomic units:
                           1         2         3
     Eigenvalues --   741.14367 909.083831164.79286
           X            0.99955  -0.02400   0.01784
           Y            0.02412   0.99969  -0.00661
           Z           -0.01767   0.00704   0.99982
 This molecule is an asymmetric top.
 Rotational symmetry number  1.
 Warning -- assumption of classical behavior for rotation
           may cause significant error
 Rotational temperatures (Kelvin)      0.11687     0.09528     0.07436
 Rotational constants (GHZ):           2.43508     1.98523     1.54941
 Zero-point vibrational energy     420095.8 (Joules/Mol)
                                  100.40530 (Kcal/Mol)
 Warning -- explicit consideration of  10 degrees of freedom as
           vibrations may cause significant error
 Vibrational temperatures:    237.60   288.47   324.04   374.91   416.83
          (Kelvin)            626.82   698.05   766.36   829.20   852.98
                             1001.59  1100.39  1146.09  1192.48  1226.05
                             1233.09  1294.94  1326.77  1394.12  1408.49
                             1440.34  1484.50  1583.23  1610.52  1622.87
                             1642.64  1646.97  1691.55  1707.74  1737.46
                             1809.76  1820.74  1880.20  1885.84  1913.87
                             1941.28  2027.26  2071.49  2125.54  2128.47
                             2141.72  4365.06  4384.03  4393.00  4445.46
                             4462.89  4466.40  4480.64  4482.21  4543.68
                             5375.05

 Zero-point correction=                           0.160006 (Hartree/Particle)
 Thermal correction to Energy=                    0.167490
 Thermal correction to Enthalpy=                  0.168434
 Thermal correction to Gibbs Free Energy=         0.128583
 Sum of electronic and zero-point Energies=           -422.986501
 Sum of electronic and thermal Energies=              -422.979017
 Sum of electronic and thermal Enthalpies=            -422.978073
 Sum of electronic and thermal Free Energies=         -423.017924

                     E (Thermal)             CV                S
                      KCal/Mol        Cal/Mol-Kelvin    Cal/Mol-Kelvin
 Total                  105.102             30.595             83.875
 Electronic               0.000              0.000              0.000
 Translational            0.889              2.981             40.409
 Rotational               0.889              2.981             28.153
 Vibrational            103.324             24.633             15.313
 Vibration     1          0.624              1.885              2.490
 Vibration     2          0.638              1.839              2.129
 Vibration     3          0.650              1.803              1.917
 Vibration     4          0.669              1.745              1.658
 Vibration     5          0.686              1.693              1.476
 Vibration     6          0.796              1.392              0.840
 Vibration     7          0.841              1.283              0.696
 Vibration     8          0.888              1.178              0.581
 Vibration     9          0.933              1.082              0.492
 Vibration    10          0.950              1.047              0.462

 Optimization completed.
    -- Stationary point found.
 Normal termination of Gaussian 09 at Tue Jan 28 00:35:46 2020.
