 Gaussian 09, Revision D.01,
 Gaussian 09:  ES64L-G09RevD.01 24-Apr-2013

 -----------------------------
 # b3lyp 6-31G(2df,p) opt Freq
 -----------------------------

 -----
 titel
 -----
 Symbolic Z-matrix:
 Charge =  0 Multiplicity = 1

 SCF Done:  E(RB3LYP) =  -423.118328249     A.U. after   13 cycles
 Optimization completed.
    -- Stationary point found.
 Normal termination of Gaussian 09 at Tue Jan 28 02:55:17 2020.

 ----------------------------------------------------------------------
 #N Geom=AllCheck Guess=TCheck SCRF=Check GenChk RB3LYP/6-31G(2df,p) Fr
 eq
 ----------------------------------------------------------------------

 Structure from the checkpoint file:  "/scratch/puck/g09_7d80e21b-1e7f-443e-9884-d1e7220cc69a/Gau-11260.chk"
 -----
 titel
 -----
 Charge =  0 Multiplicity = 1

                         Standard orientation:
 ---------------------------------------------------------------------
 Center     Atomic      Atomic             Coordinates (Angstroms)
 Number     Number       Type             X           Y           Z
 ---------------------------------------------------------------------
      1          8           0       -2.785746   -0.403333   -0.144500
      2          6           0       -1.523492   -0.055611    0.359827
      3          6           0       -1.034240    1.369205   -0.096579
      4          6           0        0.380337    0.756702   -0.169729
      5          6           0        1.713997    0.557430   -0.943932
      6          6           0        1.867209   -0.537508    0.185855
      7          6           0        1.205205    0.479301    1.131712
      8          8           0        0.797190   -1.504721   -0.007690
      9          6           0       -0.252270   -0.604890   -0.381944
     10          1           0       -3.011827   -1.280656    0.181513
     11          1           0       -1.468968   -0.169193    1.448649
     12          1           0       -1.463046    1.601491   -1.074964
     13          1           0       -1.197370    2.205810    0.584203
     14          1           0        1.649009    0.222044   -1.981607
     15          1           0        2.458903    1.348109   -0.831803
     16          1           0        2.802118   -1.056557    0.389839
     17          1           0        0.710544    0.072602    2.015475
     18          1           0        1.842682    1.326250    1.395826
     19          1           0       -0.554083   -0.793245   -1.420870
 ---------------------------------------------------------------------

 SCF Done:  E(RB3LYP) =  -423.118328249     A.U. after    1 cycles

 The electronic state is 1-A.
 Alpha  occ. eigenvalues --  -19.14076 -19.13508 -10.23904 -10.23876 -10.21588
 Alpha  occ. eigenvalues --  -10.19734 -10.19085 -10.19008 -10.18412  -1.03894
 Alpha  occ. eigenvalues --   -1.02297  -0.85576  -0.79778  -0.67473  -0.65445
 Alpha  occ. eigenvalues --   -0.62231  -0.57383  -0.54271  -0.52513  -0.49231
 Alpha  occ. eigenvalues --   -0.46702  -0.44545  -0.42084  -0.40642  -0.39680
 Alpha  occ. eigenvalues --   -0.37545  -0.36205  -0.35357  -0.33570  -0.31549
 Alpha  occ. eigenvalues --   -0.30383  -0.29157  -0.26234  -0.23323
 Alpha virt. eigenvalues --    0.07661   0.08180   0.10471   0.11833   0.12383
 Alpha virt. eigenvalues --    0.12764   0.14161   0.15100   0.15980   0.16934
 Alpha virt. eigenvalues --    0.18567   0.18903   0.20229   0.21835   0.22469

 Mulliken charges:
               1
     1  O   -0.428050
     2  C    0.063759
     3  C   -0.379810
     4  C    0.276252
     5  C   -0.336449
     6  C    0.105585
     7  C   -0.261622
     8  O   -0.303061
     9  C    0.098671
    10  H    0.285682
    11  H    0.080953
    12  H    0.122118
    13  H    0.107996
    14  H    0.103374
    15  H    0.102107
    16  H    0.083554
    17  H    0.100540
    18  H    0.098204
    19  H    0.080197
 Sum of Mulliken charges =   0.00000

 Dipole moment (field-independent basis, Debye):
    X=              0.5616    Y=              0.6402    Z=              0.7591  Tot=              1.1408
 Quadrupole moment (field-independent basis, Debye-Ang):
   XX=            -52.8063   YY=            -54.1947   ZZ=            -51.9289
   XY=              4.7469   XZ=             -1.8144   YZ=             -0.4018

  Exact polarizability:  88.549   1.195  68.570   0.246   0.487  68.800
 Approx polarizability: 120.046   0.978 107.316   1.990   0.575 105.439

                      1                      2                      3
                      A                      A                      A
 Frequencies --    163.3256               253.0660               281.3604
 Red. masses --      3.3930                 2.3769                 1.7364
 Frc consts  --      0.0533                 0.0897                 0.0810
 IR Inten    --      1.8845                33.9227                50.0523

                      4                      5                      6
                      A                      A                      A
 Frequencies --    311.7252               382.1409               449.0838
 Red. masses --      1.9043                 3.6656                 3.2052
 Frc consts  --      0.1090                 0.3154                 0.3809
 IR Inten    --     25.2565                15.3151                 3.6854

                      7                      8                      9
                      A                      A                      A
 Frequencies --    474.4952               501.6527               553.4042
 Red. masses --      3.1886                 2.1381                 2.3330
 Frc consts  --      0.4230                 0.3170                 0.4210
 IR Inten    --      6.6304                 0.1541                 3.1384

                     10                     11                     12
                      A                      A                      A
 Frequencies --    668.5079               687.0825               794.7342
 Red. masses --      3.7134                 3.4443                 2.6841
 Frc consts  --      0.9778                 0.9580                 0.9988
 IR Inten    --      6.5538                 0.6138                 2.6016

                     13                     14                     15
                      A                      A                      A
 Frequencies --    830.5329               849.9530               879.8021
 Red. masses --      1.9274                 2.8911                 3.9981
 Frc consts  --      0.7833                 1.2306                 1.8233
 IR Inten    --      1.7042                20.3952                10.9631

                     16                     17                     18
                      A                      A                      A
 Frequencies --    899.8003               920.1871               955.2730
 Red. masses --      2.9736                 2.3479                 2.5732
 Frc consts  --      1.4185                 1.1713                 1.3835
 IR Inten    --     14.2766                 1.3923                22.2874

                     19                     20                     21
                      A                      A                      A
 Frequencies --    974.8974               997.8950              1022.1193
 Red. masses --      1.5476                 2.0605                 1.1859
 Frc consts  --      0.8666                 1.2089                 0.7300
 IR Inten    --      5.4712                19.0866                 2.6532

                     22                     23                     24
                      A                      A                      A
 Frequencies --   1051.2682              1061.1024              1093.3417
 Red. masses --      4.3243                 2.0550                 1.5444
 Frc consts  --      2.8158                 1.3633                 1.0877
 IR Inten    --    109.4210                20.0566                 0.7852

                     25                     26                     27
                      A                      A                      A
 Frequencies --   1112.7193              1136.0019              1167.0626
 Red. masses --      1.5074                 2.0154                 1.9149
 Frc consts  --      1.0996                 1.5324                 1.5367
 IR Inten    --     13.4452                19.1260                11.6885

                     28                     29                     30
                      A                      A                      A
 Frequencies --   1197.6575              1207.8353              1214.6052
 Red. masses --      1.8626                 1.5319                 1.6058
 Frc consts  --      1.5741                 1.3167                 1.3958
 IR Inten    --      7.0281                19.3749                 0.9517

                     31                     32                     33
                      A                      A                      A
 Frequencies --   1223.9181              1243.5806              1261.6949
 Red. masses --      1.3586                 1.8082                 1.6658
 Frc consts  --      1.1991                 1.6475                 1.5623
 IR Inten    --     12.1922                 2.4550                12.5544

                     34                     35                     36
                      A                      A                      A
 Frequencies --   1274.2057              1288.5609              1309.7471
 Red. masses --      1.5398                 1.8608                 1.5668
 Frc consts  --      1.4730                 1.8204                 1.5835
 IR Inten    --     40.1645                 3.8697                18.3408

                     37                     38                     39
                      A                      A                      A
 Frequencies --   1375.0254              1429.3804              1476.9254
 Red. masses --      1.3071                 1.3616                 1.1018
 Frc consts  --      1.4561                 1.6391                 1.4160
 IR Inten    --      5.5640                 7.3895                 2.1030

                     40                     41                     42
                      A                      A                      A
 Frequencies --   1483.3566              1511.0806              3016.0214
 Red. masses --      1.1348                 1.1370                 1.0837
 Frc consts  --      1.4712                 1.5297                 5.8082
 IR Inten    --      4.1004                 1.2879                23.5907

                     43                     44                     45
                      A                      A                      A
 Frequencies --   3036.8193              3063.4553              3070.2349
 Red. masses --      1.0854                 1.0557                 1.0573
 Frc consts  --      5.8977                 5.8375                 5.8720
 IR Inten    --     33.5332                47.7643                18.2769

                     46                     47                     48
                      A                      A                      A
 Frequencies --   3073.1084              3129.2375              3133.3010
 Red. masses --      1.0579                 1.1107                 1.1086
 Frc consts  --      5.8863                 6.4082                 6.4122
 IR Inten    --     25.3212                13.0866                33.1327

                     49                     50                     51
                      A                      A                      A
 Frequencies --   3134.1024              3142.7089              3812.9572
 Red. masses --      1.1098                 1.0915                 1.0660
 Frc consts  --      6.4229                 6.3515                 9.1315
 IR Inten    --     26.8286                50.1203                27.7730

 - Thermochemistry -
 -------------------
 Temperature   298.150 Kelvin.  Pressure   1.00000 Atm.
 Atom     1 has atomic number  8 and mass  15.99491

 Molecular mass:   126.06808 amu.
 Principal axes and moments of inertia in atomic units:
                           1         2         3
     Eigenvalues --   514.745361267.888191446.10441
           X            0.99990   0.01332  -0.00458
           Y           -0.01329   0.99990   0.00492
           Z            0.00465  -0.00486   0.99998
 This molecule is an asymmetric top.
 Rotational symmetry number  1.
 Warning -- assumption of classical behavior for rotation
           may cause significant error
 Rotational temperatures (Kelvin)      0.16827     0.06831     0.05989
 Rotational constants (GHZ):           3.50609     1.42342     1.24800
 Zero-point vibrational energy     422174.4 (Joules/Mol)
                                  100.90211 (Kcal/Mol)
 Warning -- explicit consideration of   9 degrees of freedom as
           vibrations may cause significant error
 Vibrational temperatures:    234.99   364.11   404.81   448.50   549.81
          (Kelvin)            646.13   682.69   721.77   796.22   961.83
                              988.56  1143.44  1194.95  1222.89  1265.84
                             1294.61  1323.94  1374.42  1402.66  1435.75
                             1470.60  1512.54  1526.69  1573.07  1600.95
                             1634.45  1679.14  1723.16  1737.80  1747.54
                             1760.94  1789.23  1815.30  1833.30  1853.95
                             1884.43  1978.35  2056.56  2124.96  2134.22
                             2174.11  4339.38  4369.30  4407.62  4417.38
                             4421.51  4502.27  4508.12  4509.27  4521.65
                             5485.99

 Zero-point correction=                           0.160798 (Hartree/Particle)
 Thermal correction to Energy=                    0.167911
 Thermal correction to Enthalpy=                  0.168855
 Thermal correction to Gibbs Free Energy=         0.129707
 Sum of electronic and zero-point Energies=           -422.957530
 Sum of electronic and thermal Energies=              -422.950417
 Sum of electronic and thermal Enthalpies=            -422.949473
 Sum of electronic and thermal Free Energies=         -422.988621

                     E (Thermal)             CV                S
                      KCal/Mol        Cal/Mol-Kelvin    Cal/Mol-Kelvin
 Total                  105.366             29.883             82.393
 Electronic               0.000              0.000              0.000
 Translational            0.889              2.981             40.409
 Rotational               0.889              2.981             28.336
 Vibrational            103.588             23.921             13.649
 Vibration     1          0.623              1.887              2.511
 Vibration     2          0.664              1.758              1.709
 Vibration     3          0.681              1.708              1.525
 Vibration     4          0.700              1.651              1.353
 Vibration     5          0.752              1.508              1.031
 Vibration     6          0.808              1.363              0.799
 Vibration     7          0.831              1.307              0.725
 Vibration     8          0.857              1.246              0.654
 Vibration     9          0.909              1.132              0.537

 Optimization completed.
    -- Stationary point found.
 Normal termination of Gaussian 09 at Tue Jan 28 03:46:40 2020.
