 Gaussian 09, Revision D.01,
 Gaussian 09:  ES64L-G09RevD.01 24-Apr-2013

 -----------------------------
 # b3lyp 6-31G(2df,p) opt Freq
 -----------------------------

 -----
 titel
 -----
 Symbolic Z-matrix:
 Charge =  0 Multiplicity = 1

 SCF Done:  E(RB3LYP) =  -423.165161720     A.U. after   14 cycles
 Optimization completed.
    -- Stationary point found.
 Normal termination of Gaussian 09 at Mon Jan 27 23:06:55 2020.

 ----------------------------------------------------------------------
 #N Geom=AllCheck Guess=TCheck SCRF=Check GenChk RB3LYP/6-31G(2df,p) Fr
 eq
 ----------------------------------------------------------------------

 Structure from the checkpoint file:  "/scratch/puck/g09_5a0ee762-d473-4a33-beb6-4e4675a97b8f/Gau-79626.chk"
 -----
 titel
 -----
 Charge =  0 Multiplicity = 1

                         Standard orientation:
 ---------------------------------------------------------------------
 Center     Atomic      Atomic             Coordinates (Angstroms)
 Number     Number       Type             X           Y           Z
 ---------------------------------------------------------------------
      1          6           0       -2.430983   -0.866258   -0.453286
      2          6           0       -1.009275   -0.334109   -0.555750
      3          6           0       -0.821512    1.132161   -0.063693
      4          8           0       -0.630734    0.626784    1.297916
      5          6           0       -0.144371   -0.603067    0.698294
      6          6           0        1.356808   -0.427430    0.416529
      7          8           0        1.762549   -1.548593   -0.367467
      8          6           0        1.565982    0.892487   -0.306451
      9          6           0        0.506793    1.660174   -0.559801
     10          1           0       -3.068826   -0.437113   -1.233637
     11          1           0       -2.448663   -1.955143   -0.570708
     12          1           0       -2.868064   -0.619719    0.518983
     13          1           0       -0.550623   -0.575653   -1.516051
     14          1           0       -1.652527    1.838080   -0.132279
     15          1           0       -0.350372   -1.488741    1.305983
     16          1           0        1.897597   -0.419301    1.376622
     17          1           0        2.702106   -1.462205   -0.556805
     18          1           0        2.576893    1.166489   -0.599123
     19          1           0        0.567305    2.604030   -1.091627
 ---------------------------------------------------------------------

 SCF Done:  E(RB3LYP) =  -423.165161720     A.U. after    1 cycles

 The electronic state is 1-A.
 Alpha  occ. eigenvalues --  -19.14035 -19.12857 -10.23505 -10.23406 -10.22879
 Alpha  occ. eigenvalues --  -10.18762 -10.18622 -10.18518 -10.17324  -1.04101
 Alpha  occ. eigenvalues --   -1.01804  -0.80133  -0.76250  -0.73169  -0.66375
 Alpha  occ. eigenvalues --   -0.61162  -0.58579  -0.51817  -0.51495  -0.49623
 Alpha  occ. eigenvalues --   -0.46267  -0.43421  -0.42965  -0.41613  -0.40142
 Alpha  occ. eigenvalues --   -0.38018  -0.37481  -0.36524  -0.33892  -0.31333
 Alpha  occ. eigenvalues --   -0.30352  -0.27105  -0.25597  -0.23526
 Alpha virt. eigenvalues --   -0.00137   0.07198   0.09668   0.11709   0.13117
 Alpha virt. eigenvalues --    0.14272   0.15511   0.15531   0.15992   0.16303
 Alpha virt. eigenvalues --    0.17468   0.18639   0.19124   0.20687   0.23214

 Mulliken charges:
               1
     1  C   -0.433499
     2  C    0.027420
     3  C    0.029333
     4  O   -0.303008
     5  C    0.072612
     6  C    0.065174
     7  O   -0.438197
     8  C   -0.105138
     9  C   -0.059627
    10  H    0.112383
    11  H    0.119037
    12  H    0.130820
    13  H    0.085706
    14  H    0.072067
    15  H    0.077284
    16  H    0.076962
    17  H    0.284938
    18  H    0.089122
    19  H    0.096611
 Sum of Mulliken charges =   0.00000

 Dipole moment (field-independent basis, Debye):
    X=              1.1331    Y=              0.3412    Z=             -1.3081  Tot=              1.7639
 Quadrupole moment (field-independent basis, Debye-Ang):
   XX=            -45.8255   YY=            -53.6009   ZZ=            -55.8081
   XY=             -0.3469   XZ=              0.8981   YZ=             -3.3798

  Exact polarizability:  88.804  -2.612  76.655   1.297  -5.318  60.928
 Approx polarizability: 122.881 -12.949 115.115   1.792  -6.014  97.085

                      1                      2                      3
                      A                      A                      A
 Frequencies --    138.9893               189.9639               198.7687
 Red. masses --      3.9888                 3.2390                 1.0817
 Frc consts  --      0.0454                 0.0689                 0.0252
 IR Inten    --      2.5619                 8.8337                99.7356

                      4                      5                      6
                      A                      A                      A
 Frequencies --    240.0359               255.9418               310.8535
 Red. masses --      1.0853                 2.5234                 3.1168
 Frc consts  --      0.0368                 0.0974                 0.1774
 IR Inten    --      0.3246                 3.0952                 4.9344

                      7                      8                      9
                      A                      A                      A
 Frequencies --    400.5315               435.1949               472.3714
 Red. masses --      2.9096                 5.2592                 4.7013
 Frc consts  --      0.2750                 0.5869                 0.6181
 IR Inten    --      3.0253                 3.5532                 2.8660

                     10                     11                     12
                      A                      A                      A
 Frequencies --    522.1375               644.9867               703.2454
 Red. masses --      4.2421                 4.4683                 2.2274
 Frc consts  --      0.6814                 1.0952                 0.6490
 IR Inten    --      0.9840                 8.3398                 6.7942

                     13                     14                     15
                      A                      A                      A
 Frequencies --    774.0863               821.7586               858.1159
 Red. masses --      2.7656                 2.1441                 2.4261
 Frc consts  --      0.9764                 0.8531                 1.0526
 IR Inten    --      7.5569                14.6621                 6.2132

                     16                     17                     18
                      A                      A                      A
 Frequencies --    886.4765               929.6071               954.5387
 Red. masses --      3.5815                 2.3539                 4.6161
 Frc consts  --      1.6583                 1.1985                 2.4781
 IR Inten    --     30.9031                 6.4657                27.9020

                     19                     20                     21
                      A                      A                      A
 Frequencies --    962.5739               975.2550              1013.5231
 Red. masses --      2.7412                 1.3499                 2.5393
 Frc consts  --      1.4965                 0.7564                 1.5369
 IR Inten    --     14.5745                 0.3066                40.1567

                     22                     23                     24
                      A                      A                      A
 Frequencies --   1057.1011              1064.8894              1080.1644
 Red. masses --      1.6978                 1.6427                 4.8181
 Frc consts  --      1.1178                 1.0975                 3.3121
 IR Inten    --      1.4163                10.6654                67.4678

                     25                     26                     27
                      A                      A                      A
 Frequencies --   1091.3419              1135.4332              1155.0967
 Red. masses --      2.1562                 2.2882                 1.1342
 Frc consts  --      1.5131                 1.7381                 0.8917
 IR Inten    --      5.6137                10.0364                 1.5731

                     28                     29                     30
                      A                      A                      A
 Frequencies --   1188.6100              1228.3158              1242.9079
 Red. masses --      1.1971                 1.3321                 1.5367
 Frc consts  --      0.9964                 1.1842                 1.3987
 IR Inten    --     11.5081                29.0023                 0.6137

                     31                     32                     33
                      A                      A                      A
 Frequencies --   1286.8012              1306.0862              1327.8190
 Red. masses --      1.3379                 1.3575                 1.3635
 Frc consts  --      1.3053                 1.3643                 1.4164
 IR Inten    --      0.4012                16.4831                 3.2453

                     34                     35                     36
                      A                      A                      A
 Frequencies --   1348.8787              1386.0441              1403.6210
 Red. masses --      1.2985                 1.6839                 1.2731
 Frc consts  --      1.3920                 1.9059                 1.4778
 IR Inten    --      6.8135                10.4178                 1.6218

                     37                     38                     39
                      A                      A                      A
 Frequencies --   1408.1381              1416.3950              1494.8578
 Red. masses --      1.6477                 1.6222                 1.0484
 Frc consts  --      1.9249                 1.9174                 1.3803
 IR Inten    --      2.5033                11.3878                 4.3804

                     40                     41                     42
                      A                      A                      A
 Frequencies --   1502.3894              1693.3088              2969.3575
 Red. masses --      1.0496                 6.5056                 1.0824
 Frc consts  --      1.3958                10.9903                 5.6228
 IR Inten    --      2.5843                 0.2524                53.9724

                     43                     44                     45
                      A                      A                      A
 Frequencies --   3030.9250              3073.9616              3085.7006
 Red. masses --      1.0352                 1.0880                 1.0889
 Frc consts  --      5.6029                 6.0574                 6.1085
 IR Inten    --     28.4608                49.1771                39.8819

                     46                     47                     48
                      A                      A                      A
 Frequencies --   3093.6446              3094.8097              3116.0887
 Red. masses --      1.0917                 1.0986                 1.0985
 Frc consts  --      6.1557                 6.1994                 6.2844
 IR Inten    --      5.1653                26.2147                31.0257

                     49                     50                     51
                      A                      A                      A
 Frequencies --   3150.2478              3186.9414              3820.2603
 Red. masses --      1.0865                 1.0987                 1.0665
 Frc consts  --      6.3529                 6.5747                 9.1705
 IR Inten    --     15.0134                23.3512                23.7883

 - Thermochemistry -
 -------------------
 Temperature   298.150 Kelvin.  Pressure   1.00000 Atm.
 Atom     1 has atomic number  6 and mass  12.00000

 Molecular mass:   126.06808 amu.
 Principal axes and moments of inertia in atomic units:
                           1         2         3
     Eigenvalues --   707.845241090.256901384.61846
           X            0.99853   0.05180   0.01615
           Y           -0.05115   0.99797  -0.03798
           Z           -0.01809   0.03709   0.99915
 This molecule is an asymmetric top.
 Rotational symmetry number  1.
 Warning -- assumption of classical behavior for rotation
           may cause significant error
 Rotational temperatures (Kelvin)      0.12236     0.07944     0.06255
 Rotational constants (GHZ):           2.54963     1.65534     1.30342
 Zero-point vibrational energy     419465.1 (Joules/Mol)
                                  100.25457 (Kcal/Mol)
 Warning -- explicit consideration of  10 degrees of freedom as
           vibrations may cause significant error
 Vibrational temperatures:    199.97   273.32   285.98   345.36   368.24
          (Kelvin)            447.25   576.27   626.15   679.64   751.24
                              927.99  1011.81  1113.74  1182.33  1234.64
                             1275.44  1337.50  1373.37  1384.93  1403.17
                             1458.23  1520.93  1532.14  1554.11  1570.20
                             1633.63  1661.92  1710.14  1767.27  1788.27
                             1851.42  1879.16  1910.43  1940.73  1994.21
                             2019.49  2025.99  2037.87  2150.76  2161.60
                             2436.29  4272.24  4360.82  4422.74  4439.63
                             4451.06  4452.74  4483.35  4532.50  4585.29
                             5496.50

 Zero-point correction=                           0.159766 (Hartree/Particle)
 Thermal correction to Energy=                    0.167845
 Thermal correction to Enthalpy=                  0.168789
 Thermal correction to Gibbs Free Energy=         0.127597
 Sum of electronic and zero-point Energies=           -423.005396
 Sum of electronic and thermal Energies=              -422.997317
 Sum of electronic and thermal Enthalpies=            -422.996373
 Sum of electronic and thermal Free Energies=         -423.037565

                     E (Thermal)             CV                S
                      KCal/Mol        Cal/Mol-Kelvin    Cal/Mol-Kelvin
 Total                  105.324             31.807             86.695
 Electronic               0.000              0.000              0.000
 Translational            0.889              2.981             40.409
 Rotational               0.889              2.981             28.459
 Vibrational            103.547             25.846             17.827
 Vibration     1          0.615              1.914              2.818
 Vibration     2          0.633              1.854              2.228
 Vibration     3          0.637              1.842              2.144
 Vibration     4          0.657              1.779              1.803
 Vibration     5          0.666              1.753              1.689
 Vibration     6          0.700              1.653              1.358
 Vibration     7          0.766              1.469              0.961
 Vibration     8          0.796              1.394              0.842
 Vibration     9          0.829              1.311              0.731
 Vibration    10          0.877              1.201              0.605

 Optimization completed.
    -- Stationary point found.
 Normal termination of Gaussian 09 at Mon Jan 27 23:52:26 2020.
