 Gaussian 09, Revision D.01,
 Gaussian 09:  ES64L-G09RevD.01 24-Apr-2013

 -----------------------------
 # b3lyp 6-31G(2df,p) opt Freq
 -----------------------------

 -----
 titel
 -----
 Symbolic Z-matrix:
 Charge =  0 Multiplicity = 1

 SCF Done:  E(RB3LYP) =  -423.143742439     A.U. after   13 cycles
 Optimization completed.
    -- Stationary point found.
 Normal termination of Gaussian 09 at Mon Jan 27 12:14:20 2020.

 ----------------------------------------------------------------------
 #N Geom=AllCheck Guess=TCheck SCRF=Check GenChk RB3LYP/6-31G(2df,p) Fr
 eq
 ----------------------------------------------------------------------

 Structure from the checkpoint file:  "/scratch/puck/g09_857a67d1-7709-4289-89ac-bc9be4e3950a/Gau-45077.chk"
 -----
 titel
 -----
 Charge =  0 Multiplicity = 1

                         Standard orientation:
 ---------------------------------------------------------------------
 Center     Atomic      Atomic             Coordinates (Angstroms)
 Number     Number       Type             X           Y           Z
 ---------------------------------------------------------------------
      1          6           0       -2.499475    0.158056    0.000071
      2          6           0       -1.352174    1.186073   -0.000072
      3          6           0       -0.444982   -0.053610   -0.000042
      4          8           0       -1.566805   -0.944908   -0.000059
      5          6           0        0.698050   -0.402696   -0.980274
      6          6           0        1.700382    0.751188   -0.783726
      7          6           0        1.700332    0.751221    0.783756
      8          6           0        0.697984   -0.402654    0.980287
      9          8           0        1.157048   -1.385367    0.000043
     10          1           0       -3.135739    0.152183    0.892581
     11          1           0       -3.136003    0.152174   -0.892249
     12          1           0       -1.280750    1.815237   -0.889644
     13          1           0       -1.280635    1.815435    0.889349
     14          1           0        0.517838   -0.809272   -1.975138
     15          1           0        2.676007    0.504347   -1.206345
     16          1           0        1.361532    1.695690   -1.218909
     17          1           0        2.675929    0.504382    1.206443
     18          1           0        1.361469    1.695743    1.218881
     19          1           0        0.517711   -0.809190    1.975157
 ---------------------------------------------------------------------

 SCF Done:  E(RB3LYP) =  -423.143742439     A.U. after    1 cycles

 The electronic state is 1-A.
 Alpha  occ. eigenvalues --  -19.13423 -19.13033 -10.24061 -10.23418 -10.23062
 Alpha  occ. eigenvalues --  -10.23062 -10.19407 -10.18668 -10.18651  -1.05983
 Alpha  occ. eigenvalues --   -1.02633  -0.79582  -0.74255  -0.70759  -0.70344
 Alpha  occ. eigenvalues --   -0.61047  -0.57550  -0.52590  -0.50954  -0.49158
 Alpha  occ. eigenvalues --   -0.49117  -0.46176  -0.42221  -0.40663  -0.39154
 Alpha  occ. eigenvalues --   -0.38285  -0.35590  -0.35294  -0.35031  -0.33840
 Alpha  occ. eigenvalues --   -0.31775  -0.29899  -0.24509  -0.23856
 Alpha virt. eigenvalues --    0.08153   0.08287   0.09067   0.10926   0.12492
 Alpha virt. eigenvalues --    0.12825   0.13235   0.15168   0.17099   0.17407
 Alpha virt. eigenvalues --    0.17804   0.17874   0.18634   0.19273   0.21392

 Mulliken charges:
               1
     1  C   -0.082544
     2  C   -0.387438
     3  C    0.526551
     4  O   -0.328743
     5  C   -0.001456
     6  C   -0.228538
     7  C   -0.228539
     8  C   -0.001454
     9  O   -0.305026
    10  H    0.106598
    11  H    0.106602
    12  H    0.115549
    13  H    0.115547
    14  H    0.083739
    15  H    0.113300
    16  H    0.099406
    17  H    0.113301
    18  H    0.099405
    19  H    0.083739
 Sum of Mulliken charges =   0.00000

 Dipole moment (field-independent basis, Debye):
    X=             -0.5133    Y=              3.1421    Z=              0.0000  Tot=              3.1838
 Quadrupole moment (field-independent basis, Debye-Ang):
   XX=            -51.7010   YY=            -57.7718   ZZ=            -49.4675
   XY=             -0.7700   XZ=             -0.0003   YZ=              0.0000

  Exact polarizability:  84.738   0.385  66.309   0.000   0.000  70.666
 Approx polarizability: 108.687  -1.692 105.759   0.000   0.000 105.980

                      1                      2                      3
                      A                      A                      A
 Frequencies --     80.3234               178.6477               199.3615
 Red. masses --      2.1604                 3.6833                 2.5183
 Frc consts  --      0.0082                 0.0693                 0.0590
 IR Inten    --      0.6609                 0.1211                 0.4425

                      4                      5                      6
                      A                      A                      A
 Frequencies --    286.9865               387.3688               406.7053
 Red. masses --      2.2086                 2.5238                 5.4479
 Frc consts  --      0.1072                 0.2231                 0.5309
 IR Inten    --      0.3466                 2.0672                 0.3254

                      7                      8                      9
                      A                      A                      A
 Frequencies --    524.8961               577.9498               692.5326
 Red. masses --      3.1343                 5.0881                 3.4338
 Frc consts  --      0.5088                 1.0013                 0.9703
 IR Inten    --      0.7307                18.0857                 0.0001

                     10                     11                     12
                      A                      A                      A
 Frequencies --    787.8136               829.4939               839.8108
 Red. masses --      1.2569                 1.3195                 2.7116
 Frc consts  --      0.4596                 0.5349                 1.1268
 IR Inten    --      0.2931                 0.6661                17.3183

                     13                     14                     15
                      A                      A                      A
 Frequencies --    863.1580               869.6671               898.3188
 Red. masses --      5.0559                 3.0403                 2.1616
 Frc consts  --      2.2194                 1.3548                 1.0278
 IR Inten    --      4.9462                30.5393                 0.1995

                     16                     17                     18
                      A                      A                      A
 Frequencies --    910.8572               942.7718               943.7712
 Red. masses --      2.7317                 2.6455                 3.0103
 Frc consts  --      1.3353                 1.3854                 1.5798
 IR Inten    --      0.2115                22.6373                23.5406

                     19                     20                     21
                      A                      A                      A
 Frequencies --    980.4448              1005.6338              1019.6027
 Red. masses --      2.5292                 1.4890                 4.6741
 Frc consts  --      1.4324                 0.8872                 2.8629
 IR Inten    --      2.6218                 3.1480                45.5973

                     22                     23                     24
                      A                      A                      A
 Frequencies --   1032.4637              1052.5077              1151.3400
 Red. masses --      4.5781                 1.8847                 1.6776
 Frc consts  --      2.8753                 1.2301                 1.3102
 IR Inten    --     56.9718                27.1826                36.8178

                     25                     26                     27
                      A                      A                      A
 Frequencies --   1153.5564              1175.7858              1189.0485
 Red. masses --      1.6104                 1.4474                 1.6052
 Frc consts  --      1.2626                 1.1789                 1.3371
 IR Inten    --      1.1077                 0.0182                 0.4891

                     28                     29                     30
                      A                      A                      A
 Frequencies --   1199.6661              1219.5838              1225.6479
 Red. masses --      2.0876                 1.2200                 1.8548
 Frc consts  --      1.7702                 1.0691                 1.6416
 IR Inten    --     11.9566                 0.6196                 2.9867

                     31                     32                     33
                      A                      A                      A
 Frequencies --   1228.3482              1250.9539              1260.9914
 Red. masses --      1.3804                 1.2627                 1.7505
 Frc consts  --      1.2272                 1.1642                 1.6400
 IR Inten    --      0.0356                 0.0001                29.0160

                     34                     35                     36
                      A                      A                      A
 Frequencies --   1301.5147              1319.1114              1353.0163
 Red. masses --      1.5210                 1.4512                 1.4796
 Frc consts  --      1.5180                 1.4878                 1.5958
 IR Inten    --      0.8255                 3.2290                 4.1640

                     37                     38                     39
                      A                      A                      A
 Frequencies --   1362.4559              1479.0517              1482.3212
 Red. masses --      2.4742                 1.0842                 1.1106
 Frc consts  --      2.7060                 1.3974                 1.4378
 IR Inten    --     21.5619                 0.7561                 3.6679

                     40                     41                     42
                      A                      A                      A
 Frequencies --   1498.5446              1531.0857              3023.9329
 Red. masses --      1.1109                 1.1153                 1.0551
 Frc consts  --      1.4698                 1.5405                 5.6845
 IR Inten    --      5.8130                 1.1091                89.2763

                     43                     44                     45
                      A                      A                      A
 Frequencies --   3061.2082              3064.5617              3069.3012
 Red. masses --      1.0607                 1.1115                 1.0612
 Frc consts  --      5.8565                 6.1502                 5.8899
 IR Inten    --     26.5439                26.4175                14.4661

                     46                     47                     48
                      A                      A                      A
 Frequencies --   3072.6875              3109.6601              3125.3538
 Red. masses --      1.0593                 1.1049                 1.1081
 Frc consts  --      5.8925                 6.2953                 6.3774
 IR Inten    --     34.2330                 0.2904                14.6570

                     49                     50                     51
                      A                      A                      A
 Frequencies --   3125.6741              3128.2341              3132.3803
 Red. masses --      1.1045                 1.0886                 1.0942
 Frc consts  --      6.3579                 6.2767                 6.3257
 IR Inten    --     35.3255                65.0882                 7.7240

 - Thermochemistry -
 -------------------
 Temperature   298.150 Kelvin.  Pressure   1.00000 Atm.
 Atom     1 has atomic number  6 and mass  12.00000

 Molecular mass:   126.06808 amu.
 Principal axes and moments of inertia in atomic units:
                           1         2         3
     Eigenvalues --   529.905891205.892701344.43467
           X            0.99999   0.00466   0.00000
           Y           -0.00466   0.99999   0.00000
           Z            0.00000   0.00000   1.00000
 This molecule is an asymmetric top.
 Rotational symmetry number  1.
 Warning -- assumption of classical behavior for rotation
           may cause significant error
 Rotational temperatures (Kelvin)      0.16345     0.07183     0.06442
 Rotational constants (GHZ):           3.40578     1.49660     1.34238
 Zero-point vibrational energy     422318.3 (Joules/Mol)
                                  100.93649 (Kcal/Mol)
 Warning -- explicit consideration of   8 degrees of freedom as
           vibrations may cause significant error
 Vibrational temperatures:    115.57   257.03   286.84   412.91   557.34
          (Kelvin)            585.16   755.21   831.54   996.40  1133.49
                             1193.46  1208.30  1241.89  1251.26  1292.48
                             1310.52  1356.44  1357.87  1410.64  1446.88
                             1466.98  1485.48  1514.32  1656.52  1659.71
                             1691.69  1710.77  1726.05  1754.71  1763.43
                             1767.32  1799.84  1814.28  1872.59  1897.90
                             1946.69  1960.27  2128.02  2132.73  2156.07
                             2202.89  4350.76  4404.39  4409.22  4416.03
                             4420.91  4474.10  4496.68  4497.14  4500.83
                             4506.79

 Zero-point correction=                           0.160853 (Hartree/Particle)
 Thermal correction to Energy=                    0.168108
 Thermal correction to Enthalpy=                  0.169052
 Thermal correction to Gibbs Free Energy=         0.129020
 Sum of electronic and zero-point Energies=           -422.982890
 Sum of electronic and thermal Energies=              -422.975634
 Sum of electronic and thermal Enthalpies=            -422.974690
 Sum of electronic and thermal Free Energies=         -423.014722

                     E (Thermal)             CV                S
                      KCal/Mol        Cal/Mol-Kelvin    Cal/Mol-Kelvin
 Total                  105.489             28.886             84.255
 Electronic               0.000              0.000              0.000
 Translational            0.889              2.981             40.409
 Rotational               0.889              2.981             28.243
 Vibrational            103.712             22.924             15.604
 Vibration     1          0.600              1.963              3.883
 Vibration     2          0.629              1.869              2.343
 Vibration     3          0.637              1.841              2.139
 Vibration     4          0.684              1.698              1.492
 Vibration     5          0.756              1.497              1.010
 Vibration     6          0.771              1.456              0.938
 Vibration     7          0.880              1.195              0.599
 Vibration     8          0.934              1.079              0.489

 Optimization completed.
    -- Stationary point found.
 Normal termination of Gaussian 09 at Mon Jan 27 13:00:00 2020.
