 Gaussian 09, Revision D.01,
 Gaussian 09:  ES64L-G09RevD.01 24-Apr-2013

 -----------------------------
 # b3lyp 6-31G(2df,p) opt Freq
 -----------------------------

 -----
 titel
 -----
 Symbolic Z-matrix:
 Charge =  0 Multiplicity = 1

 SCF Done:  E(RB3LYP) =  -423.225046840     A.U. after   14 cycles
 Optimization completed.
    -- Stationary point found.
 Normal termination of Gaussian 09 at Mon Jan 27 18:05:46 2020.

 ----------------------------------------------------------------------
 #N Geom=AllCheck Guess=TCheck SCRF=Check GenChk RB3LYP/6-31G(2df,p) Fr
 eq
 ----------------------------------------------------------------------

 Structure from the checkpoint file:  "/scratch/puck/g09_33e81da9-2d7d-47af-b0a7-a16d816d097b/Gau-16985.chk"
 -----
 titel
 -----
 Charge =  0 Multiplicity = 1

                         Standard orientation:
 ---------------------------------------------------------------------
 Center     Atomic      Atomic             Coordinates (Angstroms)
 Number     Number       Type             X           Y           Z
 ---------------------------------------------------------------------
      1          6           0       -2.436349   -0.943951   -0.361644
      2          6           0       -1.109350   -0.328455    0.026534
      3          6           0       -1.029868    0.514862    1.282261
      4          6           0       -0.904446    1.157473   -0.078529
      5          6           0        0.444518    1.621835   -0.575910
      6          8           0        1.538499    0.836647   -0.080122
      7          6           0        1.451788   -0.517534   -0.015656
      8          8           0        2.419727   -1.148873    0.307905
      9          6           0        0.111469   -1.150484   -0.357926
     10          1           0       -2.587853   -1.906253    0.141102
     11          1           0       -3.270093   -0.290078   -0.087808
     12          1           0       -2.491203   -1.122060   -1.442220
     13          1           0       -1.949720    0.682097    1.831722
     14          1           0       -0.145342    0.449590    1.906932
     15          1           0       -1.732397    1.766961   -0.429996
     16          1           0        0.469237    1.613030   -1.674687
     17          1           0        0.665676    2.641465   -0.247426
     18          1           0        0.102238   -1.320613   -1.444747
     19          1           0        0.107078   -2.138810    0.110071
 ---------------------------------------------------------------------

 SCF Done:  E(RB3LYP) =  -423.225046840     A.U. after    1 cycles

 The electronic state is 1-A.
 Alpha  occ. eigenvalues --  -19.17835 -19.11462 -10.30281 -10.25180 -10.21361
 Alpha  occ. eigenvalues --  -10.20495 -10.20269 -10.19461 -10.19015  -1.09336
 Alpha  occ. eigenvalues --   -1.01220  -0.88700  -0.76778  -0.72474  -0.71572
 Alpha  occ. eigenvalues --   -0.61702  -0.57918  -0.52578  -0.51682  -0.50580
 Alpha  occ. eigenvalues --   -0.48077  -0.44711  -0.43523  -0.42498  -0.41656
 Alpha  occ. eigenvalues --   -0.40387  -0.39330  -0.38123  -0.36613  -0.34187
 Alpha  occ. eigenvalues --   -0.30338  -0.28493  -0.27911  -0.26047
 Alpha virt. eigenvalues --    0.01555   0.07151   0.10373   0.10960   0.11550
 Alpha virt. eigenvalues --    0.12186   0.13957   0.14100   0.15341   0.16032
 Alpha virt. eigenvalues --    0.16612   0.18086   0.19035   0.20138   0.22002

 Mulliken charges:
               1
     1  C   -0.464870
     2  C    0.321517
     3  C   -0.338424
     4  C   -0.073795
     5  C   -0.099826
     6  O   -0.223006
     7  C    0.399095
     8  O   -0.325327
     9  C   -0.403231
    10  H    0.123723
    11  H    0.117435
    12  H    0.117325
    13  H    0.113925
    14  H    0.135034
    15  H    0.091968
    16  H    0.113562
    17  H    0.128562
    18  H    0.129881
    19  H    0.136452
 Sum of Mulliken charges =   0.00000

 Dipole moment (field-independent basis, Debye):
    X=             -4.0784    Y=              1.3481    Z=             -1.2173  Tot=              4.4646
 Quadrupole moment (field-independent basis, Debye-Ang):
   XX=            -62.3440   YY=            -52.0223   ZZ=            -51.3460
   XY=              2.9091   XZ=             -1.9599   YZ=              0.0857

  Exact polarizability:  80.815  -1.989  79.131   1.132  -1.032  65.747
 Approx polarizability: 110.792  -7.971 117.899   4.448  -3.715 101.834

                      1                      2                      3
                      A                      A                      A
 Frequencies --     95.9032               159.1368               213.9748
 Red. masses --      3.9988                 3.5543                 1.3700
 Frc consts  --      0.0217                 0.0530                 0.0370
 IR Inten    --      2.2428                 2.0002                 0.8631

                      4                      5                      6
                      A                      A                      A
 Frequencies --    239.5533               284.7204               350.1324
 Red. masses --      1.5364                 2.4750                 2.4307
 Frc consts  --      0.0519                 0.1182                 0.1756
 IR Inten    --      1.0995                 0.4528                 0.3728

                      7                      8                      9
                      A                      A                      A
 Frequencies --    363.9706               439.5998               483.1717
 Red. masses --      3.0862                 3.8199                 3.0128
 Frc consts  --      0.2409                 0.4349                 0.4144
 IR Inten    --      0.6124                 1.3561                 4.1214

                     10                     11                     12
                      A                      A                      A
 Frequencies --    530.6521               601.0888               697.4065
 Red. masses --      4.2680                 3.2288                 3.8489
 Frc consts  --      0.7081                 0.6873                 1.1030
 IR Inten    --      4.3776                 3.0699                 3.4765

                     13                     14                     15
                      A                      A                      A
 Frequencies --    744.4253               777.5524               820.9150
 Red. masses --      3.5946                 2.4057                 3.1729
 Frc consts  --      1.1737                 0.8569                 1.2598
 IR Inten    --      2.2722                 9.1019                 6.3537

                     16                     17                     18
                      A                      A                      A
 Frequencies --    891.0376               906.0194               961.7099
 Red. masses --      1.5930                 1.9547                 1.9282
 Frc consts  --      0.7452                 0.9454                 1.0507
 IR Inten    --      6.6736                 0.9963                 2.2354

                     19                     20                     21
                      A                      A                      A
 Frequencies --    977.6034              1011.8739              1041.7366
 Red. masses --      1.6377                 1.9428                 1.6498
 Frc consts  --      0.9222                 1.1720                 1.0549
 IR Inten    --      7.4860                 5.2244                29.9815

                     22                     23                     24
                      A                      A                      A
 Frequencies --   1062.7092              1096.2712              1111.4724
 Red. masses --      1.3444                 1.9431                 2.0961
 Frc consts  --      0.8945                 1.3759                 1.5256
 IR Inten    --      9.2731                 5.5937                 5.2718

                     25                     26                     27
                      A                      A                      A
 Frequencies --   1118.3911              1141.1175              1200.6063
 Red. masses --      1.6476                 2.3111                 2.7893
 Frc consts  --      1.2142                 1.7731                 2.3689
 IR Inten    --      5.2836                32.0467               149.9560

                     28                     29                     30
                      A                      A                      A
 Frequencies --   1227.1264              1249.7943              1284.8244
 Red. masses --      1.8406                 1.3882                 1.1912
 Frc consts  --      1.6330                 1.2776                 1.1585
 IR Inten    --      7.4074                19.9702                38.8675

                     31                     32                     33
                      A                      A                      A
 Frequencies --   1318.6142              1346.2116              1411.3647
 Red. masses --      1.7614                 2.6781                 1.5139
 Frc consts  --      1.8045                 2.8596                 1.7768
 IR Inten    --      5.0948                 4.2285                28.8975

                     34                     35                     36
                      A                      A                      A
 Frequencies --   1422.2038              1428.3049              1465.6370
 Red. masses --      1.4775                 1.4670                 1.0852
 Frc consts  --      1.7607                 1.7632                 1.3734
 IR Inten    --     22.0084                 0.8529                 3.8241

                     37                     38                     39
                      A                      A                      A
 Frequencies --   1489.3036              1494.8470              1508.9127
 Red. masses --      1.0483                 1.1412                 1.2885
 Frc consts  --      1.3700                 1.5025                 1.7284
 IR Inten    --      3.6224                 7.1203                 0.9820

                     40                     41                     42
                      A                      A                      A
 Frequencies --   1516.4059              1848.9986              3008.4789
 Red. masses --      1.1568                12.2621                 1.0685
 Frc consts  --      1.5673                24.6996                 5.6977
 IR Inten    --      1.7233               335.2053                39.8539

                     43                     44                     45
                      A                      A                      A
 Frequencies --   3011.2795              3022.3324              3081.9003
 Red. masses --      1.0679                 1.0366                 1.1008
 Frc consts  --      5.7054                 5.5789                 6.1602
 IR Inten    --     23.4841                34.0272                21.6546

                     46                     47                     48
                      A                      A                      A
 Frequencies --   3082.8921              3092.1274              3101.3166
 Red. masses --      1.0958                 1.0917                 1.1005
 Frc consts  --      6.1364                 6.1501                 6.2366
 IR Inten    --     28.4518                10.1161                21.7039

                     49                     50                     51
                      A                      A                      A
 Frequencies --   3134.4994              3148.9634              3219.4156
 Red. masses --      1.0545                 1.0891                 1.1165
 Frc consts  --      6.1043                 6.3628                 6.8181
 IR Inten    --      8.5868                13.2138                 6.5147

 - Thermochemistry -
 -------------------
 Temperature   298.150 Kelvin.  Pressure   1.00000 Atm.
 Atom     1 has atomic number  6 and mass  12.00000

 Molecular mass:   126.06808 amu.
 Principal axes and moments of inertia in atomic units:
                           1         2         3
     Eigenvalues --   648.828031219.184881561.92509
           X            0.99922   0.03940  -0.00191
           Y           -0.03938   0.99917   0.01053
           Z            0.00232  -0.01045   0.99994
 This molecule is an asymmetric top.
 Rotational symmetry number  1.
 Warning -- assumption of classical behavior for rotation
           may cause significant error
 Rotational temperatures (Kelvin)      0.13349     0.07104     0.05545
 Rotational constants (GHZ):           2.78154     1.48029     1.15546
 Zero-point vibrational energy     420119.6 (Joules/Mol)
                                  100.41098 (Kcal/Mol)
 Warning -- explicit consideration of  11 degrees of freedom as
           vibrations may cause significant error
 Vibrational temperatures:    137.98   228.96   307.86   344.66   409.65
          (Kelvin)            503.76   523.67   632.49   695.18   763.49
                              864.83  1003.41  1071.06  1118.72  1181.11
                             1282.00  1303.56  1383.68  1406.55  1455.86
                             1498.82  1529.00  1577.29  1599.16  1609.11
                             1641.81  1727.40  1765.56  1798.17  1848.57
                             1897.19  1936.90  2030.64  2046.23  2055.01
                             2108.72  2142.77  2150.75  2170.99  2181.77
                             2660.29  4328.52  4332.55  4348.46  4434.16
                             4435.59  4448.88  4462.10  4509.84  4530.65
                             4632.02

 Zero-point correction=                           0.160015 (Hartree/Particle)
 Thermal correction to Energy=                    0.168148
 Thermal correction to Enthalpy=                  0.169092
 Thermal correction to Gibbs Free Energy=         0.127511
 Sum of electronic and zero-point Energies=           -423.065032
 Sum of electronic and thermal Energies=              -423.056899
 Sum of electronic and thermal Enthalpies=            -423.055955
 Sum of electronic and thermal Free Energies=         -423.097536

                     E (Thermal)             CV                S
                      KCal/Mol        Cal/Mol-Kelvin    Cal/Mol-Kelvin
 Total                  105.515             31.591             87.515
 Electronic               0.000              0.000              0.000
 Translational            0.889              2.981             40.409
 Rotational               0.889              2.981             28.604
 Vibrational            103.737             25.629             18.502
 Vibration     1          0.603              1.952              3.536
 Vibration     2          0.621              1.892              2.560
 Vibration     3          0.644              1.820              2.010
 Vibration     4          0.657              1.780              1.806
 Vibration     5          0.683              1.702              1.505
 Vibration     6          0.727              1.575              1.166
 Vibration     7          0.738              1.546              1.105
 Vibration     8          0.800              1.384              0.828
 Vibration     9          0.839              1.287              0.702
 Vibration    10          0.886              1.182              0.586
 Vibration    11          0.959              1.029              0.448

 Optimization completed.
    -- Stationary point found.
 Normal termination of Gaussian 09 at Mon Jan 27 19:57:41 2020.
