 Gaussian 09, Revision D.01,
 Gaussian 09:  ES64L-G09RevD.01 24-Apr-2013

 -----------------------------
 # b3lyp 6-31G(2df,p) opt Freq
 -----------------------------

 -----
 titel
 -----
 Symbolic Z-matrix:
 Charge =  0 Multiplicity = 1

 SCF Done:  E(RB3LYP) =  -423.143867136     A.U. after   13 cycles
 Optimization completed.
    -- Stationary point found.
 Normal termination of Gaussian 09 at Mon Jan 27 12:17:55 2020.

 ----------------------------------------------------------------------
 #N Geom=AllCheck Guess=TCheck SCRF=Check GenChk RB3LYP/6-31G(2df,p) Fr
 eq
 ----------------------------------------------------------------------

 Structure from the checkpoint file:  "/scratch/puck/g09_fd401417-cacd-4ba8-bbe4-883843eeb6e9/Gau-35301.chk"
 -----
 titel
 -----
 Charge =  0 Multiplicity = 1

                         Standard orientation:
 ---------------------------------------------------------------------
 Center     Atomic      Atomic             Coordinates (Angstroms)
 Number     Number       Type             X           Y           Z
 ---------------------------------------------------------------------
      1          6           0        0.876772    1.370139    0.801015
      2          6           0        0.956187    1.332980   -0.764245
      3          6           0        0.229630   -0.037257   -0.738073
      4          6           0       -1.223751   -0.195996   -1.165500
      5          8           0       -1.972269    0.208699   -0.011288
      6          6           0       -1.253723   -0.208753    1.161716
      7          6           0        0.212883   -0.036251    0.797227
      8          6           0        1.157568   -1.249679    0.648813
      9          8           0        1.090321   -1.194870   -0.804322
     10          1           0        1.829895    1.441631    1.330889
     11          1           0        0.209302    2.148052    1.179368
     12          1           0        0.408176    2.133148   -1.267431
     13          1           0        1.962748    1.269836   -1.181357
     14          1           0       -1.542798    0.442013   -1.993634
     15          1           0       -1.413038   -1.249066   -1.422329
     16          1           0       -1.602866    0.417911    1.986965
     17          1           0       -1.480271   -1.260507    1.399202
     18          1           0        2.181502   -1.104072    1.013109
     19          1           0        0.769545   -2.200678    1.034370
 ---------------------------------------------------------------------

 SCF Done:  E(RB3LYP) =  -423.143867136     A.U. after    1 cycles

 The electronic state is 1-A.
 Alpha  occ. eigenvalues --  -19.13881 -19.13658 -10.23688 -10.23206 -10.23064
 Alpha  occ. eigenvalues --  -10.22634 -10.19214 -10.19094 -10.18718  -1.04950
 Alpha  occ. eigenvalues --   -1.02211  -0.83238  -0.75183  -0.69960  -0.67852
 Alpha  occ. eigenvalues --   -0.62495  -0.60074  -0.50934  -0.50485  -0.49926
 Alpha  occ. eigenvalues --   -0.46100  -0.44843  -0.44241  -0.42906  -0.41977
 Alpha  occ. eigenvalues --   -0.39716  -0.37928  -0.35526  -0.33341  -0.31772
 Alpha  occ. eigenvalues --   -0.30415  -0.26692  -0.25753  -0.24761
 Alpha virt. eigenvalues --    0.05565   0.08293   0.08839   0.10870   0.12674
 Alpha virt. eigenvalues --    0.12825   0.13815   0.14756   0.15147   0.16419
 Alpha virt. eigenvalues --    0.17873   0.18122   0.19397   0.21259   0.22044

 Mulliken charges:
               1
     1  C   -0.290997
     2  C   -0.285444
     3  C    0.391854
     4  C   -0.156612
     5  O   -0.262718
     6  C   -0.169391
     7  C    0.206159
     8  C   -0.153014
     9  O   -0.337466
    10  H    0.103070
    11  H    0.112669
    12  H    0.108268
    13  H    0.114845
    14  H    0.108574
    15  H    0.100373
    16  H    0.110828
    17  H    0.090860
    18  H    0.103453
    19  H    0.104690
 Sum of Mulliken charges =   0.00000

 Dipole moment (field-independent basis, Debye):
    X=              0.6922    Y=              0.5500    Z=              1.1933  Tot=              1.4851
 Quadrupole moment (field-independent basis, Debye-Ang):
   XX=            -57.2694   YY=            -53.1126   ZZ=            -51.0896
   XY=              2.2949   XZ=              2.1337   YZ=             -2.5964

  Exact polarizability:  73.173   1.078  73.433   2.084  -2.885  72.604
 Approx polarizability: 103.774  -2.615 106.029   1.615  -2.140 108.926

                      1                      2                      3
                      A                      A                      A
 Frequencies --    114.9516               181.1049               283.2370
 Red. masses --      2.1374                 4.0850                 1.8732
 Frc consts  --      0.0166                 0.0789                 0.0885
 IR Inten    --      1.3790                 7.6293                 1.0874

                      4                      5                      6
                      A                      A                      A
 Frequencies --    323.5566               345.0682               374.4718
 Red. masses --      2.1983                 2.2263                 3.0250
 Frc consts  --      0.1356                 0.1562                 0.2499
 IR Inten    --      0.6538                 3.7755                 1.8648

                      7                      8                      9
                      A                      A                      A
 Frequencies --    532.8933               620.2084               635.0049
 Red. masses --      3.7044                 5.8921                 3.6617
 Frc consts  --      0.6198                 1.3353                 0.8699
 IR Inten    --      3.1919                 2.8070                 0.2892

                     10                     11                     12
                      A                      A                      A
 Frequencies --    691.2131               735.6274               777.8821
 Red. masses --      3.9125                 1.2331                 3.2332
 Frc consts  --      1.1014                 0.3932                 1.1527
 IR Inten    --      2.0868                 0.0888                15.9864

                     13                     14                     15
                      A                      A                      A
 Frequencies --    891.9608               897.3903               910.9028
 Red. masses --      2.3801                 2.1404                 4.4339
 Frc consts  --      1.1157                 1.0155                 2.1676
 IR Inten    --      7.2049                13.4880                16.4883

                     16                     17                     18
                      A                      A                      A
 Frequencies --    925.9006               944.8529               961.8831
 Red. masses --      2.5148                 1.7513                 2.0702
 Frc consts  --      1.2702                 0.9211                 1.1285
 IR Inten    --      1.2527                 4.7405                19.3815

                     19                     20                     21
                      A                      A                      A
 Frequencies --    969.8137               986.8344              1017.9250
 Red. masses --      3.1309                 4.6972                 2.0043
 Frc consts  --      1.7350                 2.6951                 1.2236
 IR Inten    --     17.3207                31.0669                17.5715

                     22                     23                     24
                      A                      A                      A
 Frequencies --   1059.8449              1136.1233              1153.5983
 Red. masses --      5.7434                 3.1302                 1.2031
 Frc consts  --      3.8011                 2.3805                 0.9433
 IR Inten    --     71.7203                14.5534                 0.7420

                     25                     26                     27
                      A                      A                      A
 Frequencies --   1163.2587              1200.9493              1211.0156
 Red. masses --      1.8928                 2.0074                 1.6252
 Frc consts  --      1.5090                 1.7058                 1.4043
 IR Inten    --      5.3028                 4.2460                 4.8679

                     28                     29                     30
                      A                      A                      A
 Frequencies --   1233.5696              1240.9793              1254.3927
 Red. masses --      1.4858                 1.3347                 1.4689
 Frc consts  --      1.3321                 1.2110                 1.3618
 IR Inten    --      1.7232                 7.6388                 3.0890

                     31                     32                     33
                      A                      A                      A
 Frequencies --   1272.9469              1288.1529              1300.4126
 Red. masses --      1.9296                 1.5728                 2.0553
 Frc consts  --      1.8422                 1.5377                 2.0478
 IR Inten    --      2.9458                 6.6375                 3.0587

                     34                     35                     36
                      A                      A                      A
 Frequencies --   1336.3350              1355.0911              1383.0588
 Red. masses --      1.3568                 1.6637                 1.3873
 Frc consts  --      1.4275                 1.7999                 1.5635
 IR Inten    --      0.6066                 4.0802                 3.1606

                     37                     38                     39
                      A                      A                      A
 Frequencies --   1462.4563              1479.9382              1497.4722
 Red. masses --      1.0862                 1.1141                 1.0830
 Frc consts  --      1.3688                 1.4377                 1.4309
 IR Inten    --      1.5706                 3.0431                 0.2329

                     40                     41                     42
                      A                      A                      A
 Frequencies --   1506.8875              1520.8290              2976.0684
 Red. masses --      1.0989                 1.0989                 1.0700
 Frc consts  --      1.4701                 1.4975                 5.5838
 IR Inten    --      2.2973                 0.2387                52.9823

                     43                     44                     45
                      A                      A                      A
 Frequencies --   2996.1868              3013.2794              3059.9286
 Red. masses --      1.0677                 1.0553                 1.0614
 Frc consts  --      5.6472                 5.6455                 5.8553
 IR Inten    --     52.9493                79.8714                26.0601

                     46                     47                     48
                      A                      A                      A
 Frequencies --   3061.7967              3069.0150              3088.2503
 Red. masses --      1.1071                 1.0603                 1.0935
 Frc consts  --      6.1148                 5.8840                 6.1445
 IR Inten    --     45.9660                24.6635                30.2618

                     49                     50                     51
                      A                      A                      A
 Frequencies --   3096.4949              3110.6483              3133.3898
 Red. masses --      1.0968                 1.1086                 1.1078
 Frc consts  --      6.1962                 6.3200                 6.4085
 IR Inten    --     25.9056                 5.6210                25.7677

 - Thermochemistry -
 -------------------
 Temperature   298.150 Kelvin.  Pressure   1.00000 Atm.
 Atom     1 has atomic number  6 and mass  12.00000

 Molecular mass:   126.06808 amu.
 Principal axes and moments of inertia in atomic units:
                           1         2         3
     Eigenvalues --   736.93165 979.497931028.65311
           X            0.99699   0.07500   0.01966
           Y           -0.06886   0.97304  -0.22013
           Z           -0.03564   0.21811   0.97527
 This molecule is an asymmetric top.
 Rotational symmetry number  1.
 Warning -- assumption of classical behavior for rotation
           may cause significant error
 Rotational temperatures (Kelvin)      0.11753     0.08843     0.08420
 Rotational constants (GHZ):           2.44899     1.84252     1.75447
 Zero-point vibrational energy     423388.6 (Joules/Mol)
                                  101.19231 (Kcal/Mol)
 Warning -- explicit consideration of   8 degrees of freedom as
           vibrations may cause significant error
 Vibrational temperatures:    165.39   260.57   407.51   465.53   496.48
          (Kelvin)            538.78   766.71   892.34   913.63   994.50
                             1058.40  1119.20  1283.33  1291.14  1310.58
                             1332.16  1359.43  1383.93  1395.34  1419.83
                             1464.57  1524.88  1634.63  1659.77  1673.67
                             1727.90  1742.38  1774.83  1785.49  1804.79
                             1831.48  1853.36  1871.00  1922.69  1949.67
                             1989.91  2104.15  2129.30  2154.53  2168.07
                             2188.13  4281.89  4310.84  4335.43  4402.55
                             4405.24  4415.62  4443.30  4455.16  4475.52
                             4508.24

 Zero-point correction=                           0.161260 (Hartree/Particle)
 Thermal correction to Energy=                    0.168384
 Thermal correction to Enthalpy=                  0.169328
 Thermal correction to Gibbs Free Energy=         0.129917
 Sum of electronic and zero-point Energies=           -422.982607
 Sum of electronic and thermal Energies=              -422.975484
 Sum of electronic and thermal Enthalpies=            -422.974539
 Sum of electronic and thermal Free Energies=         -423.013950

                     E (Thermal)             CV                S
                      KCal/Mol        Cal/Mol-Kelvin    Cal/Mol-Kelvin
 Total                  105.662             28.805             82.946
 Electronic               0.000              0.000              0.000
 Translational            0.889              2.981             40.409
 Rotational               0.889              2.981             28.098
 Vibrational            103.885             22.844             14.440
 Vibration     1          0.608              1.937              3.184
 Vibration     2          0.630              1.865              2.317
 Vibration     3          0.682              1.705              1.514
 Vibration     4          0.708              1.628              1.292
 Vibration     5          0.723              1.585              1.189
 Vibration     6          0.746              1.524              1.061
 Vibration     7          0.888              1.177              0.581
 Vibration     8          0.980              0.989              0.416

 Optimization completed.
    -- Stationary point found.
 Normal termination of Gaussian 09 at Mon Jan 27 13:07:18 2020.
