 Gaussian 09, Revision D.01,
 Gaussian 09:  ES64L-G09RevD.01 24-Apr-2013

 -----------------------------
 # b3lyp 6-31G(2df,p) opt Freq
 -----------------------------

 -----
 titel
 -----
 Symbolic Z-matrix:
 Charge =  0 Multiplicity = 1

 SCF Done:  E(RB3LYP) =  -423.203452833     A.U. after   14 cycles
 Optimization completed.
    -- Stationary point found.
 Normal termination of Gaussian 09 at Tue Jan 28 03:11:32 2020.

 ----------------------------------------------------------------------
 #N Geom=AllCheck Guess=TCheck SCRF=Check GenChk RB3LYP/6-31G(2df,p) Fr
 eq
 ----------------------------------------------------------------------

 Structure from the checkpoint file:  "/scratch/puck/g09_cf00a280-97f7-4700-a8c9-573f3ee0f875/Gau-44958.chk"
 -----
 titel
 -----
 Charge =  0 Multiplicity = 1

                         Standard orientation:
 ---------------------------------------------------------------------
 Center     Atomic      Atomic             Coordinates (Angstroms)
 Number     Number       Type             X           Y           Z
 ---------------------------------------------------------------------
      1          6           0       -2.796292   -0.556372   -0.362415
      2          6           0       -1.317312   -0.218546   -0.373083
      3          6           0       -0.968623    1.272981   -0.173758
      4          6           0        0.424708    1.250394    0.474137
      5          6           0        1.641243    1.054527   -0.478971
      6          6           0        1.659265   -0.439526   -0.101275
      7          8           0        2.253495   -1.393006   -0.507617
      8          6           0        0.535447   -0.236140    0.968956
      9          8           0       -0.683887   -0.888303    0.727113
     10          1           0       -3.257327   -0.219305    0.571086
     11          1           0       -3.304841   -0.069089   -1.199944
     12          1           0       -2.944883   -1.635781   -0.451226
     13          1           0       -0.867344   -0.577036   -1.313874
     14          1           0       -0.999396    1.833273   -1.112378
     15          1           0       -1.692123    1.725518    0.512515
     16          1           0        0.556129    2.027201    1.226293
     17          1           0        1.481247    1.258596   -1.542535
     18          1           0        2.550482    1.576845   -0.164770
     19          1           0        0.850576   -0.433656    1.997317
 ---------------------------------------------------------------------

 SCF Done:  E(RB3LYP) =  -423.203452833     A.U. after    1 cycles

 The electronic state is 1-A.
 Alpha  occ. eigenvalues --  -19.14860 -19.14214 -10.26770 -10.23916 -10.23590
 Alpha  occ. eigenvalues --  -10.20029 -10.19494 -10.19246 -10.18076  -1.05559
 Alpha  occ. eigenvalues --   -1.04132  -0.84035  -0.78548  -0.71278  -0.66791
 Alpha  occ. eigenvalues --   -0.61099  -0.58209  -0.52620  -0.50851  -0.49133
 Alpha  occ. eigenvalues --   -0.46002  -0.44120  -0.43487  -0.42073  -0.41490
 Alpha  occ. eigenvalues --   -0.38688  -0.38189  -0.36910  -0.34845  -0.33429
 Alpha  occ. eigenvalues --   -0.33110  -0.31662  -0.28593  -0.22780
 Alpha virt. eigenvalues --   -0.03160   0.08336   0.09700   0.10991   0.12697
 Alpha virt. eigenvalues --    0.12804   0.14857   0.15264   0.16399   0.16759
 Alpha virt. eigenvalues --    0.17326   0.18294   0.18647   0.19852   0.21246

 Mulliken charges:
               1
     1  C   -0.406151
     2  C    0.130468
     3  C   -0.236292
     4  C   -0.064268
     5  C   -0.367048
     6  C    0.374618
     7  O   -0.284977
     8  C    0.001076
     9  O   -0.258429
    10  H    0.123740
    11  H    0.118114
    12  H    0.132157
    13  H    0.079667
    14  H    0.105260
    15  H    0.106194
    16  H    0.082040
    17  H    0.127972
    18  H    0.134263
    19  H    0.101597
 Sum of Mulliken charges =   0.00000

 Dipole moment (field-independent basis, Debye):
    X=             -1.3056    Y=              3.1103    Z=              0.1086  Tot=              3.3749
 Quadrupole moment (field-independent basis, Debye-Ang):
   XX=            -54.8619   YY=            -56.6262   ZZ=            -51.5528
   XY=              4.5495   XZ=              3.7846   YZ=             -0.1202

  Exact polarizability:  85.267  -0.012  73.504  -0.186   0.203  66.646
 Approx polarizability: 110.271  -4.654 113.425  -2.952   0.985 103.781

                      1                      2                      3
                      A                      A                      A
 Frequencies --     55.5536               108.7212               207.7489
 Red. masses --      4.0793                 2.9000                 2.2139
 Frc consts  --      0.0074                 0.0202                 0.0563
 IR Inten    --      2.5792                 0.4084                 2.9271

                      4                      5                      6
                      A                      A                      A
 Frequencies --    230.7899               289.8536               353.5290
 Red. masses --      1.4275                 2.7260                 2.2021
 Frc consts  --      0.0448                 0.1349                 0.1622
 IR Inten    --      1.2641                 0.7909                 1.2736

                      7                      8                      9
                      A                      A                      A
 Frequencies --    416.6293               467.0496               544.1157
 Red. masses --      3.5855                 2.2123                 2.3071
 Frc consts  --      0.3667                 0.2843                 0.4024
 IR Inten    --      3.1023                 1.1365                 4.5005

                     10                     11                     12
                      A                      A                      A
 Frequencies --    577.7584               619.5643               740.3079
 Red. masses --      4.2031                 4.3528                 2.6477
 Frc consts  --      0.8266                 0.9844                 0.8549
 IR Inten    --      0.3826                 1.5113                 6.1115

                     13                     14                     15
                      A                      A                      A
 Frequencies --    761.4074               832.2522               845.0878
 Red. masses --      4.4424                 2.6745                 2.4990
 Frc consts  --      1.5174                 1.0915                 1.0515
 IR Inten    --      1.7603                 6.0728                11.0091

                     16                     17                     18
                      A                      A                      A
 Frequencies --    859.5846               892.0013               932.8951
 Red. masses --      1.9846                 2.2125                 1.9854
 Frc consts  --      0.8640                 1.0372                 1.0180
 IR Inten    --      2.6624                14.4839                 1.0702

                     19                     20                     21
                      A                      A                      A
 Frequencies --    968.7655              1027.2094              1038.3234
 Red. masses --      1.9878                 1.7302                 2.6777
 Frc consts  --      1.0992                 1.0756                 1.7009
 IR Inten    --     15.3438                10.8849                56.4726

                     22                     23                     24
                      A                      A                      A
 Frequencies --   1071.8648              1088.4878              1138.5784
 Red. masses --      2.3617                 1.6833                 4.3249
 Frc consts  --      1.5987                 1.1751                 3.3033
 IR Inten    --      6.9978                 2.8207                91.5996

                     25                     26                     27
                      A                      A                      A
 Frequencies --   1140.6474              1152.0128              1167.1488
 Red. masses --      2.0621                 1.9897                 1.4924
 Frc consts  --      1.5807                 1.5558                 1.1978
 IR Inten    --      7.5725                11.6870                 1.6846

                     28                     29                     30
                      A                      A                      A
 Frequencies --   1210.8065              1226.3415              1256.0257
 Red. masses --      1.4662                 1.6477                 1.5258
 Frc consts  --      1.2665                 1.4600                 1.4182
 IR Inten    --      3.2839                 1.1839                 3.2022

                     31                     32                     33
                      A                      A                      A
 Frequencies --   1289.8374              1328.2340              1335.2117
 Red. masses --      1.4050                 1.3806                 1.4237
 Frc consts  --      1.3772                 1.4350                 1.4954
 IR Inten    --      1.9906                 1.6330                 2.9878

                     34                     35                     36
                      A                      A                      A
 Frequencies --   1366.5663              1394.0453              1414.5656
 Red. masses --      1.2746                 1.3144                 1.4355
 Frc consts  --      1.4024                 1.5050                 1.6923
 IR Inten    --      9.0857                 5.2497                15.0561

                     37                     38                     39
                      A                      A                      A
 Frequencies --   1434.2684              1481.9435              1486.2869
 Red. masses --      1.1032                 1.0719                 1.0726
 Frc consts  --      1.3372                 1.3870                 1.3960
 IR Inten    --     12.4437                 1.6406                 4.2171

                     40                     41                     42
                      A                      A                      A
 Frequencies --   1499.6441              1894.1660              2960.3725
 Red. masses --      1.0503                12.8977                 1.0826
 Frc consts  --      1.3917                27.2645                 5.5900
 IR Inten    --      3.3955               223.6279                36.0787

                     43                     44                     45
                      A                      A                      A
 Frequencies --   3041.8543              3048.7737              3051.0491
 Red. masses --      1.0366                 1.0598                 1.0592
 Frc consts  --      5.6513                 5.8040                 5.8093
 IR Inten    --     10.3942                29.6034                 9.0740

                     46                     47                     48
                      A                      A                      A
 Frequencies --   3078.3147              3099.4494              3100.4625
 Red. masses --      1.0867                 1.1037                 1.1031
 Frc consts  --      6.0674                 6.2471                 6.2479
 IR Inten    --     23.7830                 9.5780                 4.1899

                     49                     50                     51
                      A                      A                      A
 Frequencies --   3116.0765              3119.1894              3122.6132
 Red. masses --      1.1013                 1.0905                 1.1018
 Frc consts  --      6.3007                 6.2514                 6.3299
 IR Inten    --     18.7647                31.3421                21.3895

 - Thermochemistry -
 -------------------
 Temperature   298.150 Kelvin.  Pressure   1.00000 Atm.
 Atom     1 has atomic number  6 and mass  12.00000

 Molecular mass:   126.06808 amu.
 Principal axes and moments of inertia in atomic units:
                           1         2         3
     Eigenvalues --   592.825831344.600961607.92704
           X            0.99919   0.03691   0.01590
           Y           -0.03686   0.99932  -0.00297
           Z           -0.01600   0.00238   0.99987
 This molecule is an asymmetric top.
 Rotational symmetry number  1.
 Warning -- assumption of classical behavior for rotation
           may cause significant error
 Rotational temperatures (Kelvin)      0.14610     0.06442     0.05387
 Rotational constants (GHZ):           3.04430     1.34221     1.12240
 Zero-point vibrational energy     417999.1 (Joules/Mol)
                                   99.90417 (Kcal/Mol)
 Warning -- explicit consideration of  11 degrees of freedom as
           vibrations may cause significant error
 Vibrational temperatures:     79.93   156.43   298.90   332.05   417.03
          (Kelvin)            508.65   599.44   671.98   782.86   831.26
                              891.41  1065.14  1095.49  1197.42  1215.89
                             1236.75  1283.39  1342.23  1393.84  1477.92
                             1493.91  1542.17  1566.09  1638.16  1641.14
                             1657.49  1679.26  1742.08  1764.43  1807.14
                             1855.79  1911.03  1921.07  1966.18  2005.72
                             2035.24  2063.59  2132.18  2138.43  2157.65
                             2725.28  4259.31  4376.54  4386.50  4389.77
                             4429.00  4459.41  4460.87  4483.33  4487.81
                             4492.74

 Zero-point correction=                           0.159207 (Hartree/Particle)
 Thermal correction to Energy=                    0.167347
 Thermal correction to Enthalpy=                  0.168292
 Thermal correction to Gibbs Free Energy=         0.126091
 Sum of electronic and zero-point Energies=           -423.044245
 Sum of electronic and thermal Energies=              -423.036105
 Sum of electronic and thermal Enthalpies=            -423.035161
 Sum of electronic and thermal Free Energies=         -423.077362

                     E (Thermal)             CV                S
                      KCal/Mol        Cal/Mol-Kelvin    Cal/Mol-Kelvin
 Total                  105.012             31.222             88.819
 Electronic               0.000              0.000              0.000
 Translational            0.889              2.981             40.409
 Rotational               0.889              2.981             28.640
 Vibrational            103.235             25.260             19.770
 Vibration     1          0.596              1.975              4.609
 Vibration     2          0.606              1.942              3.292
 Vibration     3          0.641              1.829              2.063
 Vibration     4          0.652              1.794              1.873
 Vibration     5          0.686              1.693              1.475
 Vibration     6          0.730              1.568              1.150
 Vibration     7          0.780              1.434              0.903
 Vibration     8          0.824              1.323              0.746
 Vibration     9          0.899              1.153              0.557
 Vibration    10          0.934              1.079              0.490
 Vibration    11          0.980              0.991              0.417

 Optimization completed.
    -- Stationary point found.
 Normal termination of Gaussian 09 at Tue Jan 28 05:08:54 2020.
