 Gaussian 09, Revision D.01,
 Gaussian 09:  ES64L-G09RevD.01 24-Apr-2013

 -----------------------------
 # b3lyp 6-31G(2df,p) opt Freq
 -----------------------------

 -----
 titel
 -----
 Symbolic Z-matrix:
 Charge =  0 Multiplicity = 1

 SCF Done:  E(RB3LYP) =  -423.165945462     A.U. after   14 cycles
 Optimization completed.
    -- Stationary point found.
 Normal termination of Gaussian 09 at Mon Jan 27 16:30:35 2020.

 ----------------------------------------------------------------------
 #N Geom=AllCheck Guess=TCheck SCRF=Check GenChk RB3LYP/6-31G(2df,p) Fr
 eq
 ----------------------------------------------------------------------

 Structure from the checkpoint file:  "/scratch/puck/g09_8c74f754-4aa5-4e24-b3ab-76e272ae2289/Gau-177169.chk"
 -----
 titel
 -----
 Charge =  0 Multiplicity = 1

                         Standard orientation:
 ---------------------------------------------------------------------
 Center     Atomic      Atomic             Coordinates (Angstroms)
 Number     Number       Type             X           Y           Z
 ---------------------------------------------------------------------
      1          6           0        1.031247   -1.073820    1.238288
      2          6           0        1.124013   -0.070817    0.113346
      3          6           0        2.272286    0.842955    0.008409
      4          8           0        2.178953   -0.307021   -0.830996
      5          6           0       -0.191487    0.375313   -0.517753
      6          8           0       -1.002672   -0.757160   -0.842984
      7          6           0       -2.304302   -0.622132   -0.277539
      8          6           0       -2.253508    0.648510    0.522448
      9          6           0       -1.061522    1.215696    0.383749
     10          1           0        0.424456   -0.681243    2.060600
     11          1           0        0.560454   -1.991868    0.877675
     12          1           0        2.026754   -1.314711    1.617759
     13          1           0        2.166280    1.801968   -0.499608
     14          1           0        3.050095    0.810985    0.770540
     15          1           0        0.070912    0.911253   -1.444599
     16          1           0       -3.060304   -0.578278   -1.077981
     17          1           0       -2.535215   -1.504552    0.338091
     18          1           0       -3.090575    1.020925    1.099242
     19          1           0       -0.723472    2.144745    0.824424
 ---------------------------------------------------------------------

 SCF Done:  E(RB3LYP) =  -423.165945462     A.U. after    1 cycles

 The electronic state is 1-A.
 Alpha  occ. eigenvalues --  -19.14432 -19.13806 -10.23868 -10.23751 -10.23447
 Alpha  occ. eigenvalues --  -10.23015 -10.19456 -10.19212 -10.17587  -1.06738
 Alpha  occ. eigenvalues --   -1.03510  -0.79476  -0.76720  -0.71946  -0.66009
 Alpha  occ. eigenvalues --   -0.62568  -0.57156  -0.55188  -0.51560  -0.49324
 Alpha  occ. eigenvalues --   -0.47893  -0.44545  -0.43043  -0.42698  -0.40236
 Alpha  occ. eigenvalues --   -0.39523  -0.37666  -0.36656  -0.35283  -0.32864
 Alpha  occ. eigenvalues --   -0.29557  -0.27997  -0.26752  -0.23656
 Alpha virt. eigenvalues --    0.00848   0.09061   0.09752   0.11446   0.12707
 Alpha virt. eigenvalues --    0.13446   0.14166   0.14623   0.14985   0.16084
 Alpha virt. eigenvalues --    0.16629   0.17574   0.18961   0.19940   0.21127

 Mulliken charges:
               1
     1  C   -0.469496
     2  C    0.412179
     3  C   -0.233778
     4  O   -0.276253
     5  C    0.028960
     6  O   -0.278273
     7  C   -0.116355
     8  C   -0.100013
     9  C   -0.094914
    10  H    0.120395
    11  H    0.142753
    12  H    0.122334
    13  H    0.106268
    14  H    0.110651
    15  H    0.088576
    16  H    0.108407
    17  H    0.108947
    18  H    0.110333
    19  H    0.109279
 Sum of Mulliken charges =   0.00000

 Dipole moment (field-independent basis, Debye):
    X=             -1.4887    Y=              1.8518    Z=              2.1600  Tot=              3.2111
 Quadrupole moment (field-independent basis, Debye-Ang):
   XX=            -50.2957   YY=            -51.8302   ZZ=            -54.9849
   XY=              2.5663   XZ=              2.0480   YZ=             -1.6712

  Exact polarizability:  96.644  10.054  71.453  -1.676  -0.528  62.194
 Approx polarizability: 133.185  18.063 108.706  -6.818   3.045  94.962

                      1                      2                      3
                      A                      A                      A
 Frequencies --     68.8683                89.9065               177.9769
 Red. masses --      3.2734                 3.3924                 1.6017
 Frc consts  --      0.0091                 0.0162                 0.0299
 IR Inten    --      0.2789                 1.7516                 0.3564

                      4                      5                      6
                      A                      A                      A
 Frequencies --    188.0587               249.7589               332.3148
 Red. masses --      1.5877                 3.3064                 3.8538
 Frc consts  --      0.0331                 0.1215                 0.2507
 IR Inten    --      0.2334                 5.1323                 0.5249

                      7                      8                      9
                      A                      A                      A
 Frequencies --    357.7700               371.4229               484.2385
 Red. masses --      2.8860                 2.6710                 3.1197
 Frc consts  --      0.2176                 0.2171                 0.4310
 IR Inten    --      3.3485                 4.7017                 4.1986

                     10                     11                     12
                      A                      A                      A
 Frequencies --    503.5471               695.1688               763.4866
 Red. masses --      3.3981                 1.4260                 6.5016
 Frc consts  --      0.5077                 0.4060                 2.2329
 IR Inten    --      8.4926                19.4937                 5.3752

                     13                     14                     15
                      A                      A                      A
 Frequencies --    789.1516               817.3684               835.4584
 Red. masses --      2.6915                 5.2534                 3.8329
 Frc consts  --      0.9876                 2.0679                 1.5763
 IR Inten    --     13.6731                 3.2162                24.7076

                     16                     17                     18
                      A                      A                      A
 Frequencies --    906.1826               928.1712               938.0869
 Red. masses --      2.0058                 1.9068                 2.1724
 Frc consts  --      0.9704                 0.9679                 1.1263
 IR Inten    --     17.8915                 7.7068                 2.5461

                     19                     20                     21
                      A                      A                      A
 Frequencies --    959.4255               963.2476              1022.2842
 Red. masses --      1.2852                 2.5010                 2.4402
 Frc consts  --      0.6970                 1.3672                 1.5025
 IR Inten    --      0.8614                 2.8011                13.3043

                     22                     23                     24
                      A                      A                      A
 Frequencies --   1038.1834              1048.1441              1104.1884
 Red. masses --      1.7564                 1.6866                 2.0549
 Frc consts  --      1.1154                 1.0917                 1.4761
 IR Inten    --     16.9696                 5.4924                41.5239

                     25                     26                     27
                      A                      A                      A
 Frequencies --   1111.1366              1125.0642              1136.3255
 Red. masses --      4.2202                 1.2111                 1.3761
 Frc consts  --      3.0698                 0.9032                 1.0469
 IR Inten    --     94.6675                 3.9777                 3.6010

                     28                     29                     30
                      A                      A                      A
 Frequencies --   1165.6498              1198.2425              1280.9347
 Red. masses --      1.3720                 1.0835                 1.3978
 Frc consts  --      1.0983                 0.9166                 1.3513
 IR Inten    --      0.3739                 0.9463                15.2913

                     31                     32                     33
                      A                      A                      A
 Frequencies --   1291.3868              1325.2565              1354.1869
 Red. masses --      3.4838                 1.3912                 1.7436
 Frc consts  --      3.4231                 1.4396                 1.8839
 IR Inten    --      4.2658                11.2073                 3.2035

                     34                     35                     36
                      A                      A                      A
 Frequencies --   1381.7103              1395.2382              1428.4542
 Red. masses --      1.5809                 1.3747                 1.7562
 Frc consts  --      1.7782                 1.5768                 2.1113
 IR Inten    --      2.2809                 8.2884                 8.5436

                     37                     38                     39
                      A                      A                      A
 Frequencies --   1476.4091              1500.6486              1519.9116
 Red. masses --      1.0470                 1.0636                 1.0848
 Frc consts  --      1.3446                 1.4111                 1.4765
 IR Inten    --      4.9754                 3.3386                 1.7308

                     40                     41                     42
                      A                      A                      A
 Frequencies --   1532.3398              1689.9375              2968.8475
 Red. masses --      1.3787                 6.5312                 1.0797
 Frc consts  --      1.9074                10.9896                 5.6072
 IR Inten    --      3.2925                 1.2306                64.3897

                     43                     44                     45
                      A                      A                      A
 Frequencies --   2975.7892              2999.4711              3046.3783
 Red. masses --      1.0648                 1.0992                 1.0359
 Frc consts  --      5.5557                 5.8267                 5.6641
 IR Inten    --     66.0344                42.4318                13.0110

                     46                     47                     48
                      A                      A                      A
 Frequencies --   3073.5696              3116.4110              3133.0295
 Red. masses --      1.0507                 1.0992                 1.1027
 Frc consts  --      5.8480                 6.2899                 6.3772
 IR Inten    --     26.6496                13.9667                13.6795

                     49                     50                     51
                      A                      A                      A
 Frequencies --   3157.5477              3208.0343              3232.5663
 Red. masses --      1.1184                 1.0853                 1.1066
 Frc consts  --      6.5699                 6.5810                 6.8131
 IR Inten    --     27.1406                 2.2784                 7.5475

 - Thermochemistry -
 -------------------
 Temperature   298.150 Kelvin.  Pressure   1.00000 Atm.
 Atom     1 has atomic number  6 and mass  12.00000

 Molecular mass:   126.06808 amu.
 Principal axes and moments of inertia in atomic units:
                           1         2         3
     Eigenvalues --   518.622221529.939221598.61515
           X            0.99984   0.01409   0.01142
           Y           -0.01152   0.97979  -0.19972
           Z           -0.01401   0.19955   0.97979
 This molecule is an asymmetric top.
 Rotational symmetry number  1.
 Warning -- assumption of classical behavior for rotation
           may cause significant error
 Rotational temperatures (Kelvin)      0.16701     0.05661     0.05418
 Rotational constants (GHZ):           3.47988     1.17962     1.12894
 Zero-point vibrational energy     415444.4 (Joules/Mol)
                                   99.29360 (Kcal/Mol)
 Warning -- explicit consideration of  10 degrees of freedom as
           vibrations may cause significant error
 Vibrational temperatures:     99.09   129.36   256.07   270.57   359.35
          (Kelvin)            478.13   514.75   534.39   696.71   724.49
                             1000.19  1098.49  1135.41  1176.01  1202.04
                             1303.79  1335.43  1349.70  1380.40  1385.90
                             1470.84  1493.71  1508.04  1588.68  1598.68
                             1618.71  1634.92  1677.11  1724.00  1842.98
                             1858.02  1906.75  1948.37  1987.97  2007.43
                             2055.22  2124.22  2159.10  2186.81  2204.69
                             2431.44  4271.50  4281.49  4315.56  4383.05
                             4422.18  4483.81  4507.72  4543.00  4615.64
                             4650.94

 Zero-point correction=                           0.158234 (Hartree/Particle)
 Thermal correction to Energy=                    0.166782
 Thermal correction to Enthalpy=                  0.167726
 Thermal correction to Gibbs Free Energy=         0.124713
 Sum of electronic and zero-point Energies=           -423.007711
 Sum of electronic and thermal Energies=              -422.999163
 Sum of electronic and thermal Enthalpies=            -422.998219
 Sum of electronic and thermal Free Energies=         -423.041233

                     E (Thermal)             CV                S
                      KCal/Mol        Cal/Mol-Kelvin    Cal/Mol-Kelvin
 Total                  104.657             32.015             90.530
 Electronic               0.000              0.000              0.000
 Translational            0.889              2.981             40.409
 Rotational               0.889              2.981             28.630
 Vibrational            102.880             26.054             21.491
 Vibration     1          0.598              1.969              4.185
 Vibration     2          0.602              1.956              3.662
 Vibration     3          0.628              1.869              2.350
 Vibration     4          0.633              1.856              2.247
 Vibration     5          0.663              1.763              1.732
 Vibration     6          0.714              1.611              1.249
 Vibration     7          0.733              1.559              1.132
 Vibration     8          0.743              1.531              1.074
 Vibration     9          0.840              1.285              0.699
 Vibration    10          0.859              1.242              0.649

 Optimization completed.
    -- Stationary point found.
 Normal termination of Gaussian 09 at Mon Jan 27 17:12:31 2020.
