 Gaussian 09, Revision D.01,
 Gaussian 09:  ES64L-G09RevD.01 24-Apr-2013

 -----------------------------
 # b3lyp 6-31G(2df,p) opt Freq
 -----------------------------

 -----
 titel
 -----
 Symbolic Z-matrix:
 Charge =  0 Multiplicity = 1

 SCF Done:  E(RB3LYP) =  -423.177748922     A.U. after   14 cycles
 Optimization completed.
    -- Stationary point found.
 Normal termination of Gaussian 09 at Tue Jan 28 02:28:27 2020.

 ----------------------------------------------------------------------
 #N Geom=AllCheck Guess=TCheck SCRF=Check GenChk RB3LYP/6-31G(2df,p) Fr
 eq
 ----------------------------------------------------------------------

 Structure from the checkpoint file:  "/scratch/puck/g09_a7885785-f294-493e-8a72-b4eacd49b893/Gau-86376.chk"
 -----
 titel
 -----
 Charge =  0 Multiplicity = 1

                         Standard orientation:
 ---------------------------------------------------------------------
 Center     Atomic      Atomic             Coordinates (Angstroms)
 Number     Number       Type             X           Y           Z
 ---------------------------------------------------------------------
      1          8           0       -1.625023   -1.192549   -0.669008
      2          6           0       -1.489577   -0.330865    0.479373
      3          6           0       -0.148874   -0.697000    1.119891
      4          6           0        0.988630   -0.361978    0.154855
      5          8           0        1.541004   -1.461283   -0.512331
      6          6           0        1.921544    0.766787    0.464811
      7          6           0        0.845379    0.929572   -0.611566
      8          6           0       -0.398027    1.711189   -0.407759
      9          6           0       -1.494974    1.136074    0.094207
     10          1           0       -2.181021   -0.741007   -1.311236
     11          1           0       -2.313233   -0.536188    1.177329
     12          1           0       -0.048003   -0.157908    2.066611
     13          1           0       -0.115087   -1.768008    1.341870
     14          1           0        0.816108   -1.841335   -1.025357
     15          1           0        1.801374    1.288691    1.408507
     16          1           0        2.942211    0.678898    0.110188
     17          1           0        1.238780    0.919294   -1.624825
     18          1           0       -0.403911    2.761216   -0.694156
     19          1           0       -2.409670    1.704326    0.238912
 ---------------------------------------------------------------------

 SCF Done:  E(RB3LYP) =  -423.177748922     A.U. after    1 cycles

 The electronic state is 1-A.
 Alpha  occ. eigenvalues --  -19.13964 -19.12926 -10.23525 -10.23213 -10.19227
 Alpha  occ. eigenvalues --  -10.18601 -10.18344 -10.18322 -10.17854  -1.02229
 Alpha  occ. eigenvalues --   -1.01312  -0.85953  -0.78075  -0.74182  -0.64250
 Alpha  occ. eigenvalues --   -0.60908  -0.57495  -0.53557  -0.51730  -0.48642
 Alpha  occ. eigenvalues --   -0.47642  -0.45390  -0.41985  -0.40863  -0.40156
 Alpha  occ. eigenvalues --   -0.38293  -0.36863  -0.35259  -0.33526  -0.32539
 Alpha  occ. eigenvalues --   -0.29015  -0.26658  -0.25522  -0.23379
 Alpha virt. eigenvalues --   -0.00255   0.08516   0.10050   0.11428   0.12124
 Alpha virt. eigenvalues --    0.12628   0.14556   0.16095   0.16769   0.17559
 Alpha virt. eigenvalues --    0.18889   0.19545   0.20785   0.22193   0.22778

 Mulliken charges:
               1
     1  O   -0.448134
     2  C    0.094032
     3  C   -0.303465
     4  C    0.440129
     5  O   -0.480377
     6  C   -0.339238
     7  C   -0.133002
     8  C   -0.049162
     9  C   -0.138022
    10  H    0.281814
    11  H    0.064495
    12  H    0.102054
    13  H    0.112374
    14  H    0.282908
    15  H    0.111530
    16  H    0.121140
    17  H    0.097202
    18  H    0.094031
    19  H    0.089694
 Sum of Mulliken charges =   0.00000

 Dipole moment (field-independent basis, Debye):
    X=             -1.7572    Y=              1.6067    Z=             -0.2339  Tot=              2.3924
 Quadrupole moment (field-independent basis, Debye-Ang):
   XX=            -52.6022   YY=            -54.8941   ZZ=            -50.0595
   XY=              1.1904   XZ=              1.2280   YZ=             -0.1305

  Exact polarizability:  87.851   2.482  75.826  -2.174  -2.299  65.111
 Approx polarizability: 128.659   6.940 113.134  -5.018  -2.967 101.005

                      1                      2                      3
                      A                      A                      A
 Frequencies --    105.6710               142.9839               204.2140
 Red. masses --      4.0692                 2.9433                 1.3019
 Frc consts  --      0.0268                 0.0355                 0.0320
 IR Inten    --      1.5308                 6.3653                81.8519

                      4                      5                      6
                      A                      A                      A
 Frequencies --    274.3808               351.3179               376.4516
 Red. masses --      3.3749                 2.8552                 3.3824
 Frc consts  --      0.1497                 0.2076                 0.2824
 IR Inten    --      0.3783                 2.5966                 4.0344

                      7                      8                      9
                      A                      A                      A
 Frequencies --    386.7528               423.8504               487.4770
 Red. masses --      2.6099                 1.6968                 1.3640
 Frc consts  --      0.2300                 0.1796                 0.1910
 IR Inten    --      2.5821                 5.5410               102.9343

                     10                     11                     12
                      A                      A                      A
 Frequencies --    500.0015               580.4217               596.8390
 Red. masses --      3.0439                 3.7688                 4.1838
 Frc consts  --      0.4484                 0.7481                 0.8781
 IR Inten    --      8.9339                 3.1979                 4.9720

                     13                     14                     15
                      A                      A                      A
 Frequencies --    687.6319               756.5774               802.3122
 Red. masses --      3.5138                 1.5456                 2.0085
 Frc consts  --      0.9789                 0.5213                 0.7617
 IR Inten    --      1.8820                26.3840                 6.6534

                     16                     17                     18
                      A                      A                      A
 Frequencies --    841.0742               886.5395               917.8350
 Red. masses --      2.7232                 2.8265                 1.6901
 Frc consts  --      1.1350                 1.3089                 0.8388
 IR Inten    --      7.5172                14.3959                 5.1776

                     19                     20                     21
                      A                      A                      A
 Frequencies --    941.2284               961.2268               971.0936
 Red. masses --      2.2744                 3.1382                 3.2532
 Frc consts  --      1.1872                 1.7084                 1.8075
 IR Inten    --     19.4696                12.8761                 7.0490

                     22                     23                     24
                      A                      A                      A
 Frequencies --    991.5345              1015.8262              1033.3062
 Red. masses --      1.2682                 1.9350                 2.3987
 Frc consts  --      0.7346                 1.1764                 1.5090
 IR Inten    --      2.4297                14.6550                35.6351

                     25                     26                     27
                      A                      A                      A
 Frequencies --   1062.3645              1095.7287              1103.2357
 Red. masses --      1.3947                 1.4274                 1.8872
 Frc consts  --      0.9274                 1.0097                 1.3534
 IR Inten    --     12.3307                 3.5920                17.6290

                     28                     29                     30
                      A                      A                      A
 Frequencies --   1183.9853              1193.3817              1234.3466
 Red. masses --      1.3265                 1.1817                 1.1371
 Frc consts  --      1.0956                 0.9916                 1.0208
 IR Inten    --     36.0817                 1.3337                45.2066

                     31                     32                     33
                      A                      A                      A
 Frequencies --   1261.6642              1276.5206              1323.8191
 Red. masses --      1.5185                 2.1934                 1.4157
 Frc consts  --      1.4241                 2.1058                 1.4617
 IR Inten    --     47.6995                26.1192                17.6318

                     34                     35                     36
                      A                      A                      A
 Frequencies --   1359.7888              1368.2194              1401.9057
 Red. masses --      1.2504                 1.7339                 1.5036
 Frc consts  --      1.3623                 1.9124                 1.7411
 IR Inten    --     18.9807                61.6431                 4.6575

                     37                     38                     39
                      A                      A                      A
 Frequencies --   1418.0077              1434.7071              1469.2136
 Red. masses --      1.6653                 1.4985                 1.1400
 Frc consts  --      1.9729                 1.8173                 1.4499
 IR Inten    --     17.3161                 6.4833                 5.5292

                     40                     41                     42
                      A                      A                      A
 Frequencies --   1493.3237              1690.3148              2998.8186
 Red. masses --      1.7108                 6.4698                 1.0840
 Frc consts  --      2.2478                10.8912                 5.7437
 IR Inten    --     11.0665                11.0900                63.2428

                     43                     44                     45
                      A                      A                      A
 Frequencies --   3052.5946              3098.9731              3131.2645
 Red. masses --      1.0604                 1.1046                 1.0543
 Frc consts  --      5.8218                 6.2503                 6.0903
 IR Inten    --     28.7651                15.3098                13.6511

                     46                     47                     48
                      A                      A                      A
 Frequencies --   3135.9128              3143.6753              3170.7063
 Red. masses --      1.0846                 1.0872                 1.0963
 Frc consts  --      6.2843                 6.3302                 6.4936
 IR Inten    --      9.3372                11.9739                29.5962

                     49                     50                     51
                      A                      A                      A
 Frequencies --   3225.9601              3772.3474              3825.8693
 Red. masses --      1.1172                 1.0655                 1.0665
 Frc consts  --      6.8500                 8.9332                 9.1979
 IR Inten    --      5.8824                30.0659                22.9532

 - Thermochemistry -
 -------------------
 Temperature   298.150 Kelvin.  Pressure   1.00000 Atm.
 Atom     1 has atomic number  8 and mass  15.99491

 Molecular mass:   126.06808 amu.
 Principal axes and moments of inertia in atomic units:
                           1         2         3
     Eigenvalues --   745.492941017.854071376.87033
           X            0.99973   0.02316  -0.00244
           Y           -0.02320   0.99961  -0.01529
           Z            0.00209   0.01534   0.99988
 This molecule is an asymmetric top.
 Rotational symmetry number  1.
 Warning -- assumption of classical behavior for rotation
           may cause significant error
 Rotational temperatures (Kelvin)      0.11618     0.08509     0.06291
 Rotational constants (GHZ):           2.42087     1.77308     1.31076
 Zero-point vibrational energy     419669.1 (Joules/Mol)
                                  100.30332 (Kcal/Mol)
 Warning -- explicit consideration of  12 degrees of freedom as
           vibrations may cause significant error
 Vibrational temperatures:    152.04   205.72   293.82   394.77   505.47
          (Kelvin)            541.63   556.45   609.83   701.37   719.39
                              835.10   858.72   989.35  1088.54  1154.35
                             1210.12  1275.53  1320.56  1354.22  1382.99
                             1397.19  1426.60  1461.55  1486.70  1528.50
                             1576.51  1587.31  1703.49  1717.01  1775.95
                             1815.25  1836.63  1904.68  1956.43  1968.56
                             2017.03  2040.19  2064.22  2113.87  2148.56
                             2431.98  4314.63  4392.00  4458.73  4505.19
                             4511.87  4523.04  4561.93  4641.43  5427.56
                             5504.57

 Zero-point correction=                           0.159844 (Hartree/Particle)
 Thermal correction to Energy=                    0.168068
 Thermal correction to Enthalpy=                  0.169012
 Thermal correction to Gibbs Free Energy=         0.127501
 Sum of electronic and zero-point Energies=           -423.017905
 Sum of electronic and thermal Energies=              -423.009681
 Sum of electronic and thermal Enthalpies=            -423.008737
 Sum of electronic and thermal Free Energies=         -423.050248

                     E (Thermal)             CV                S
                      KCal/Mol        Cal/Mol-Kelvin    Cal/Mol-Kelvin
 Total                  105.464             32.877             87.368
 Electronic               0.000              0.000              0.000
 Translational            0.889              2.981             40.409
 Rotational               0.889              2.981             28.437
 Vibrational            103.687             26.915             18.522
 Vibration     1          0.605              1.945              3.347
 Vibration     2          0.616              1.910              2.764
 Vibration     3          0.640              1.834              2.095
 Vibration     4          0.677              1.721              1.568
 Vibration     5          0.728              1.573              1.160
 Vibration     6          0.747              1.520              1.053
 Vibration     7          0.755              1.498              1.013
 Vibration     8          0.786              1.418              0.879
 Vibration     9          0.843              1.278              0.690
 Vibration    10          0.855              1.250              0.658
 Vibration    11          0.937              1.074              0.485
 Vibration    12          0.955              1.039              0.455

 Optimization completed.
    -- Stationary point found.
 Normal termination of Gaussian 09 at Tue Jan 28 03:13:49 2020.
