 Gaussian 09, Revision D.01,
 Gaussian 09:  ES64L-G09RevD.01 24-Apr-2013

 -----------------------------
 # b3lyp 6-31G(2df,p) opt Freq
 -----------------------------

 -----
 titel
 -----
 Symbolic Z-matrix:
 Charge =  0 Multiplicity = 1

 SCF Done:  E(RB3LYP) =  -423.201475221     A.U. after   14 cycles
 Optimization completed.
    -- Stationary point found.
 Normal termination of Gaussian 09 at Tue Jan 28 04:08:15 2020.

 ----------------------------------------------------------------------
 #N Geom=AllCheck Guess=TCheck SCRF=Check GenChk RB3LYP/6-31G(2df,p) Fr
 eq
 ----------------------------------------------------------------------

 Structure from the checkpoint file:  "/scratch/puck/g09_6860a0b4-936d-47c4-94e6-799abbad0f47/Gau-4210.chk"
 -----
 titel
 -----
 Charge =  0 Multiplicity = 1

                         Standard orientation:
 ---------------------------------------------------------------------
 Center     Atomic      Atomic             Coordinates (Angstroms)
 Number     Number       Type             X           Y           Z
 ---------------------------------------------------------------------
      1          6           0       -2.702743   -0.434899    0.279088
      2          6           0       -1.436347    0.149434   -0.338100
      3          6           0       -0.963638    1.520520    0.191554
      4          6           0        0.531973    1.599156   -0.191459
      5          6           0        1.007747    0.167778   -0.026966
      6          6           0        2.142526   -0.275186    0.805884
      7          8           0        2.231254   -0.268773   -0.612750
      8          6           0       -0.203263   -0.740954   -0.171874
      9          8           0       -0.179022   -1.944886   -0.137470
     10          1           0       -2.865640   -1.452210   -0.086087
     11          1           0       -2.618475   -0.481728    1.370066
     12          1           0       -3.579873    0.170722    0.033224
     13          1           0       -1.573093    0.235787   -1.428487
     14          1           0       -1.544792    2.352813   -0.212082
     15          1           0       -1.072419    1.545749    1.282860
     16          1           0        0.642916    1.892088   -1.242376
     17          1           0        1.095480    2.314788    0.411364
     18          1           0        2.736360    0.478592    1.321880
     19          1           0        2.104142   -1.262413    1.262633
 ---------------------------------------------------------------------

 SCF Done:  E(RB3LYP) =  -423.201475221     A.U. after    1 cycles

 The electronic state is 1-A.
 Alpha  occ. eigenvalues --  -19.16261 -19.13546 -10.26645 -10.24698 -10.24318
 Alpha  occ. eigenvalues --  -10.20143 -10.19834 -10.19783 -10.18242  -1.08583
 Alpha  occ. eigenvalues --   -1.04150  -0.84522  -0.75440  -0.68680  -0.66566
 Alpha  occ. eigenvalues --   -0.65676  -0.58666  -0.52962  -0.50705  -0.48348
 Alpha  occ. eigenvalues --   -0.46286  -0.44203  -0.43708  -0.42657  -0.39767
 Alpha  occ. eigenvalues --   -0.39487  -0.37625  -0.37242  -0.36714  -0.34592
 Alpha  occ. eigenvalues --   -0.33527  -0.30505  -0.28743  -0.23745
 Alpha virt. eigenvalues --   -0.03265   0.08426   0.09876   0.10935   0.11819
 Alpha virt. eigenvalues --    0.12451   0.13478   0.15025   0.16371   0.16792
 Alpha virt. eigenvalues --    0.17250   0.17757   0.19185   0.20754   0.22599

 Mulliken charges:
               1
     1  C   -0.405027
     2  C   -0.090315
     3  C   -0.236263
     4  C   -0.328820
     5  C    0.355928
     6  C   -0.233367
     7  O   -0.267648
     8  C    0.344275
     9  O   -0.324952
    10  H    0.140493
    11  H    0.119487
    12  H    0.115085
    13  H    0.110290
    14  H    0.109001
    15  H    0.107215
    16  H    0.120552
    17  H    0.110912
    18  H    0.117977
    19  H    0.135178
 Sum of Mulliken charges =   0.00000

 Dipole moment (field-independent basis, Debye):
    X=             -1.1238    Y=              2.9979    Z=              1.2689  Tot=              3.4439
 Quadrupole moment (field-independent basis, Debye-Ang):
   XX=            -53.2965   YY=            -57.4536   ZZ=            -51.4265
   XY=              0.2097   XZ=              4.6487   YZ=             -1.2123

  Exact polarizability:  88.243  -0.202  76.509   5.310  -1.799  62.542
 Approx polarizability: 114.080  -1.755 115.523   5.441  -2.064 100.758

                      1                      2                      3
                      A                      A                      A
 Frequencies --     57.9122               152.4120               194.6584
 Red. masses --      4.4556                 2.0979                 1.1015
 Frc consts  --      0.0088                 0.0287                 0.0246
 IR Inten    --      1.0014                 0.6563                 0.7352

                      4                      5                      6
                      A                      A                      A
 Frequencies --    224.5461               256.6369               274.8005
 Red. masses --      2.9846                 4.3366                 4.5946
 Frc consts  --      0.0887                 0.1683                 0.2044
 IR Inten    --      1.4084                 3.4619                 7.2938

                      7                      8                      9
                      A                      A                      A
 Frequencies --    345.2230               393.7503               460.0247
 Red. masses --      2.3566                 2.3552                 5.7577
 Frc consts  --      0.1655                 0.2151                 0.7179
 IR Inten    --      1.7924                 2.7512                 0.5788

                     10                     11                     12
                      A                      A                      A
 Frequencies --    509.3424               572.6237               678.4127
 Red. masses --      3.5553                 3.0969                 5.1661
 Frc consts  --      0.5434                 0.5983                 1.4009
 IR Inten    --      5.7481                 1.1508                 1.9075

                     13                     14                     15
                      A                      A                      A
 Frequencies --    732.2262               800.6634               866.7201
 Red. masses --      2.9264                 2.0080                 2.7039
 Frc consts  --      0.9244                 0.7584                 1.1968
 IR Inten    --      4.8478                12.1774                 9.6774

                     16                     17                     18
                      A                      A                      A
 Frequencies --    879.8327               907.1312               943.0701
 Red. masses --      2.5405                 2.2964                 1.5493
 Frc consts  --      1.1587                 1.1134                 0.8119
 IR Inten    --     21.8036                10.9277                 2.0131

                     19                     20                     21
                      A                      A                      A
 Frequencies --    969.9380               976.5643              1010.4543
 Red. masses --      2.3199                 1.4395                 2.7090
 Frc consts  --      1.2859                 0.8088                 1.6296
 IR Inten    --     15.7400                 6.2166                36.2707

                     22                     23                     24
                      A                      A                      A
 Frequencies --   1070.9235              1108.6312              1134.2643
 Red. masses --      1.6796                 2.0758                 1.3911
 Frc consts  --      1.1350                 1.5031                 1.0545
 IR Inten    --     12.5308                 7.3968                 1.3372

                     25                     26                     27
                      A                      A                      A
 Frequencies --   1141.3870              1170.8843              1184.7212
 Red. masses --      1.8659                 1.3313                 1.6027
 Frc consts  --      1.4322                 1.0754                 1.3253
 IR Inten    --      2.7297                 2.4461                 7.4076

                     28                     29                     30
                      A                      A                      A
 Frequencies --   1210.8108              1252.0213              1302.3634
 Red. masses --      1.7952                 2.2747                 1.4285
 Frc consts  --      1.5506                 2.1008                 1.4276
 IR Inten    --      7.9603                16.4355                 1.9959

                     31                     32                     33
                      A                      A                      A
 Frequencies --   1305.0445              1317.3545              1354.4342
 Red. masses --      1.5873                 1.2603                 1.7753
 Frc consts  --      1.5928                 1.2886                 1.9188
 IR Inten    --      2.7652                 1.0712                 5.9033

                     34                     35                     36
                      A                      A                      A
 Frequencies --   1406.2914              1413.4704              1487.1822
 Red. masses --      1.6429                 1.7769                 1.0941
 Frc consts  --      1.9143                 2.0916                 1.4257
 IR Inten    --      6.1737                11.4066                 4.7902

                     37                     38                     39
                      A                      A                      A
 Frequencies --   1494.7408              1497.9934              1502.4072
 Red. masses --      1.0538                 1.0499                 1.0940
 Frc consts  --      1.3872                 1.3880                 1.4549
 IR Inten    --      5.9503                 4.1149                 1.7737

                     40                     41                     42
                      A                      A                      A
 Frequencies --   1509.7799              1842.2329              2981.8987
 Red. masses --      1.3480                12.7073                 1.0800
 Frc consts  --      1.8104                25.4093                 5.6579
 IR Inten    --      6.5187               131.8478                 8.2666

                     43                     44                     45
                      A                      A                      A
 Frequencies --   3035.2785              3040.0620              3043.1217
 Red. masses --      1.0643                 1.0405                 1.0623
 Frc consts  --      5.7769                 5.6660                 5.7960
 IR Inten    --     11.6958                24.3582                32.6050

                     46                     47                     48
                      A                      A                      A
 Frequencies --   3082.3271              3099.1769              3104.9397
 Red. masses --      1.0495                 1.0957                 1.1015
 Frc consts  --      5.8748                 6.2006                 6.2569
 IR Inten    --     22.7356                20.3230                 2.4890

                     49                     50                     51
                      A                      A                      A
 Frequencies --   3107.2237              3123.9547              3181.1769
 Red. masses --      1.1013                 1.1014                 1.1200
 Frc consts  --      6.2644                 6.3330                 6.6781
 IR Inten    --     48.8832                11.6557                11.9112

 - Thermochemistry -
 -------------------
 Temperature   298.150 Kelvin.  Pressure   1.00000 Atm.
 Atom     1 has atomic number  6 and mass  12.00000

 Molecular mass:   126.06808 amu.
 Principal axes and moments of inertia in atomic units:
                           1         2         3
     Eigenvalues --   641.987391252.192221692.15378
           X            0.99990   0.00752   0.01181
           Y           -0.00737   0.99989  -0.01290
           Z           -0.01190   0.01281   0.99985
 This molecule is an asymmetric top.
 Rotational symmetry number  1.
 Warning -- assumption of classical behavior for rotation
           may cause significant error
 Rotational temperatures (Kelvin)      0.13492     0.06917     0.05119
 Rotational constants (GHZ):           2.81118     1.44127     1.06653
 Zero-point vibrational energy     416976.6 (Joules/Mol)
                                   99.65980 (Kcal/Mol)
 Warning -- explicit consideration of  11 degrees of freedom as
           vibrations may cause significant error
 Vibrational temperatures:     83.32   219.29   280.07   323.07   369.24
          (Kelvin)            395.38   496.70   566.52   661.87   732.83
                              823.88   976.08  1053.51  1151.97  1247.02
                             1265.88  1305.16  1356.87  1395.52  1405.06
                             1453.82  1540.82  1595.07  1631.95  1642.20
                             1684.64  1704.55  1742.08  1801.38  1873.81
                             1877.67  1895.38  1948.73  2023.34  2033.67
                             2139.72  2150.60  2155.28  2161.63  2172.23
                             2650.56  4290.28  4367.08  4373.97  4378.37
                             4434.78  4459.02  4467.31  4470.60  4494.67
                             4577.00

 Zero-point correction=                           0.158818 (Hartree/Particle)
 Thermal correction to Energy=                    0.167339
 Thermal correction to Enthalpy=                  0.168283
 Thermal correction to Gibbs Free Energy=         0.125532
 Sum of electronic and zero-point Energies=           -423.042657
 Sum of electronic and thermal Energies=              -423.034136
 Sum of electronic and thermal Enthalpies=            -423.033192
 Sum of electronic and thermal Free Energies=         -423.075943

                     E (Thermal)             CV                S
                      KCal/Mol        Cal/Mol-Kelvin    Cal/Mol-Kelvin
 Total                  105.007             32.213             89.977
 Electronic               0.000              0.000              0.000
 Translational            0.889              2.981             40.409
 Rotational               0.889              2.981             28.699
 Vibrational            103.229             26.252             20.869
 Vibration     1          0.596              1.974              4.527
 Vibration     2          0.619              1.900              2.642
 Vibration     3          0.635              1.847              2.183
 Vibration     4          0.649              1.804              1.922
 Vibration     5          0.666              1.752              1.685
 Vibration     6          0.677              1.720              1.566
 Vibration     7          0.724              1.585              1.188
 Vibration     8          0.761              1.484              0.986
 Vibration     9          0.818              1.339              0.766
 Vibration    10          0.864              1.229              0.635
 Vibration    11          0.929              1.090              0.499

 Normal termination of Gaussian 09 at Tue Jan 28 04:48:07 2020.
