 Gaussian 09, Revision D.01,
 Gaussian 09:  ES64L-G09RevD.01 24-Apr-2013

 -----------------------------
 # b3lyp 6-31G(2df,p) opt Freq
 -----------------------------

 -----
 titel
 -----
 Symbolic Z-matrix:
 Charge =  0 Multiplicity = 1

 SCF Done:  E(RB3LYP) =  -423.195066142     A.U. after   14 cycles
 Optimization completed.
    -- Stationary point found.
 Normal termination of Gaussian 09 at Mon Jan 27 16:15:25 2020.

 ----------------------------------------------------------------------
 #N Geom=AllCheck Guess=TCheck SCRF=Check GenChk RB3LYP/6-31G(2df,p) Fr
 eq
 ----------------------------------------------------------------------

 Structure from the checkpoint file:  "/scratch/puck/g09_bb36d249-d2c6-46da-a3f2-cea526767754/Gau-35340.chk"
 -----
 titel
 -----
 Charge =  0 Multiplicity = 1

                         Standard orientation:
 ---------------------------------------------------------------------
 Center     Atomic      Atomic             Coordinates (Angstroms)
 Number     Number       Type             X           Y           Z
 ---------------------------------------------------------------------
      1          6           0        1.692933   -0.829728   -1.000434
      2          6           0        0.705088   -0.393825    0.077093
      3          8           0        1.330554   -0.426906    1.357880
      4          6           0       -0.636149   -1.151026    0.130880
      5          6           0       -1.493519   -0.228422    1.045409
      6          6           0       -1.387081    0.765428   -0.167583
      7          6           0       -1.423832   -0.522389   -1.057833
      8          6           0        0.103257    1.027384   -0.147457
      9          8           0        0.725446    2.056169   -0.212124
     10          1           0        1.227968   -0.926896   -1.985106
     11          1           0        2.497197   -0.090953   -1.084196
     12          1           0        2.133326   -1.791886   -0.723296
     13          1           0        1.953177    0.310237    1.383297
     14          1           0       -0.584463   -2.228446    0.283582
     15          1           0       -2.516193   -0.591987    1.164371
     16          1           0       -1.071146    0.072262    2.003967
     17          1           0       -2.049722    1.616677   -0.307716
     18          1           0       -2.436709   -0.923043   -1.132411
     19          1           0       -0.965610   -0.484592   -2.048985
 ---------------------------------------------------------------------

 SCF Done:  E(RB3LYP) =  -423.195066142     A.U. after    1 cycles

 The electronic state is 1-A.
 Alpha  occ. eigenvalues --  -19.14212 -19.13591 -10.26418 -10.24116 -10.20485
 Alpha  occ. eigenvalues --  -10.20336 -10.20188 -10.19788 -10.18017  -1.05003
 Alpha  occ. eigenvalues --   -1.02059  -0.89691  -0.75289  -0.68107  -0.67561
 Alpha  occ. eigenvalues --   -0.65832  -0.55505  -0.54678  -0.50011  -0.48657
 Alpha  occ. eigenvalues --   -0.46950  -0.43940  -0.42275  -0.41630  -0.39199
 Alpha  occ. eigenvalues --   -0.38594  -0.38260  -0.35999  -0.35183  -0.33776
 Alpha  occ. eigenvalues --   -0.32626  -0.31875  -0.28659  -0.23047
 Alpha virt. eigenvalues --   -0.01292   0.07699   0.09857   0.11637   0.12084
 Alpha virt. eigenvalues --    0.13526   0.13611   0.14985   0.15945   0.17239
 Alpha virt. eigenvalues --    0.18151   0.18957   0.20271   0.20649   0.22145

 Mulliken charges:
               1
     1  C   -0.459441
     2  C    0.324063
     3  O   -0.486679
     4  C   -0.054423
     5  C   -0.238738
     6  C   -0.142036
     7  C   -0.250306
     8  C    0.400924
     9  O   -0.363307
    10  H    0.118773
    11  H    0.127889
    12  H    0.126433
    13  H    0.287533
    14  H    0.075594
    15  H    0.106592
    16  H    0.123279
    17  H    0.084040
    18  H    0.113616
    19  H    0.106193
 Sum of Mulliken charges =   0.00000

 Dipole moment (field-independent basis, Debye):
    X=             -1.2833    Y=             -1.5817    Z=             -0.6906  Tot=              2.1507
 Quadrupole moment (field-independent basis, Debye-Ang):
   XX=            -49.4027   YY=            -58.6722   ZZ=            -53.5146
   XY=             -0.4899   XZ=              0.1329   YZ=              2.7012

  Exact polarizability:  82.079   2.134  73.572  -0.631   0.703  68.446
 Approx polarizability: 114.422   8.582 116.516   1.474  -1.578 104.428

                      1                      2                      3
                      A                      A                      A
 Frequencies --    121.8008               190.7213               216.6939
 Red. masses --      4.9437                 1.5443                 1.6117
 Frc consts  --      0.0432                 0.0331                 0.0446
 IR Inten    --      5.8474                 1.7936                 0.9307

                      4                      5                      6
                      A                      A                      A
 Frequencies --    260.5342               273.2709               357.0491
 Red. masses --      2.9226                 3.1809                 1.7094
 Frc consts  --      0.1169                 0.1400                 0.1284
 IR Inten    --     11.7468                14.4304                73.7317

                      7                      8                      9
                      A                      A                      A
 Frequencies --    370.6550               478.9499               490.2422
 Red. masses --      2.0246                 2.2886                 3.0617
 Frc consts  --      0.1639                 0.3093                 0.4335
 IR Inten    --     10.0047                 0.8997                 2.5381

                     10                     11                     12
                      A                      A                      A
 Frequencies --    507.1352               588.9304               687.6510
 Red. masses --      3.2380                 3.9207                 3.5601
 Frc consts  --      0.4907                 0.8012                 0.9919
 IR Inten    --     11.2672                 3.5821                 1.8719

                     13                     14                     15
                      A                      A                      A
 Frequencies --    765.1936               794.3345               829.4798
 Red. masses --      4.0551                 3.6629                 2.5414
 Frc consts  --      1.3989                 1.3617                 1.0302
 IR Inten    --      6.1404                22.0153                 0.5000

                     16                     17                     18
                      A                      A                      A
 Frequencies --    862.8996               874.1278               892.8621
 Red. masses --      2.4886                 2.5593                 2.0525
 Frc consts  --      1.0917                 1.1522                 0.9641
 IR Inten    --      6.2231                 3.0739                 3.5512

                     19                     20                     21
                      A                      A                      A
 Frequencies --    958.9597               990.0220              1002.5838
 Red. masses --      1.8513                 1.7225                 2.3170
 Frc consts  --      1.0031                 0.9947                 1.3722
 IR Inten    --     14.9448                 7.4951                20.9052

                     22                     23                     24
                      A                      A                      A
 Frequencies --   1021.5010              1044.9030              1058.6965
 Red. masses --      1.8402                 1.2294                 1.3946
 Frc consts  --      1.1313                 0.7909                 0.9210
 IR Inten    --      3.8895                11.5382                 4.4225

                     25                     26                     27
                      A                      A                      A
 Frequencies --   1096.8404              1131.5885              1153.0498
 Red. masses --      1.1965                 1.5169                 2.2459
 Frc consts  --      0.8481                 1.1444                 1.7593
 IR Inten    --      6.4253                13.7329                14.9075

                     28                     29                     30
                      A                      A                      A
 Frequencies --   1163.6424              1211.9911              1225.1870
 Red. masses --      3.1632                 2.5942                 1.3665
 Frc consts  --      2.5236                 2.2452                 1.2085
 IR Inten    --     68.0056                 0.1767                 0.2169

                     31                     32                     33
                      A                      A                      A
 Frequencies --   1241.5672              1244.5375              1283.0815
 Red. masses --      1.6078                 1.6234                 1.7400
 Frc consts  --      1.4603                 1.4814                 1.6878
 IR Inten    --      4.7106                 5.2510                 3.9462

                     34                     35                     36
                      A                      A                      A
 Frequencies --   1329.5141              1377.2016              1402.7455
 Red. masses --      1.8270                 1.7565                 1.2472
 Frc consts  --      1.9027                 1.9628                 1.4459
 IR Inten    --     11.2108                27.1739                 7.7504

                     37                     38                     39
                      A                      A                      A
 Frequencies --   1482.8868              1490.0314              1494.5552
 Red. masses --      1.0807                 1.0693                 1.0688
 Frc consts  --      1.4001                 1.3987                 1.4066
 IR Inten    --      1.3908                 4.6354                 4.0181

                     40                     41                     42
                      A                      A                      A
 Frequencies --   1520.7913              1859.6440              3038.4412
 Red. masses --      1.1128                12.3206                 1.0353
 Frc consts  --      1.5164                25.1040                 5.6315
 IR Inten    --      2.9238               219.6663                14.8527

                     43                     44                     45
                      A                      A                      A
 Frequencies --   3066.1378              3078.5839              3107.7387
 Red. masses --      1.0571                 1.0579                 1.1006
 Frc consts  --      5.8552                 5.9075                 6.2630
 IR Inten    --     31.7175                22.4801                15.8671

                     46                     47                     48
                      A                      A                      A
 Frequencies --   3119.9773              3122.3769              3127.1270
 Red. masses --      1.1036                 1.0917                 1.1051
 Frc consts  --      6.3296                 6.2710                 6.3670
 IR Inten    --     20.4288                25.9942                28.4961

                     49                     50                     51
                      A                      A                      A
 Frequencies --   3146.3542              3149.0609              3783.0119
 Red. masses --      1.0912                 1.1089                 1.0659
 Frc consts  --      6.3644                 6.4791                 8.9878
 IR Inten    --     27.3571                14.0816                25.5406

 - Thermochemistry -
 -------------------
 Temperature   298.150 Kelvin.  Pressure   1.00000 Atm.
 Atom     1 has atomic number  6 and mass  12.00000

 Molecular mass:   126.06808 amu.
 Principal axes and moments of inertia in atomic units:
                           1         2         3
     Eigenvalues --   790.47393 998.218041161.63537
           X            0.99866  -0.03462  -0.03842
           Y            0.03801   0.99508   0.09146
           Z            0.03507  -0.09280   0.99507
 This molecule is an asymmetric top.
 Rotational symmetry number  1.
 Warning -- assumption of classical behavior for rotation
           may cause significant error
 Rotational temperatures (Kelvin)      0.10957     0.08677     0.07456
 Rotational constants (GHZ):           2.28311     1.80796     1.55362
 Zero-point vibrational energy     419212.5 (Joules/Mol)
                                  100.19420 (Kcal/Mol)
 Warning -- explicit consideration of  11 degrees of freedom as
           vibrations may cause significant error
 Vibrational temperatures:    175.24   274.41   311.77   374.85   393.18
          (Kelvin)            513.71   533.29   689.10   705.35   729.65
                              847.34   989.38  1100.94  1142.87  1193.43
                             1241.52  1257.67  1284.63  1379.73  1424.42
                             1442.49  1469.71  1503.38  1523.23  1578.11
                             1628.10  1658.98  1674.22  1743.78  1762.77
                             1786.34  1790.61  1846.07  1912.87  1981.48
                             2018.24  2133.54  2143.82  2150.33  2188.08
                             2675.61  4371.63  4411.48  4429.39  4471.34
                             4488.95  4492.40  4499.23  4526.90  4530.79
                             5442.90

 Zero-point correction=                           0.159670 (Hartree/Particle)
 Thermal correction to Energy=                    0.167733
 Thermal correction to Enthalpy=                  0.168677
 Thermal correction to Gibbs Free Energy=         0.127625
 Sum of electronic and zero-point Energies=           -423.035397
 Sum of electronic and thermal Energies=              -423.027333
 Sum of electronic and thermal Enthalpies=            -423.026389
 Sum of electronic and thermal Free Energies=         -423.067441

                     E (Thermal)             CV                S
                      KCal/Mol        Cal/Mol-Kelvin    Cal/Mol-Kelvin
 Total                  105.254             32.176             86.402
 Electronic               0.000              0.000              0.000
 Translational            0.889              2.981             40.409
 Rotational               0.889              2.981             28.307
 Vibrational            103.477             26.214             17.687
 Vibration     1          0.609              1.931              3.072
 Vibration     2          0.634              1.853              2.221
 Vibration     3          0.646              1.816              1.987
 Vibration     4          0.669              1.745              1.658
 Vibration     5          0.676              1.723              1.575
 Vibration     6          0.732              1.561              1.135
 Vibration     7          0.743              1.532              1.077
 Vibration     8          0.835              1.297              0.713
 Vibration     9          0.846              1.272              0.683
 Vibration    10          0.862              1.234              0.641
 Vibration    11          0.946              1.055              0.469

 Optimization completed.
    -- Stationary point found.
 Normal termination of Gaussian 09 at Mon Jan 27 17:11:47 2020.
