 Gaussian 09, Revision D.01,
 Gaussian 09:  ES64L-G09RevD.01 24-Apr-2013

 -----------------------------
 # b3lyp 6-31G(2df,p) opt Freq
 -----------------------------

 -----
 titel
 -----
 Symbolic Z-matrix:
 Charge =  0 Multiplicity = 1

 SCF Done:  E(RB3LYP) =  -423.170223939     A.U. after   14 cycles
 Optimization completed.
    -- Stationary point found.
 Normal termination of Gaussian 09 at Tue Jan 28 13:32:24 2020.

 ----------------------------------------------------------------------
 #N Geom=AllCheck Guess=TCheck SCRF=Check GenChk RB3LYP/6-31G(2df,p) Fr
 eq
 ----------------------------------------------------------------------

 Structure from the checkpoint file:  "/scratch/puck/g09_5f7bd2e3-defc-4d87-9500-84a7a094d641/Gau-119008.chk"
 -----
 titel
 -----
 Charge =  0 Multiplicity = 1

                         Standard orientation:
 ---------------------------------------------------------------------
 Center     Atomic      Atomic             Coordinates (Angstroms)
 Number     Number       Type             X           Y           Z
 ---------------------------------------------------------------------
      1          6           0       -3.246968   -0.511331   -0.338904
      2          6           0       -2.243185    0.472449    0.268782
      3          6           0       -0.849804    0.313131   -0.314726
      4          8           0       -0.297279   -1.008889   -0.026122
      5          6           0        0.745517   -0.450222    0.799148
      6          6           0        0.303192    1.004693    0.437294
      7          6           0        1.588593    1.211813   -0.408599
      8          6           0        2.029314   -0.225077   -0.040950
      9          8           0        2.992766   -0.886946   -0.283759
     10          1           0       -4.231955   -0.406815    0.124776
     11          1           0       -3.363418   -0.344355   -1.415360
     12          1           0       -2.906637   -1.540157   -0.193113
     13          1           0       -2.566719    1.508167    0.097848
     14          1           0       -2.189313    0.332448    1.355695
     15          1           0       -0.865935    0.493349   -1.398735
     16          1           0        0.811967   -0.908429    1.789446
     17          1           0        0.049830    1.765199    1.173136
     18          1           0        1.457339    1.423060   -1.473864
     19          1           0        2.280991    1.951469    0.006938
 ---------------------------------------------------------------------

 SCF Done:  E(RB3LYP) =  -423.170223939     A.U. after    1 cycles

 The electronic state is 1-A.
 Alpha  occ. eigenvalues --  -19.14904 -19.14449 -10.27295 -10.24394 -10.24363
 Alpha  occ. eigenvalues --  -10.20634 -10.20080 -10.19037 -10.17776  -1.05953
 Alpha  occ. eigenvalues --   -1.04449  -0.83061  -0.78861  -0.70130  -0.66994
 Alpha  occ. eigenvalues --   -0.61786  -0.58169  -0.52663  -0.50439  -0.49045
 Alpha  occ. eigenvalues --   -0.47085  -0.44604  -0.43083  -0.41972  -0.41065
 Alpha  occ. eigenvalues --   -0.39414  -0.38057  -0.36039  -0.35947  -0.34886
 Alpha  occ. eigenvalues --   -0.31683  -0.30392  -0.28452  -0.23371
 Alpha virt. eigenvalues --   -0.03426   0.08041   0.09339   0.09956   0.10792
 Alpha virt. eigenvalues --    0.12654   0.13654   0.14684   0.15754   0.16454
 Alpha virt. eigenvalues --    0.17236   0.17702   0.18242   0.19624   0.21622

 Mulliken charges:
               1
     1  C   -0.386078
     2  C   -0.195357
     3  C    0.156341
     4  O   -0.305297
     5  C   -0.002847
     6  C   -0.109144
     7  C   -0.382938
     8  C    0.409233
     9  O   -0.282570
    10  H    0.114755
    11  H    0.115682
    12  H    0.140461
    13  H    0.097711
    14  H    0.101260
    15  H    0.079228
    16  H    0.093535
    17  H    0.086988
    18  H    0.132136
    19  H    0.136901
 Sum of Mulliken charges =   0.00000

 Dipole moment (field-independent basis, Debye):
    X=             -2.0477    Y=              2.9488    Z=              0.8846  Tot=              3.6974
 Quadrupole moment (field-independent basis, Debye-Ang):
   XX=            -59.9821   YY=            -54.7919   ZZ=            -50.7941
   XY=              4.0005   XZ=              2.0314   YZ=             -1.2146

  Exact polarizability:  93.913  -1.387  70.431  -0.496  -2.513  65.132
 Approx polarizability: 120.090  -7.442 110.349  -0.966  -2.621  99.872

                      1                      2                      3
                      A                      A                      A
 Frequencies --     65.3082                98.8195               146.3448
 Red. masses --      5.5888                 2.9263                 2.4459
 Frc consts  --      0.0140                 0.0168                 0.0309
 IR Inten    --      1.2586                 1.2452                 0.3600

                      4                      5                      6
                      A                      A                      A
 Frequencies --    181.2592               238.3412               322.9781
 Red. masses --      2.7137                 1.2781                 2.6385
 Frc consts  --      0.0525                 0.0428                 0.1622
 IR Inten    --      1.4125                 1.6462                 3.3345

                      7                      8                      9
                      A                      A                      A
 Frequencies --    341.5262               428.5003               476.2904
 Red. masses --      3.8280                 4.3421                 2.7395
 Frc consts  --      0.2631                 0.4697                 0.3662
 IR Inten    --      0.2482                 3.3705                 2.3104

                     10                     11                     12
                      A                      A                      A
 Frequencies --    523.9600               638.2862               761.2067
 Red. masses --      2.0505                 4.2053                 1.6290
 Frc consts  --      0.3317                 1.0094                 0.5561
 IR Inten    --      5.8088                 0.0421                 0.1963

                     13                     14                     15
                      A                      A                      A
 Frequencies --    781.2424               823.7303               858.5948
 Red. masses --      1.9923                 2.1734                 2.1023
 Frc consts  --      0.7164                 0.8689                 0.9131
 IR Inten    --      2.7774                10.9698                 5.6765

                     16                     17                     18
                      A                      A                      A
 Frequencies --    869.6394               928.3069               953.3716
 Red. masses --      2.3102                 3.5028                 3.1820
 Frc consts  --      1.0294                 1.7785                 1.7040
 IR Inten    --      2.1194                39.9019                17.4694

                     19                     20                     21
                      A                      A                      A
 Frequencies --    970.1598              1004.4493              1033.8067
 Red. masses --      2.2321                 2.9275                 2.6710
 Frc consts  --      1.2378                 1.7402                 1.6819
 IR Inten    --     23.6984                29.6292                16.3610

                     22                     23                     24
                      A                      A                      A
 Frequencies --   1067.7041              1070.5081              1089.7490
 Red. masses --      2.8182                 2.0248                 1.8509
 Frc consts  --      1.8929                 1.3671                 1.2951
 IR Inten    --     23.2939                25.0609                11.5477

                     25                     26                     27
                      A                      A                      A
 Frequencies --   1111.1187              1156.6835              1171.3851
 Red. masses --      1.5839                 1.8781                 1.8184
 Frc consts  --      1.1521                 1.4804                 1.4701
 IR Inten    --      1.5139                 3.6275                 3.1048

                     28                     29                     30
                      A                      A                      A
 Frequencies --   1209.2940              1235.9950              1255.4801
 Red. masses --      1.6620                 1.5409                 1.5334
 Frc consts  --      1.4320                 1.3869                 1.4240
 IR Inten    --      3.8111                 4.3424                 0.9161

                     31                     32                     33
                      A                      A                      A
 Frequencies --   1276.2400              1285.5560              1322.3378
 Red. masses --      1.3294                 1.2819                 1.5226
 Frc consts  --      1.2757                 1.2482                 1.5686
 IR Inten    --      2.4320                 0.2721                 1.3808

                     34                     35                     36
                      A                      A                      A
 Frequencies --   1347.5771              1405.1649              1411.2023
 Red. masses --      1.3579                 1.4601                 1.2953
 Frc consts  --      1.4529                 1.6986                 1.5198
 IR Inten    --      6.2622                 5.3711                 5.9655

                     37                     38                     39
                      A                      A                      A
 Frequencies --   1436.9424              1476.0454              1498.1454
 Red. masses --      1.1098                 1.0775                 1.0440
 Frc consts  --      1.3501                 1.3831                 1.3805
 IR Inten    --      9.2362                 0.8660                 4.9710

                     40                     41                     42
                      A                      A                      A
 Frequencies --   1509.7891              1898.4239              3007.0707
 Red. masses --      1.0586                12.6954                 1.0844
 Frc consts  --      1.4217                26.9576                 5.7772
 IR Inten    --      4.7533               265.2816                31.8007

                     43                     44                     45
                      A                      A                      A
 Frequencies --   3018.2266              3038.4629              3053.1733
 Red. masses --      1.0600                 1.0376                 1.0591
 Frc consts  --      5.6895                 5.6442                 5.8171
 IR Inten    --     22.8130                24.2395                11.0465

                     46                     47                     48
                      A                      A                      A
 Frequencies --   3058.4032              3080.0698              3105.7193
 Red. masses --      1.0999                 1.0890                 1.1050
 Frc consts  --      6.0618                 6.0870                 6.2795
 IR Inten    --     27.8429                37.7024                 4.3491

                     49                     50                     51
                      A                      A                      A
 Frequencies --   3105.9798              3122.4978              3136.2520
 Red. masses --      1.1006                 1.1019                 1.0905
 Frc consts  --      6.2558                 6.3297                 6.3199
 IR Inten    --     34.8883                20.1770                19.5985

 - Thermochemistry -
 -------------------
 Temperature   298.150 Kelvin.  Pressure   1.00000 Atm.
 Atom     1 has atomic number  6 and mass  12.00000

 Molecular mass:   126.06808 amu.
 Principal axes and moments of inertia in atomic units:
                           1         2         3
     Eigenvalues --   403.281331837.223212030.54530
           X            0.99980   0.01939   0.00439
           Y           -0.01931   0.99966  -0.01752
           Z           -0.00473   0.01743   0.99984
 This molecule is an asymmetric top.
 Rotational symmetry number  1.
 Rotational temperatures (Kelvin)      0.21477     0.04714     0.04266
 Rotational constants (GHZ):           4.47514     0.98232     0.88880
 Zero-point vibrational energy     415148.0 (Joules/Mol)
                                   99.22274 (Kcal/Mol)
 Warning -- explicit consideration of  10 degrees of freedom as
           vibrations may cause significant error
 Vibrational temperatures:     93.96   142.18   210.56   260.79   342.92
          (Kelvin)            464.69   491.38   616.52   685.27   753.86
                              918.35  1095.21  1124.03  1185.16  1235.32
                             1251.22  1335.62  1371.69  1395.84  1445.18
                             1487.42  1536.19  1540.22  1567.90  1598.65
                             1664.21  1685.36  1739.90  1778.32  1806.35
                             1836.22  1849.63  1902.55  1938.86  2021.72
                             2030.40  2067.44  2123.70  2155.49  2172.25
                             2731.41  4326.50  4342.55  4371.66  4392.83
                             4400.35  4431.53  4468.43  4468.81  4492.57
                             4512.36

 Zero-point correction=                           0.158122 (Hartree/Particle)
 Thermal correction to Energy=                    0.166714
 Thermal correction to Enthalpy=                  0.167658
 Thermal correction to Gibbs Free Energy=         0.124395
 Sum of electronic and zero-point Energies=           -423.012102
 Sum of electronic and thermal Energies=              -423.003510
 Sum of electronic and thermal Enthalpies=            -423.002566
 Sum of electronic and thermal Free Energies=         -423.045829

                     E (Thermal)             CV                S
                      KCal/Mol        Cal/Mol-Kelvin    Cal/Mol-Kelvin
 Total                  104.615             31.963             91.055
 Electronic               0.000              0.000              0.000
 Translational            0.889              2.981             40.409
 Rotational               0.889              2.981             28.799
 Vibrational            102.837             26.001             21.847
 Vibration     1          0.597              1.971              4.290
 Vibration     2          0.604              1.950              3.477
 Vibration     3          0.617              1.907              2.719
 Vibration     4          0.630              1.865              2.315
 Vibration     5          0.656              1.782              1.815
 Vibration     6          0.708              1.629              1.295
 Vibration     7          0.721              1.592              1.205
 Vibration     8          0.790              1.408              0.864
 Vibration     9          0.833              1.303              0.720
 Vibration    10          0.879              1.197              0.601

 Optimization completed.
    -- Stationary point found.
 Normal termination of Gaussian 09 at Tue Jan 28 14:12:12 2020.
