 Gaussian 09, Revision D.01,
 Gaussian 09:  ES64L-G09RevD.01 24-Apr-2013

 -----------------------------
 # b3lyp 6-31G(2df,p) opt Freq
 -----------------------------

 -----
 titel
 -----
 Symbolic Z-matrix:
 Charge =  0 Multiplicity = 1

 SCF Done:  E(RB3LYP) =  -423.174424435     A.U. after   13 cycles
 SCF Done:  E(RB3LYP) =  -423.174424427     A.U. after    6 cycles
 SCF Done:  E(RB3LYP) =  -423.174424512     A.U. after    6 cycles
 Optimization completed.
    -- Stationary point found.
 Normal termination of Gaussian 09 at Tue Jan 28 12:02:52 2020.

 ----------------------------------------------------------------------
 #N Geom=AllCheck Guess=TCheck SCRF=Check GenChk RB3LYP/6-31G(2df,p) Fr
 eq
 ----------------------------------------------------------------------

 Structure from the checkpoint file:  "/scratch/puck/g09_b902678f-f825-4c23-83a5-a34d60a8ffa3/Gau-88766.chk"
 -----
 titel
 -----
 Charge =  0 Multiplicity = 1

                         Standard orientation:
 ---------------------------------------------------------------------
 Center     Atomic      Atomic             Coordinates (Angstroms)
 Number     Number       Type             X           Y           Z
 ---------------------------------------------------------------------
      1          8           0       -2.813823    0.192808   -0.537474
      2          6           0       -1.662246   -0.626902   -0.423933
      3          6           0       -0.767780   -0.238787    0.779477
      4          6           0        0.429641   -1.210584    0.915375
      5          6           0        1.628238   -0.840717    0.070238
      6          8           0        1.394749   -0.390535   -1.262031
      7          6           0        1.845858    0.574901   -0.276337
      8          6           0        0.857903    1.573920    0.195712
      9          6           0       -0.325837    1.200712    0.689511
     10          1           0       -2.530076    1.041401   -0.891190
     11          1           0       -2.032572   -1.647252   -0.270752
     12          1           0       -1.058279   -0.614627   -1.338696
     13          1           0       -1.400736   -0.343847    1.669242
     14          1           0        0.768318   -1.233676    1.958905
     15          1           0        0.105640   -2.230501    0.673263
     16          1           0        2.498976   -1.489232    0.178383
     17          1           0        2.859256    0.926780   -0.456769
     18          1           0        1.136679    2.622097    0.142636
     19          1           0       -1.029279    1.955413    1.030767
 ---------------------------------------------------------------------

 SCF Done:  E(RB3LYP) =  -423.174424512     A.U. after    1 cycles

 The electronic state is 1-A.
 Alpha  occ. eigenvalues --  -19.15093 -19.12975 -10.23911 -10.23855 -10.21958
 Alpha  occ. eigenvalues --  -10.19298 -10.19250 -10.19061 -10.18915  -1.06856
 Alpha  occ. eigenvalues --   -1.01082  -0.82376  -0.76117  -0.71452  -0.66154
 Alpha  occ. eigenvalues --   -0.60874  -0.60413  -0.53185  -0.50750  -0.49832
 Alpha  occ. eigenvalues --   -0.47121  -0.44561  -0.43135  -0.42015  -0.41593
 Alpha  occ. eigenvalues --   -0.39225  -0.37287  -0.35368  -0.33531  -0.32071
 Alpha  occ. eigenvalues --   -0.31084  -0.26994  -0.26763  -0.24217
 Alpha virt. eigenvalues --   -0.00786   0.08420   0.09425   0.11595   0.11755
 Alpha virt. eigenvalues --    0.13595   0.14080   0.15007   0.16027   0.16485
 Alpha virt. eigenvalues --    0.18119   0.18694   0.20108   0.21783   0.23307

 Mulliken charges:
               1
     1  O   -0.425965
     2  C   -0.075124
     3  C   -0.056500
     4  C   -0.280277
     5  C    0.060186
     6  O   -0.252285
     7  C    0.000871
     8  C   -0.047229
     9  C   -0.110934
    10  H    0.283924
    11  H    0.101717
    12  H    0.119128
    13  H    0.085556
    14  H    0.110376
    15  H    0.109077
    16  H    0.091306
    17  H    0.093018
    18  H    0.092232
    19  H    0.100924
 Sum of Mulliken charges =   0.00000

 Dipole moment (field-independent basis, Debye):
    X=              1.5919    Y=              0.6740    Z=              1.4660  Tot=              2.2667
 Quadrupole moment (field-independent basis, Debye-Ang):
   XX=            -57.1970   YY=            -48.0450   ZZ=            -55.4912
   XY=             -0.9154   XZ=              1.3140   YZ=             -2.4729

  Exact polarizability:  87.093   2.024  80.085  -5.186  -2.415  60.321
 Approx polarizability: 125.760   5.310 117.658 -11.796  -2.904  98.828

                      1                      2                      3
                      A                      A                      A
 Frequencies --     91.3344               140.3269               180.2356
 Red. masses --      4.0371                 3.4942                 2.7961
 Frc consts  --      0.0198                 0.0405                 0.0535
 IR Inten    --      3.2220                 2.0827                 2.5847

                      4                      5                      6
                      A                      A                      A
 Frequencies --    269.1410               324.4789               333.7352
 Red. masses --      3.4037                 1.2821                 2.4046
 Frc consts  --      0.1453                 0.0795                 0.1578
 IR Inten    --      4.5657               102.1867                10.1715

                      7                      8                      9
                      A                      A                      A
 Frequencies --    345.6427               444.9195               512.8676
 Red. masses --      2.5018                 3.6931                 5.2059
 Frc consts  --      0.1761                 0.4307                 0.8068
 IR Inten    --      7.2435                 1.3070                 3.1266

                     10                     11                     12
                      A                      A                      A
 Frequencies --    575.6435               660.4750               724.0264
 Red. masses --      3.2574                 4.1395                 2.6152
 Frc consts  --      0.6360                 1.0639                 0.8077
 IR Inten    --      1.1062                10.3415                12.5328

                     13                     14                     15
                      A                      A                      A
 Frequencies --    777.8547               798.2718               825.1661
 Red. masses --      2.2106                 2.9832                 2.4354
 Frc consts  --      0.7880                 1.1200                 0.9770
 IR Inten    --     14.3786                 7.0338                25.3262

                     16                     17                     18
                      A                      A                      A
 Frequencies --    876.5564               926.3366               948.2697
 Red. masses --      2.1533                 2.4218                 3.3912
 Frc consts  --      0.9748                 1.2244                 1.7967
 IR Inten    --      2.3916                 8.8551                 6.5370

                     19                     20                     21
                      A                      A                      A
 Frequencies --    961.9467               997.8030              1021.0372
 Red. masses --      3.2073                 1.2783                 1.9115
 Frc consts  --      1.7486                 0.7498                 1.1741
 IR Inten    --     27.5625                 0.1182                28.9803

                     22                     23                     24
                      A                      A                      A
 Frequencies --   1061.2431              1071.6327              1080.1427
 Red. masses --      1.4228                 3.5783                 2.3103
 Frc consts  --      0.9441                 2.4211                 1.5881
 IR Inten    --      1.6968                99.1333                17.7129

                     25                     26                     27
                      A                      A                      A
 Frequencies --   1109.1310              1147.5441              1190.0891
 Red. masses --      1.8423                 1.3073                 1.1108
 Frc consts  --      1.3353                 1.0143                 0.9269
 IR Inten    --      2.6215                 0.8302                 9.5095

                     28                     29                     30
                      A                      A                      A
 Frequencies --   1200.7971              1252.6934              1279.3067
 Red. masses --      1.1908                 1.2252                 1.3300
 Frc consts  --      1.0117                 1.1328                 1.2825
 IR Inten    --      3.9384                 1.8204                 4.2832

                     31                     32                     33
                      A                      A                      A
 Frequencies --   1298.0186              1344.3830              1358.9159
 Red. masses --      1.5204                 1.4524                 1.2481
 Frc consts  --      1.5092                 1.5467                 1.3580
 IR Inten    --      2.0645                 1.9284                 0.3204

                     34                     35                     36
                      A                      A                      A
 Frequencies --   1381.7251              1396.3760              1411.6617
 Red. masses --      1.3790                 1.3083                 1.2978
 Frc consts  --      1.5512                 1.5030                 1.5238
 IR Inten    --      5.9625                 9.9583                28.8486

                     37                     38                     39
                      A                      A                      A
 Frequencies --   1429.1291              1459.3303              1480.9341
 Red. masses --      1.5189                 2.5901                 1.1666
 Frc consts  --      1.8278                 3.2500                 1.5074
 IR Inten    --     12.5673                12.5284                 1.9383

                     40                     41                     42
                      A                      A                      A
 Frequencies --   1510.8118              1702.0232              3018.8479
 Red. masses --      1.0902                 6.4305                 1.0672
 Frc consts  --      1.4662                10.9756                 5.7305
 IR Inten    --      1.5581                 3.9732                 7.1707

                     43                     44                     45
                      A                      A                      A
 Frequencies --   3029.5521              3031.0379              3059.4737
 Red. masses --      1.0570                 1.0754                 1.1021
 Frc consts  --      5.7159                 5.8209                 6.0778
 IR Inten    --     36.0389                27.5191                22.9192

                     46                     47                     48
                      A                      A                      A
 Frequencies --   3083.4198              3098.1399              3134.8746
 Red. masses --      1.1083                 1.0875                 1.0888
 Frc consts  --      6.2085                 6.1500                 6.3042
 IR Inten    --     32.2862                38.5047                34.9119

                     49                     50                     51
                      A                      A                      A
 Frequencies --   3157.1194              3181.2106              3821.8418
 Red. masses --      1.0850                 1.0973                 1.0661
 Frc consts  --      6.3718                 6.5430                 9.1747
 IR Inten    --      9.2441                24.9204                16.8580

 - Thermochemistry -
 -------------------
 Temperature   298.150 Kelvin.  Pressure   1.00000 Atm.
 Atom     1 has atomic number  8 and mass  15.99491

 Molecular mass:   126.06808 amu.
 Principal axes and moments of inertia in atomic units:
                           1         2         3
     Eigenvalues --   635.873301363.878721516.39440
           X            0.99997   0.00318   0.00664
           Y           -0.00280   0.99835  -0.05740
           Z           -0.00681   0.05738   0.99833
 This molecule is an asymmetric top.
 Rotational symmetry number  1.
 Warning -- assumption of classical behavior for rotation
           may cause significant error
 Rotational temperatures (Kelvin)      0.13621     0.06351     0.05712
 Rotational constants (GHZ):           2.83821     1.32324     1.19015
 Zero-point vibrational energy     421788.2 (Joules/Mol)
                                  100.80979 (Kcal/Mol)
 Warning -- explicit consideration of  10 degrees of freedom as
           vibrations may cause significant error
 Vibrational temperatures:    131.41   201.90   259.32   387.23   466.85
          (Kelvin)            480.17   497.30   640.14   737.90   828.22
                              950.28  1041.71  1119.16  1148.53  1187.23
                             1261.17  1332.79  1364.35  1384.03  1435.61
                             1469.04  1526.89  1541.84  1554.08  1595.79
                             1651.06  1712.27  1727.68  1802.34  1840.63
                             1867.56  1934.26  1955.17  1987.99  2009.07
                             2031.06  2056.20  2099.65  2130.73  2173.72
                             2448.83  4343.44  4358.84  4360.98  4401.89
                             4436.35  4457.53  4510.38  4542.38  4577.05
                             5498.77

 Zero-point correction=                           0.160651 (Hartree/Particle)
 Thermal correction to Energy=                    0.168740
 Thermal correction to Enthalpy=                  0.169685
 Thermal correction to Gibbs Free Energy=         0.128027
 Sum of electronic and zero-point Energies=           -423.013774
 Sum of electronic and thermal Energies=              -423.005684
 Sum of electronic and thermal Enthalpies=            -423.004740
 Sum of electronic and thermal Free Energies=         -423.046397

                     E (Thermal)             CV                S
                      KCal/Mol        Cal/Mol-Kelvin    Cal/Mol-Kelvin
 Total                  105.886             31.426             87.676
 Electronic               0.000              0.000              0.000
 Translational            0.889              2.981             40.409
 Rotational               0.889              2.981             28.666
 Vibrational            104.109             25.464             18.601
 Vibration     1          0.602              1.955              3.631
 Vibration     2          0.615              1.913              2.799
 Vibration     3          0.629              1.867              2.326
 Vibration     4          0.674              1.730              1.602
 Vibration     5          0.709              1.627              1.287
 Vibration     6          0.715              1.608              1.242
 Vibration     7          0.724              1.584              1.186
 Vibration     8          0.804              1.372              0.811
 Vibration     9          0.868              1.221              0.627
 Vibration    10          0.932              1.084              0.494

 Optimization completed.
    -- Stationary point found.
 Normal termination of Gaussian 09 at Tue Jan 28 12:14:07 2020.
