 Gaussian 09, Revision D.01,
 Gaussian 09:  ES64L-G09RevD.01 24-Apr-2013

 -----------------------------
 # b3lyp 6-31G(2df,p) opt Freq
 -----------------------------

 -----
 titel
 -----
 Symbolic Z-matrix:
 Charge =  0 Multiplicity = 1

 SCF Done:  E(RB3LYP) =  -423.122777517     A.U. after   14 cycles
 SCF Done:  E(RB3LYP) =  -423.122777459     A.U. after    7 cycles
 SCF Done:  E(RB3LYP) =  -423.122777504     A.U. after    7 cycles
 SCF Done:  E(RB3LYP) =  -423.122777542     A.U. after    6 cycles
 Optimization completed.
    -- Stationary point found.
 Normal termination of Gaussian 09 at Tue Jan 28 08:30:32 2020.

 ----------------------------------------------------------------------
 #N Geom=AllCheck Guess=TCheck SCRF=Check GenChk RB3LYP/6-31G(2df,p) Fr
 eq
 ----------------------------------------------------------------------

 Structure from the checkpoint file:  "/scratch/puck/g09_13c1c8d0-5213-497a-bf50-cf258acf8578/Gau-14767.chk"
 -----
 titel
 -----
 Charge =  0 Multiplicity = 1

                         Standard orientation:
 ---------------------------------------------------------------------
 Center     Atomic      Atomic             Coordinates (Angstroms)
 Number     Number       Type             X           Y           Z
 ---------------------------------------------------------------------
      1          6           0       -3.493393   -0.281947    0.103670
      2          6           0       -2.098571   -0.558121   -0.461636
      3          6           0       -1.000038    0.262280    0.223204
      4          8           0       -1.210212    1.665474    0.108419
      5          6           0        0.372560   -0.105902   -0.307585
      6          8           0        0.903994   -1.360750    0.104727
      7          6           0        1.557577   -0.160963    0.569716
      8          6           0        2.882957    0.099936    0.078067
      9          6           0        3.995912    0.331011   -0.312330
     10          1           0       -4.257796   -0.843344   -0.441180
     11          1           0       -3.553077   -0.571726    1.158358
     12          1           0       -3.735423    0.782305    0.039090
     13          1           0       -1.843514   -1.619406   -0.360367
     14          1           0       -2.077638   -0.338777   -1.539996
     15          1           0       -1.017215    0.056766    1.300308
     16          1           0       -1.295770    1.876953   -0.828275
     17          1           0        0.544328    0.129185   -1.361241
     18          1           0        1.404850    0.039688    1.629562
     19          1           0        4.978986    0.532790   -0.660062
 ---------------------------------------------------------------------

 SCF Done:  E(RB3LYP) =  -423.122777542     A.U. after    1 cycles

 The electronic state is 1-A.
 Alpha  occ. eigenvalues --  -19.16301 -19.14580 -10.26288 -10.24593 -10.24112
 Alpha  occ. eigenvalues --  -10.19026 -10.18838 -10.18547 -10.17670  -1.08308
 Alpha  occ. eigenvalues --   -1.02718  -0.78699  -0.76888  -0.71634  -0.68223
 Alpha  occ. eigenvalues --   -0.62477  -0.60388  -0.54899  -0.51664  -0.50336
 Alpha  occ. eigenvalues --   -0.47652  -0.46313  -0.43014  -0.42303  -0.39744
 Alpha  occ. eigenvalues --   -0.37758  -0.37506  -0.34680  -0.34373  -0.32559
 Alpha  occ. eigenvalues --   -0.29679  -0.28285  -0.27316  -0.25839
 Alpha virt. eigenvalues --    0.01913   0.03694   0.06454   0.09953   0.11014
 Alpha virt. eigenvalues --    0.12078   0.13221   0.14223   0.15212   0.15687
 Alpha virt. eigenvalues --    0.16528   0.17254   0.18578   0.19376   0.22834

 Mulliken charges:
               1
     1  C   -0.384892
     2  C   -0.197073
     3  C    0.098297
     4  O   -0.425893
     5  C    0.043910
     6  O   -0.242829
     7  C   -0.167714
     8  C    0.318339
     9  C   -0.406301
    10  H    0.113627
    11  H    0.119292
    12  H    0.125955
    13  H    0.121784
    14  H    0.085740
    15  H    0.095025
    16  H    0.281696
    17  H    0.095821
    18  H    0.122119
    19  H    0.203098
 Sum of Mulliken charges =   0.00000

 Dipole moment (field-independent basis, Debye):
    X=             -0.4454    Y=              0.7653    Z=             -1.1299  Tot=              1.4355
 Quadrupole moment (field-independent basis, Debye-Ang):
   XX=            -47.8551   YY=            -58.4584   ZZ=            -50.0710
   XY=              3.5081   XZ=              0.6577   YZ=             -3.1609

  Exact polarizability: 114.784   5.881  61.019  -3.448  -2.280  63.950
 Approx polarizability: 146.472  10.657  97.443  -8.114  -4.869  99.661

                      1                      2                      3
                      A                      A                      A
 Frequencies --     52.7805                85.8325               101.0730
 Red. masses --      4.5323                 4.0901                 2.1135
 Frc consts  --      0.0074                 0.0178                 0.0127
 IR Inten    --      1.4003                 0.6722                 1.6801

                      4                      5                      6
                      A                      A                      A
 Frequencies --    143.2396               210.4199               222.1944
 Red. masses --      3.6902                 1.3169                 2.9225
 Frc consts  --      0.0446                 0.0344                 0.0850
 IR Inten    --      0.2861                 0.8236                 0.1836

                      7                      8                      9
                      A                      A                      A
 Frequencies --    263.6119               283.5275               293.6899
 Red. masses --      2.8531                 1.2589                 3.1946
 Frc consts  --      0.1168                 0.0596                 0.1623
 IR Inten    --      2.5367               124.7591                 1.9071

                     10                     11                     12
                      A                      A                      A
 Frequencies --    384.2057               458.7984               503.3674
 Red. masses --      3.8195                 5.3396                 2.6904
 Frc consts  --      0.3322                 0.6622                 0.4016
 IR Inten    --      5.5380                 7.6558                 2.9135

                     13                     14                     15
                      A                      A                      A
 Frequencies --    546.8345               577.9722               622.0694
 Red. masses --      5.9658                 5.0260                 1.2091
 Frc consts  --      1.0511                 0.9892                 0.2757
 IR Inten    --      2.7201                16.8338                43.9823

                     16                     17                     18
                      A                      A                      A
 Frequencies --    671.8551               779.1548               838.1848
 Red. masses --      1.2516                 1.3706                 5.6190
 Frc consts  --      0.3329                 0.4902                 2.3259
 IR Inten    --     34.3841                 1.2463                17.1759

                     19                     20                     21
                      A                      A                      A
 Frequencies --    876.2322               929.4664               985.2396
 Red. masses --      2.3772                 3.5674                 2.5258
 Frc consts  --      1.0754                 1.8158                 1.4446
 IR Inten    --     17.0056                46.7891                15.1217

                     22                     23                     24
                      A                      A                      A
 Frequencies --    992.6340              1049.5373              1070.0463
 Red. masses --      2.2884                 3.1823                 1.4839
 Frc consts  --      1.3285                 2.0653                 1.0011
 IR Inten    --     23.1125                 9.4658                21.8483

                     25                     26                     27
                      A                      A                      A
 Frequencies --   1100.0403              1113.5917              1141.4962
 Red. masses --      1.4755                 2.0483                 1.7019
 Frc consts  --      1.0520                 1.4965                 1.3065
 IR Inten    --     51.9183                 2.2086                 1.7704

                     28                     29                     30
                      A                      A                      A
 Frequencies --   1156.7733              1247.8466              1267.2754
 Red. masses --      2.4944                 1.3526                 1.5082
 Frc consts  --      1.9666                 1.2409                 1.4271
 IR Inten    --     14.6408                 8.8050                 5.5076

                     31                     32                     33
                      A                      A                      A
 Frequencies --   1282.0024              1334.4266              1361.9912
 Red. masses --      1.2363                 1.2815                 1.2714
 Frc consts  --      1.1971                 1.3445                 1.3896
 IR Inten    --     10.5757                 1.2891                 5.9942

                     34                     35                     36
                      A                      A                      A
 Frequencies --   1389.3709              1402.5126              1412.7708
 Red. masses --      1.4888                 1.2298                 1.2347
 Frc consts  --      1.6933                 1.4253                 1.4520
 IR Inten    --      4.9905                32.3487                17.3592

                     37                     38                     39
                      A                      A                      A
 Frequencies --   1473.4173              1483.3892              1496.1446
 Red. masses --      2.6074                 1.0893                 1.0455
 Frc consts  --      3.3350                 1.4123                 1.3788
 IR Inten    --      6.6830                 1.1939                 5.8122

                     40                     41                     42
                      A                      A                      A
 Frequencies --   1508.0300              2242.5148              2998.2064
 Red. masses --      1.0611                 5.9517                 1.0686
 Frc consts  --      1.4217                17.6345                 5.6596
 IR Inten    --      4.6743                 0.6067                20.4129

                     43                     44                     45
                      A                      A                      A
 Frequencies --   3039.2432              3045.3064              3065.9579
 Red. masses --      1.0377                 1.0818                 1.0922
 Frc consts  --      5.6474                 5.9112                 6.0492
 IR Inten    --     24.6109                16.1669                 9.1290

                     46                     47                     48
                      A                      A                      A
 Frequencies --   3082.2626              3105.6722              3117.9170
 Red. masses --      1.0884                 1.1008                 1.0858
 Frc consts  --      6.0925                 6.2556                 6.2189
 IR Inten    --     29.1326                35.5544                15.3638

                     49                     50                     51
                      A                      A                      A
 Frequencies --   3120.7883              3502.9940              3796.1064
 Red. masses --      1.1016                 1.1623                 1.0659
 Frc consts  --      6.3213                 8.4033                 9.0498
 IR Inten    --     23.4575                74.7303                15.6284

 - Thermochemistry -
 -------------------
 Temperature   298.150 Kelvin.  Pressure   1.00000 Atm.
 Atom     1 has atomic number  6 and mass  12.00000

 Molecular mass:   126.06808 amu.
 Principal axes and moments of inertia in atomic units:
                           1         2         3
     Eigenvalues --   396.192442404.240982647.99076
           X            0.99993   0.01173  -0.00082
           Y           -0.01175   0.99980  -0.01603
           Z            0.00063   0.01604   0.99987
 This molecule is an asymmetric top.
 Rotational symmetry number  1.
 Rotational temperatures (Kelvin)      0.21862     0.03603     0.03271
 Rotational constants (GHZ):           4.55521     0.75065     0.68155
 Zero-point vibrational energy     408106.1 (Joules/Mol)
                                   97.53970 (Kcal/Mol)
 Warning -- explicit consideration of  14 degrees of freedom as
           vibrations may cause significant error
 Vibrational temperatures:     75.94   123.49   145.42   206.09   302.75
          (Kelvin)            319.69   379.28   407.93   422.55   552.79
                              660.11   724.23   786.77   831.57   895.02
                              966.65  1121.03  1205.96  1260.70  1337.29
                             1417.54  1428.18  1510.05  1539.56  1582.71
                             1602.21  1642.36  1664.34  1795.37  1823.32
                             1844.51  1919.94  1959.60  1998.99  2017.90
                             2032.66  2119.92  2134.26  2152.62  2169.72
                             3226.47  4313.74  4372.79  4381.51  4411.22
                             4434.68  4468.36  4485.98  4490.11  5040.02
                             5461.74

 Zero-point correction=                           0.155439 (Hartree/Particle)
 Thermal correction to Energy=                    0.165684
 Thermal correction to Enthalpy=                  0.166628
 Thermal correction to Gibbs Free Energy=         0.119738
 Sum of electronic and zero-point Energies=           -422.967338
 Sum of electronic and thermal Energies=              -422.957093
 Sum of electronic and thermal Enthalpies=            -422.956149
 Sum of electronic and thermal Free Energies=         -423.003039

                     E (Thermal)             CV                S
                      KCal/Mol        Cal/Mol-Kelvin    Cal/Mol-Kelvin
 Total                  103.968             36.793             98.688
 Electronic               0.000              0.000              0.000
 Translational            0.889              2.981             40.409
 Rotational               0.889              2.981             29.313
 Vibrational            102.191             30.832             28.967
 Vibration     1          0.596              1.976              4.710
 Vibration     2          0.601              1.959              3.753
 Vibration     3          0.604              1.948              3.434
 Vibration     4          0.616              1.910              2.760
 Vibration     5          0.643              1.825              2.040
 Vibration     6          0.648              1.807              1.941
 Vibration     7          0.670              1.740              1.638
 Vibration     8          0.682              1.704              1.512
 Vibration     9          0.688              1.685              1.453
 Vibration    10          0.753              1.504              1.023
 Vibration    11          0.817              1.341              0.770
 Vibration    12          0.859              1.243              0.650
 Vibration    13          0.902              1.147              0.551
 Vibration    14          0.934              1.079              0.489

 Optimization completed.
    -- Stationary point found.
 Normal termination of Gaussian 09 at Tue Jan 28 09:08:24 2020.
