 Gaussian 09, Revision D.01,
 Gaussian 09:  ES64L-G09RevD.01 24-Apr-2013

 -----------------------------
 # b3lyp 6-31G(2df,p) opt Freq
 -----------------------------

 -----
 titel
 -----
 Symbolic Z-matrix:
 Charge =  0 Multiplicity = 1

 SCF Done:  E(RB3LYP) =  -423.125402242     A.U. after   12 cycles
 Optimization completed.
    -- Stationary point found.
 Normal termination of Gaussian 09 at Tue Jan 28 10:18:33 2020.

 ----------------------------------------------------------------------
 #N Geom=AllCheck Guess=TCheck SCRF=Check GenChk RB3LYP/6-31G(2df,p) Fr
 eq
 ----------------------------------------------------------------------

 Structure from the checkpoint file:  "/scratch/puck/g09_46139008-1690-47d0-b08c-23d70977926f/Gau-1034.chk"
 -----
 titel
 -----
 Charge =  0 Multiplicity = 1

                         Standard orientation:
 ---------------------------------------------------------------------
 Center     Atomic      Atomic             Coordinates (Angstroms)
 Number     Number       Type             X           Y           Z
 ---------------------------------------------------------------------
      1          8           0        2.513461   -0.233920   -0.641790
      2          6           0        1.731976   -0.605604    0.486015
      3          6           0        0.256751   -0.541944    0.212828
      4          6           0       -0.665741   -1.564922   -0.449953
      5          6           0       -1.833349   -0.679879    0.067979
      6          6           0       -1.697623    0.637516   -0.755423
      7          6           0       -0.403403    0.830504    0.022052
      8          8           0        0.431602    1.934783    0.040138
      9          6           0       -0.850968   -0.073080    1.151160
     10          1           0        2.290065    0.685269   -0.828612
     11          1           0        2.027892   -1.630099    0.736716
     12          1           0        1.968087    0.025505    1.356245
     13          1           0       -0.593381   -1.724139   -1.531748
     14          1           0       -0.619844   -2.527858    0.067952
     15          1           0       -2.816190   -1.096571    0.273515
     16          1           0       -1.657741    0.554232   -1.847581
     17          1           0       -2.455167    1.373009   -0.464342
     18          1           0       -0.044157    2.682631    0.417471
     19          1           0       -0.885932    0.035569    2.225653
 ---------------------------------------------------------------------

 SCF Done:  E(RB3LYP) =  -423.125402242     A.U. after    1 cycles

 The electronic state is 1-A.
 Alpha  occ. eigenvalues --  -19.16171 -19.11775 -10.24189 -10.21903 -10.19994
 Alpha  occ. eigenvalues --  -10.19108 -10.18802 -10.18526 -10.18086  -1.04600
 Alpha  occ. eigenvalues --   -0.99932  -0.92490  -0.73708  -0.70955  -0.66977
 Alpha  occ. eigenvalues --   -0.62246  -0.56199  -0.53486  -0.52253  -0.47290
 Alpha  occ. eigenvalues --   -0.45930  -0.45650  -0.43675  -0.41648  -0.40781
 Alpha  occ. eigenvalues --   -0.38399  -0.36366  -0.33052  -0.32777  -0.31430
 Alpha  occ. eigenvalues --   -0.30515  -0.26223  -0.25083  -0.23625
 Alpha virt. eigenvalues --    0.06424   0.09118   0.10453   0.12136   0.13784
 Alpha virt. eigenvalues --    0.13836   0.14234   0.15129   0.16066   0.16892
 Alpha virt. eigenvalues --    0.17616   0.17873   0.19054   0.21190   0.23840

 Mulliken charges:
               1
     1  O   -0.426355
     2  C   -0.186174
     3  C    0.290481
     4  C   -0.280391
     5  C   -0.070417
     6  C   -0.292781
     7  C    0.345518
     8  O   -0.473005
     9  C   -0.228090
    10  H    0.293251
    11  H    0.105190
    12  H    0.088697
    13  H    0.094622
    14  H    0.096349
    15  H    0.075381
    16  H    0.094573
    17  H    0.089574
    18  H    0.290214
    19  H    0.093364
 Sum of Mulliken charges =   0.00000

 Dipole moment (field-independent basis, Debye):
    X=             -2.4354    Y=              1.3412    Z=              1.3316  Tot=              3.0827
 Quadrupole moment (field-independent basis, Debye-Ang):
   XX=            -58.1781   YY=            -47.8983   ZZ=            -52.4330
   XY=              0.3211   XZ=              1.7609   YZ=              0.3459

  Exact polarizability:  79.097  -1.343  77.145   1.001  -0.182  68.012
 Approx polarizability: 109.244  -1.239 113.488  -3.723  -0.849 106.747

                      1                      2                      3
                      A                      A                      A
 Frequencies --     75.1636               141.0601               236.5125
 Red. masses --      3.8321                 4.6572                 2.5568
 Frc consts  --      0.0128                 0.0546                 0.0843
 IR Inten    --      1.6376                 0.2185                 6.4940

                      4                      5                      6
                      A                      A                      A
 Frequencies --    280.0000               323.9784               386.3253
 Red. masses --      1.6120                 1.6661                 2.7153
 Frc consts  --      0.0745                 0.1030                 0.2388
 IR Inten    --     19.9054                77.0735                15.1554

                      7                      8                      9
                      A                      A                      A
 Frequencies --    431.8905               433.9307               448.5654
 Red. masses --      2.1585                 2.1449                 1.6439
 Frc consts  --      0.2372                 0.2380                 0.1949
 IR Inten    --     28.1522                 7.6564                48.9267

                     10                     11                     12
                      A                      A                      A
 Frequencies --    459.6952               643.8889               683.1203
 Red. masses --      1.8792                 4.6126                 3.1913
 Frc consts  --      0.2340                 1.1267                 0.8774
 IR Inten    --     16.3879                 6.3434                 5.9576

                     13                     14                     15
                      A                      A                      A
 Frequencies --    716.3049               801.9915               807.0944
 Red. masses --      3.7470                 2.6466                 2.4901
 Frc consts  --      1.1327                 1.0030                 0.9557
 IR Inten    --      5.7294                 7.4240                 3.1679

                     16                     17                     18
                      A                      A                      A
 Frequencies --    874.4077               879.5190               895.5015
 Red. masses --      1.5200                 2.1526                 1.9674
 Frc consts  --      0.6847                 0.9811                 0.9296
 IR Inten    --      2.5651                 2.9844                 7.6581

                     19                     20                     21
                      A                      A                      A
 Frequencies --    936.4429               981.4924              1000.7963
 Red. masses --      2.0113                 1.5363                 2.7061
 Frc consts  --      1.0392                 0.8720                 1.5969
 IR Inten    --      3.7977                 7.5801                 4.3725

                     22                     23                     24
                      A                      A                      A
 Frequencies --   1039.7005              1065.7850              1076.0308
 Red. masses --      4.2180                 1.7243                 3.0931
 Frc consts  --      2.6864                 1.1540                 2.1101
 IR Inten    --     52.8906                 2.0827                46.8609

                     25                     26                     27
                      A                      A                      A
 Frequencies --   1099.2837              1108.0095              1134.7146
 Red. masses --      1.7081                 1.2345                 1.2578
 Frc consts  --      1.2161                 0.8930                 0.9542
 IR Inten    --      4.7656                11.0824                 6.7757

                     28                     29                     30
                      A                      A                      A
 Frequencies --   1153.8489              1207.6850              1222.7057
 Red. masses --      1.8437                 1.5441                 1.5286
 Frc consts  --      1.4462                 1.3269                 1.3464
 IR Inten    --      2.9235                15.6219                11.1972

                     31                     32                     33
                      A                      A                      A
 Frequencies --   1251.8333              1264.6859              1278.1509
 Red. masses --      1.6379                 1.9223                 2.1254
 Frc consts  --      1.5123                 1.8115                 2.0457
 IR Inten    --     30.0036                30.5463                48.6073

                     34                     35                     36
                      A                      A                      A
 Frequencies --   1292.3477              1363.0878              1392.7984
 Red. masses --      1.5095                 2.2536                 1.5343
 Frc consts  --      1.4854                 2.4670                 1.7536
 IR Inten    --     46.9599                23.8959                11.7812

                     37                     38                     39
                      A                      A                      A
 Frequencies --   1426.4618              1437.7492              1491.5276
 Red. masses --      1.5715                 2.1116                 1.0837
 Frc consts  --      1.8840                 2.5718                 1.4204
 IR Inten    --     57.5323                38.4101                 0.8717

                     40                     41                     42
                      A                      A                      A
 Frequencies --   1495.5449              1513.2545              2987.4890
 Red. masses --      1.1605                 1.1879                 1.0685
 Frc consts  --      1.5293                 1.6027                 5.6185
 IR Inten    --      2.5176                 2.8125                51.5095

                     43                     44                     45
                      A                      A                      A
 Frequencies --   3028.4056              3035.3049              3067.1920
 Red. masses --      1.0570                 1.0575                 1.0939
 Frc consts  --      5.7118                 5.7405                 6.0634
 IR Inten    --     51.2311                48.7697                32.4893

                     46                     47                     48
                      A                      A                      A
 Frequencies --   3084.3446              3090.7293              3144.8885
 Red. masses --      1.1072                 1.1071                 1.0915
 Frc consts  --      6.2056                 6.2312                 6.3602
 IR Inten    --     29.9931                33.8566                37.1158

                     49                     50                     51
                      A                      A                      A
 Frequencies --   3220.7490              3797.9795              3799.6263
 Red. masses --      1.0965                 1.0662                 1.0658
 Frc consts  --      6.7017                 9.0612                 9.0656
 IR Inten    --      5.1896                35.4611                17.3280

 - Thermochemistry -
 -------------------
 Temperature   298.150 Kelvin.  Pressure   1.00000 Atm.
 Atom     1 has atomic number  8 and mass  15.99491

 Molecular mass:   126.06808 amu.
 Principal axes and moments of inertia in atomic units:
                           1         2         3
     Eigenvalues --   676.963381117.513121440.94917
           X            0.99977  -0.00329   0.02114
           Y            0.00330   0.99999  -0.00044
           Z           -0.02114   0.00051   0.99978
 This molecule is an asymmetric top.
 Rotational symmetry number  1.
 Warning -- assumption of classical behavior for rotation
           may cause significant error
 Rotational temperatures (Kelvin)      0.12794     0.07751     0.06011
 Rotational constants (GHZ):           2.66594     1.61496     1.25247
 Zero-point vibrational energy     418750.4 (Joules/Mol)
                                  100.08374 (Kcal/Mol)
 Warning -- explicit consideration of  10 degrees of freedom as
           vibrations may cause significant error
 Vibrational temperatures:    108.14   202.95   340.29   402.86   466.13
          (Kelvin)            555.84   621.39   624.33   645.38   661.40
                              926.41   982.86  1030.60  1153.89  1161.23
                             1258.08  1265.43  1288.43  1347.33  1412.15
                             1439.92  1495.90  1533.42  1548.17  1581.62
                             1594.18  1632.60  1660.13  1737.59  1759.20
                             1801.11  1819.60  1838.97  1859.40  1961.18
                             2003.92  2052.36  2068.60  2145.97  2151.75
                             2177.23  4298.32  4357.19  4367.12  4413.00
                             4437.68  4446.86  4524.79  4633.93  5464.44
                             5466.81

 Zero-point correction=                           0.159494 (Hartree/Particle)
 Thermal correction to Energy=                    0.167630
 Thermal correction to Enthalpy=                  0.168574
 Thermal correction to Gibbs Free Energy=         0.126980
 Sum of electronic and zero-point Energies=           -422.965909
 Sum of electronic and thermal Energies=              -422.957772
 Sum of electronic and thermal Enthalpies=            -422.956828
 Sum of electronic and thermal Free Energies=         -422.998422

                     E (Thermal)             CV                S
                      KCal/Mol        Cal/Mol-Kelvin    Cal/Mol-Kelvin
 Total                  105.189             32.321             87.542
 Electronic               0.000              0.000              0.000
 Translational            0.889              2.981             40.409
 Rotational               0.889              2.981             28.479
 Vibrational            103.412             26.360             18.654
 Vibration     1          0.599              1.966              4.013
 Vibration     2          0.615              1.912              2.789
 Vibration     3          0.655              1.785              1.829
 Vibration     4          0.680              1.711              1.534
 Vibration     5          0.709              1.627              1.290
 Vibration     6          0.755              1.499              1.014
 Vibration     7          0.793              1.401              0.853
 Vibration     8          0.795              1.396              0.846
 Vibration     9          0.808              1.364              0.800
 Vibration    10          0.818              1.339              0.767

 Optimization completed.
    -- Stationary point found.
 Normal termination of Gaussian 09 at Tue Jan 28 12:22:40 2020.
