 Gaussian 09, Revision D.01,
 Gaussian 09:  ES64L-G09RevD.01 24-Apr-2013

 -----------------------------
 # b3lyp 6-31G(2df,p) opt Freq
 -----------------------------

 -----
 titel
 -----
 Symbolic Z-matrix:
 Charge =  0 Multiplicity = 1

 SCF Done:  E(RB3LYP) =  -423.149405033     A.U. after   13 cycles
 Optimization completed.
    -- Stationary point found.
 Normal termination of Gaussian 09 at Mon Jan 27 11:29:14 2020.

 ----------------------------------------------------------------------
 #N Geom=AllCheck Guess=TCheck SCRF=Check GenChk RB3LYP/6-31G(2df,p) Fr
 eq
 ----------------------------------------------------------------------

 Structure from the checkpoint file:  "/scratch/puck/g09_688ea12d-3afd-4f1d-927e-ce8ffc193b02/Gau-61265.chk"
 -----
 titel
 -----
 Charge =  0 Multiplicity = 1

                         Standard orientation:
 ---------------------------------------------------------------------
 Center     Atomic      Atomic             Coordinates (Angstroms)
 Number     Number       Type             X           Y           Z
 ---------------------------------------------------------------------
      1          6           0       -0.236418    1.875126    0.702057
      2          6           0        0.515439    1.236092   -0.456412
      3          8           0        1.754506    0.636159   -0.205083
      4          6           0        1.712046   -0.764186   -0.476815
      5          6           0        0.846297   -1.495486    0.557664
      6          6           0       -0.543229   -0.857286    0.691496
      7          6           0       -1.662609   -1.133423   -0.344759
      8          8           0       -1.878294    0.287925   -0.547299
      9          6           0       -0.670145    0.561334    0.153860
     10          1           0        0.237177    1.897166    1.678506
     11          1           0       -0.836791    2.745531    0.457883
     12          1           0        0.416984    1.702243   -1.436477
     13          1           0        1.342134   -0.938617   -1.498926
     14          1           0        2.746240   -1.115910   -0.429617
     15          1           0        0.764477   -2.558139    0.298931
     16          1           0        1.359951   -1.442807    1.523845
     17          1           0       -0.926398   -0.959757    1.710401
     18          1           0       -1.315972   -1.622440   -1.265250
     19          1           0       -2.565792   -1.632961    0.017213
 ---------------------------------------------------------------------

 SCF Done:  E(RB3LYP) =  -423.149405033     A.U. after    1 cycles

 The electronic state is 1-A.
 Alpha  occ. eigenvalues --  -19.14333 -19.13769 -10.23662 -10.23421 -10.23101
 Alpha  occ. eigenvalues --  -10.22661 -10.19898 -10.19011 -10.18534  -1.05021
 Alpha  occ. eigenvalues --   -1.03289  -0.84141  -0.79368  -0.71369  -0.64293
 Alpha  occ. eigenvalues --   -0.62811  -0.59394  -0.52926  -0.50822  -0.49396
 Alpha  occ. eigenvalues --   -0.47775  -0.46160  -0.44058  -0.41961  -0.41053
 Alpha  occ. eigenvalues --   -0.38963  -0.37191  -0.35575  -0.34631  -0.32655
 Alpha  occ. eigenvalues --   -0.30137  -0.29106  -0.25767  -0.22170
 Alpha virt. eigenvalues --    0.07258   0.08583   0.10457   0.10850   0.12434
 Alpha virt. eigenvalues --    0.13637   0.14199   0.15163   0.16648   0.17264
 Alpha virt. eigenvalues --    0.17797   0.18044   0.19129   0.20710   0.22998

 Mulliken charges:
               1
     1  C   -0.402137
     2  C    0.012424
     3  O   -0.255456
     4  C   -0.076981
     5  C   -0.236211
     6  C   -0.116620
     7  C   -0.102401
     8  O   -0.312197
     9  C    0.434208
    10  H    0.122729
    11  H    0.125985
    12  H    0.094863
    13  H    0.093965
    14  H    0.110053
    15  H    0.100265
    16  H    0.110777
    17  H    0.087098
    18  H    0.099880
    19  H    0.109754
 Sum of Mulliken charges =   0.00000

 Dipole moment (field-independent basis, Debye):
    X=              0.1974    Y=             -1.8114    Z=              0.5476  Tot=              1.9026
 Quadrupole moment (field-independent basis, Debye-Ang):
   XX=            -58.1718   YY=            -49.9413   ZZ=            -51.7997
   XY=             -0.7328   XZ=             -1.4719   YZ=              0.5340

  Exact polarizability:  75.260  -0.547  81.460  -0.678   2.280  66.397
 Approx polarizability: 107.015   0.329 112.585   0.509   3.424 100.750

                      1                      2                      3
                      A                      A                      A
 Frequencies --    134.6876               182.4783               253.7657
 Red. masses --      2.5792                 3.1036                 2.5436
 Frc consts  --      0.0276                 0.0609                 0.0965
 IR Inten    --      0.3205                 4.4145                 2.0082

                      4                      5                      6
                      A                      A                      A
 Frequencies --    352.2179               363.8650               423.4992
 Red. masses --      3.5410                 2.0295                 2.4302
 Frc consts  --      0.2588                 0.1583                 0.2568
 IR Inten    --      6.7795                 1.7858                 1.9552

                      7                      8                      9
                      A                      A                      A
 Frequencies --    473.6182               476.6766               569.3993
 Red. masses --      3.7454                 4.6916                 3.4467
 Frc consts  --      0.4950                 0.6281                 0.6584
 IR Inten    --      2.0448                 3.6206                 2.1910

                     10                     11                     12
                      A                      A                      A
 Frequencies --    646.8087               751.2004               803.1016
 Red. masses --      2.2946                 2.2571                 1.9725
 Frc consts  --      0.5656                 0.7504                 0.7496
 IR Inten    --      0.4595                 4.3986                 8.0837

                     13                     14                     15
                      A                      A                      A
 Frequencies --    857.1167               863.7767               901.2778
 Red. masses --      2.5954                 1.7367                 2.4265
 Frc consts  --      1.1234                 0.7634                 1.1613
 IR Inten    --     15.0188                 2.0812                12.8299

                     16                     17                     18
                      A                      A                      A
 Frequencies --    931.5604               976.1079               987.0554
 Red. masses --      2.0872                 2.9336                 2.4139
 Frc consts  --      1.0672                 1.6468                 1.3856
 IR Inten    --      1.7805                 3.3291                21.6834

                     19                     20                     21
                      A                      A                      A
 Frequencies --   1003.2645              1023.8055              1034.3128
 Red. masses --      2.8224                 2.0085                 1.9172
 Frc consts  --      1.6738                 1.2404                 1.2084
 IR Inten    --     56.5404                 3.0460                12.8761

                     22                     23                     24
                      A                      A                      A
 Frequencies --   1057.4234              1088.1811              1111.2298
 Red. masses --      2.7178                 1.7723                 1.8797
 Frc consts  --      1.7904                 1.2365                 1.3676
 IR Inten    --     44.8786                 9.2566                 4.6374

                     25                     26                     27
                      A                      A                      A
 Frequencies --   1135.2131              1154.6253              1165.7709
 Red. masses --      2.1620                 2.5664                 1.3399
 Frc consts  --      1.6416                 2.0158                 1.0728
 IR Inten    --      1.0807                59.0945                12.4094

                     28                     29                     30
                      A                      A                      A
 Frequencies --   1206.5787              1231.3791              1277.8451
 Red. masses --      2.0065                 1.3987                 1.3865
 Frc consts  --      1.7210                 1.2495                 1.3339
 IR Inten    --     34.8686                 8.1661                 5.7312

                     31                     32                     33
                      A                      A                      A
 Frequencies --   1286.3651              1320.4697              1331.0266
 Red. masses --      1.3936                 1.3827                 1.3637
 Frc consts  --      1.3587                 1.4204                 1.4235
 IR Inten    --     16.8811                 1.5686                 5.5508

                     34                     35                     36
                      A                      A                      A
 Frequencies --   1363.8011              1389.6056              1394.1893
 Red. masses --      1.4888                 1.4897                 1.5651
 Frc consts  --      1.6315                 1.6948                 1.7924
 IR Inten    --      0.7907                22.1078                 0.9422

                     37                     38                     39
                      A                      A                      A
 Frequencies --   1417.2473              1474.2643              1478.6750
 Red. masses --      1.3627                 1.8224                 1.1104
 Frc consts  --      1.6127                 2.3336                 1.4305
 IR Inten    --      1.2514                23.4099                 3.5191

                     40                     41                     42
                      A                      A                      A
 Frequencies --   1500.8981              1525.5923              2988.6308
 Red. masses --      1.0933                 1.1973                 1.0697
 Frc consts  --      1.4511                 1.6419                 5.6294
 IR Inten    --      1.4265                 3.8070                35.1692

                     43                     44                     45
                      A                      A                      A
 Frequencies --   3012.4767              3032.8436              3060.7876
 Red. masses --      1.0628                 1.0609                 1.0884
 Frc consts  --      5.6829                 5.7494                 6.0074
 IR Inten    --     62.4057                26.4713                13.0627

                     46                     47                     48
                      A                      A                      A
 Frequencies --   3075.0787              3087.6474              3093.8321
 Red. masses --      1.0998                 1.1008                 1.0962
 Frc consts  --      6.1277                 6.1831                 6.1821
 IR Inten    --     27.6926                67.7740                34.0461

                     49                     50                     51
                      A                      A                      A
 Frequencies --   3108.2976              3126.9730              3218.8905
 Red. masses --      1.0873                 1.0550                 1.1165
 Frc consts  --      6.1896                 6.0780                 6.8160
 IR Inten    --     25.7493                 5.2864                 3.1581

 - Thermochemistry -
 -------------------
 Temperature   298.150 Kelvin.  Pressure   1.00000 Atm.
 Atom     1 has atomic number  6 and mass  12.00000

 Molecular mass:   126.06808 amu.
 Principal axes and moments of inertia in atomic units:
                           1         2         3
     Eigenvalues --   726.97644 927.965271352.64413
           X            0.99922  -0.03855  -0.00821
           Y            0.03863   0.99920   0.01073
           Z            0.00779  -0.01103   0.99991
 This molecule is an asymmetric top.
 Rotational symmetry number  1.
 Warning -- assumption of classical behavior for rotation
           may cause significant error
 Rotational temperatures (Kelvin)      0.11914     0.09334     0.06403
 Rotational constants (GHZ):           2.48253     1.94484     1.33423
 Zero-point vibrational energy     423032.0 (Joules/Mol)
                                  101.10708 (Kcal/Mol)
 Warning -- explicit consideration of   9 degrees of freedom as
           vibrations may cause significant error
 Vibrational temperatures:    193.79   262.55   365.11   506.76   523.52
          (Kelvin)            609.32   681.43   685.83   819.24   930.61
                             1080.81  1155.48  1233.20  1242.78  1296.74
                             1340.31  1404.40  1420.15  1443.47  1473.03
                             1488.14  1521.39  1565.65  1598.81  1633.32
                             1661.25  1677.28  1736.00  1771.68  1838.53
                             1850.79  1899.86  1915.05  1962.20  1999.33
                             2005.92  2039.10  2121.13  2127.48  2159.45
                             2194.98  4299.97  4334.28  4363.58  4403.79
                             4424.35  4442.43  4451.33  4472.14  4499.01
                             4631.26

 Zero-point correction=                           0.161124 (Hartree/Particle)
 Thermal correction to Energy=                    0.168336
 Thermal correction to Enthalpy=                  0.169280
 Thermal correction to Gibbs Free Energy=         0.129735
 Sum of electronic and zero-point Energies=           -422.988281
 Sum of electronic and thermal Energies=              -422.981069
 Sum of electronic and thermal Enthalpies=            -422.980125
 Sum of electronic and thermal Free Energies=         -423.019670

                     E (Thermal)             CV                S
                      KCal/Mol        Cal/Mol-Kelvin    Cal/Mol-Kelvin
 Total                  105.632             29.302             83.229
 Electronic               0.000              0.000              0.000
 Translational            0.889              2.981             40.409
 Rotational               0.889              2.981             28.303
 Vibrational            103.855             23.341             14.518
 Vibration     1          0.613              1.919              2.878
 Vibration     2          0.630              1.864              2.303
 Vibration     3          0.665              1.756              1.704
 Vibration     4          0.729              1.571              1.156
 Vibration     5          0.737              1.547              1.106
 Vibration     6          0.786              1.419              0.880
 Vibration     7          0.830              1.309              0.727
 Vibration     8          0.833              1.302              0.719
 Vibration     9          0.925              1.097              0.505

 Optimization completed.
    -- Stationary point found.
 Normal termination of Gaussian 09 at Mon Jan 27 13:40:50 2020.
