 Gaussian 09, Revision D.01,
 Gaussian 09:  ES64L-G09RevD.01 24-Apr-2013

 -----------------------------
 # b3lyp 6-31G(2df,p) opt Freq
 -----------------------------

 -----
 titel
 -----
 Symbolic Z-matrix:
 Charge =  0 Multiplicity = 1

 SCF Done:  E(RB3LYP) =  -423.176743226     A.U. after   13 cycles
 Optimization completed.
    -- Stationary point found.
 Normal termination of Gaussian 09 at Mon Jan 27 22:07:12 2020.

 ----------------------------------------------------------------------
 #N Geom=AllCheck Guess=TCheck SCRF=Check GenChk RB3LYP/6-31G(2df,p) Fr
 eq
 ----------------------------------------------------------------------

 Structure from the checkpoint file:  "/scratch/puck/g09_6b25d8c1-f565-4b01-8b33-4403f6e61a7c/Gau-116806.chk"
 -----
 titel
 -----
 Charge =  0 Multiplicity = 1

                         Standard orientation:
 ---------------------------------------------------------------------
 Center     Atomic      Atomic             Coordinates (Angstroms)
 Number     Number       Type             X           Y           Z
 ---------------------------------------------------------------------
      1          6           0       -2.509943   -0.180666   -0.297256
      2          6           0       -1.019420   -0.233179   -0.640095
      3          6           0       -0.348745    1.132420   -0.534545
      4          6           0        0.288092    1.131886    0.848944
      5          8           0        0.000906   -0.090369    1.489569
      6          6           0       -0.183912   -1.013633    0.405329
      7          6           0        1.199532   -1.339709   -0.150636
      8          8           0        1.810080   -0.170437   -0.700995
      9          6           0        1.156369    1.026832   -0.375518
     10          1           0       -3.047375    0.484345   -0.980943
     11          1           0       -2.966735   -1.173552   -0.368342
     12          1           0       -2.656527    0.189647    0.721876
     13          1           0       -0.874846   -0.677123   -1.631715
     14          1           0       -0.814570    2.005149   -0.977998
     15          1           0        0.316833    1.972022    1.531817
     16          1           0       -0.674366   -1.905943    0.800920
     17          1           0        1.826509   -1.733738    0.660433
     18          1           0        1.141539   -2.093983   -0.946053
     19          1           0        1.769818    1.875915   -0.655930
 ---------------------------------------------------------------------

 SCF Done:  E(RB3LYP) =  -423.176743226     A.U. after    1 cycles

 The electronic state is 1-A.
 Alpha  occ. eigenvalues --  -19.14626 -19.14327 -10.23530 -10.23373 -10.23181
 Alpha  occ. eigenvalues --  -10.22796 -10.19620 -10.18513 -10.17692  -1.06571
 Alpha  occ. eigenvalues --   -1.01937  -0.84277  -0.79333  -0.71892  -0.65896
 Alpha  occ. eigenvalues --   -0.62729  -0.57553  -0.54056  -0.52832  -0.48168
 Alpha  occ. eigenvalues --   -0.47112  -0.46495  -0.43067  -0.41306  -0.39726
 Alpha  occ. eigenvalues --   -0.39275  -0.37722  -0.35873  -0.34311  -0.33832
 Alpha  occ. eigenvalues --   -0.32287  -0.31244  -0.23725  -0.21931
 Alpha virt. eigenvalues --    0.08036   0.10742   0.11300   0.12251   0.13315
 Alpha virt. eigenvalues --    0.14184   0.14814   0.15807   0.17023   0.17082
 Alpha virt. eigenvalues --    0.17290   0.17729   0.18819   0.19907   0.23526

 Mulliken charges:
               1
     1  C   -0.413797
     2  C    0.022638
     3  C   -0.161196
     4  C    0.046991
     5  O   -0.261496
     6  C    0.013999
     7  C   -0.065955
     8  O   -0.277384
     9  C    0.074918
    10  H    0.113861
    11  H    0.111187
    12  H    0.132501
    13  H    0.082513
    14  H    0.085233
    15  H    0.101955
    16  H    0.084557
    17  H    0.104690
    18  H    0.099512
    19  H    0.105273
 Sum of Mulliken charges =   0.00000

 Dipole moment (field-independent basis, Debye):
    X=             -1.1764    Y=              0.0967    Z=             -0.6177  Tot=              1.3322
 Quadrupole moment (field-independent basis, Debye-Ang):
   XX=            -55.7751   YY=            -47.0407   ZZ=            -56.4499
   XY=              0.8684   XZ=              1.9839   YZ=              0.3929

  Exact polarizability:  76.999   0.427  77.385   1.826   0.234  64.434
 Approx polarizability: 104.891   0.826 110.958   0.705   0.106 104.715

                      1                      2                      3
                      A                      A                      A
 Frequencies --    136.3881               208.5420               227.0530
 Red. masses --      3.8705                 2.0635                 1.2291
 Frc consts  --      0.0424                 0.0529                 0.0373
 IR Inten    --      2.2862                 4.1287                 0.5456

                      4                      5                      6
                      A                      A                      A
 Frequencies --    283.1871               382.6835               419.3074
 Red. masses --      2.4335                 2.8562                 5.7270
 Frc consts  --      0.1150                 0.2464                 0.5933
 IR Inten    --      0.7081                 1.2535                 1.8170

                      7                      8                      9
                      A                      A                      A
 Frequencies --    568.6010               604.5538               682.8461
 Red. masses --      3.9263                 4.9604                 6.6032
 Frc consts  --      0.7479                 1.0682                 1.8141
 IR Inten    --      2.9563                 0.3682                 9.1614

                     10                     11                     12
                      A                      A                      A
 Frequencies --    721.6812               747.5519               758.3227
 Red. masses --      3.6154                 2.7091                 1.9173
 Frc consts  --      1.1094                 0.8920                 0.6496
 IR Inten    --      1.2190                26.4824                11.0414

                     13                     14                     15
                      A                      A                      A
 Frequencies --    803.5826               872.1612               896.4970
 Red. masses --      2.3665                 2.9344                 2.4160
 Frc consts  --      0.9004                 1.3151                 1.1441
 IR Inten    --     12.7975                12.1997                21.1553

                     16                     17                     18
                      A                      A                      A
 Frequencies --    912.3637               956.5918               996.0523
 Red. masses --      2.9450                 2.5459                 1.5153
 Frc consts  --      1.4443                 1.3726                 0.8857
 IR Inten    --     16.9063                 7.6382                 0.1958

                     19                     20                     21
                      A                      A                      A
 Frequencies --   1018.8431              1030.8724              1052.0948
 Red. masses --      1.5231                 1.9837                 2.2876
 Frc consts  --      0.9315                 1.2421                 1.4919
 IR Inten    --      8.7738                 1.3137                21.6702

                     22                     23                     24
                      A                      A                      A
 Frequencies --   1071.9778              1090.0050              1117.0101
 Red. masses --      1.8453                 1.5160                 2.0424
 Frc consts  --      1.2493                 1.0612                 1.5014
 IR Inten    --      4.7669                 4.9170                 6.0673

                     25                     26                     27
                      A                      A                      A
 Frequencies --   1118.9371              1128.1181              1136.0798
 Red. masses --      3.4117                 1.5323                 2.4988
 Frc consts  --      2.5167                 1.1489                 1.9002
 IR Inten    --      8.5916                 4.0239                 0.9021

                     28                     29                     30
                      A                      A                      A
 Frequencies --   1211.1858              1232.3125              1262.5137
 Red. masses --      3.2804                 1.2291                 1.4022
 Frc consts  --      2.8353                 1.0997                 1.3169
 IR Inten    --    123.6042                 9.0579                 4.5964

                     31                     32                     33
                      A                      A                      A
 Frequencies --   1279.6506              1306.7262              1316.8780
 Red. masses --      1.5414                 1.3908                 1.3499
 Frc consts  --      1.4872                 1.3993                 1.3792
 IR Inten    --      5.8012                 1.3592                 3.0303

                     34                     35                     36
                      A                      A                      A
 Frequencies --   1358.2810              1376.1404              1401.2783
 Red. masses --      1.4060                 1.6830                 1.5277
 Frc consts  --      1.5283                 1.8778                 1.7674
 IR Inten    --      5.1342                 6.2521                 3.8771

                     37                     38                     39
                      A                      A                      A
 Frequencies --   1407.7049              1436.3055              1495.7153
 Red. masses --      1.2413                 2.0472                 1.0459
 Frc consts  --      1.4493                 2.4883                 1.3787
 IR Inten    --      1.1821                14.9421                 4.1528

                     40                     41                     42
                      A                      A                      A
 Frequencies --   1502.3573              1507.9362              3005.7435
 Red. masses --      1.0514                 1.0927                 1.0570
 Frc consts  --      1.3982                 1.4640                 5.6266
 IR Inten    --      2.4584                 1.0583                64.1892

                     43                     44                     45
                      A                      A                      A
 Frequencies --   3033.0728              3040.2649              3047.9875
 Red. masses --      1.0363                 1.0898                 1.1010
 Frc consts  --      5.6167                 5.9350                 6.0263
 IR Inten    --     27.8543                 2.3742                52.2506

                     46                     47                     48
                      A                      A                      A
 Frequencies --   3093.1325              3099.5799              3113.3231
 Red. masses --      1.0894                 1.1003                 1.1015
 Frc consts  --      6.1412                 6.2281                 6.2903
 IR Inten    --     19.7437                39.8626                23.0129

                     49                     50                     51
                      A                      A                      A
 Frequencies --   3168.8673              3174.5879              3191.8825
 Red. masses --      1.0897                 1.0905                 1.0951
 Frc consts  --      6.4472                 6.4750                 6.5735
 IR Inten    --      9.7888                14.5201                24.0846

 - Thermochemistry -
 -------------------
 Temperature   298.150 Kelvin.  Pressure   1.00000 Atm.
 Atom     1 has atomic number  6 and mass  12.00000

 Molecular mass:   126.06808 amu.
 Principal axes and moments of inertia in atomic units:
                           1         2         3
     Eigenvalues --   639.075491024.603521125.93426
           X            0.99970   0.00129   0.02461
           Y           -0.00159   0.99992   0.01250
           Z           -0.02460  -0.01253   0.99962
 This molecule is an asymmetric top.
 Rotational symmetry number  1.
 Warning -- assumption of classical behavior for rotation
           may cause significant error
 Rotational temperatures (Kelvin)      0.13553     0.08453     0.07693
 Rotational constants (GHZ):           2.82399     1.76140     1.60288
 Zero-point vibrational energy     424706.2 (Joules/Mol)
                                  101.50722 (Kcal/Mol)
 Warning -- explicit consideration of   8 degrees of freedom as
           vibrations may cause significant error
 Vibrational temperatures:    196.23   300.05   326.68   407.44   550.60
          (Kelvin)            603.29   818.09   869.82   982.46  1038.34
                             1075.56  1091.06  1156.17  1254.84  1289.86
                             1312.69  1376.32  1433.10  1465.89  1483.19
                             1513.73  1542.34  1568.27  1607.13  1609.90
                             1623.11  1634.56  1742.62  1773.02  1816.47
                             1841.13  1880.09  1894.69  1954.26  1979.96
                             2016.12  2025.37  2066.52  2152.00  2161.55
                             2169.58  4324.59  4363.91  4374.26  4385.37
                             4450.32  4459.60  4479.37  4559.29  4567.52
                             4592.40

 Zero-point correction=                           0.161762 (Hartree/Particle)
 Thermal correction to Energy=                    0.168830
 Thermal correction to Enthalpy=                  0.169774
 Thermal correction to Gibbs Free Energy=         0.130543
 Sum of electronic and zero-point Energies=           -423.014981
 Sum of electronic and thermal Energies=              -423.007914
 Sum of electronic and thermal Enthalpies=            -423.006969
 Sum of electronic and thermal Free Energies=         -423.046200

                     E (Thermal)             CV                S
                      KCal/Mol        Cal/Mol-Kelvin    Cal/Mol-Kelvin
 Total                  105.942             28.774             82.568
 Electronic               0.000              0.000              0.000
 Translational            0.889              2.981             40.409
 Rotational               0.889              2.981             28.091
 Vibrational            104.165             22.813             14.068
 Vibration     1          0.614              1.917              2.854
 Vibration     2          0.642              1.828              2.056
 Vibration     3          0.651              1.800              1.902
 Vibration     4          0.682              1.705              1.514
 Vibration     5          0.752              1.507              1.029
 Vibration     6          0.782              1.428              0.894
 Vibration     7          0.925              1.099              0.507
 Vibration     8          0.963              1.022              0.442

 Normal termination of Gaussian 09 at Mon Jan 27 23:06:22 2020.
