 Gaussian 09, Revision D.01,
 Gaussian 09:  ES64L-G09RevD.01 24-Apr-2013

 -----------------------------
 # b3lyp 6-31G(2df,p) opt Freq
 -----------------------------

 -----
 titel
 -----
 Symbolic Z-matrix:
 Charge =  0 Multiplicity = 1

 SCF Done:  E(RB3LYP) =  -423.154206316     A.U. after   13 cycles
 Optimization completed.
    -- Stationary point found.
 Normal termination of Gaussian 09 at Mon Jan 27 18:10:23 2020.

 ----------------------------------------------------------------------
 #N Geom=AllCheck Guess=TCheck SCRF=Check GenChk RB3LYP/6-31G(2df,p) Fr
 eq
 ----------------------------------------------------------------------

 Structure from the checkpoint file:  "/scratch/puck/g09_eaab98df-21a2-4275-b4e9-1da35e6d4398/Gau-181781.chk"
 -----
 titel
 -----
 Charge =  0 Multiplicity = 1

                         Standard orientation:
 ---------------------------------------------------------------------
 Center     Atomic      Atomic             Coordinates (Angstroms)
 Number     Number       Type             X           Y           Z
 ---------------------------------------------------------------------
      1          8           0        2.249577    0.595889   -0.391174
      2          6           0        0.923900    0.255858   -0.064664
      3          6           0        0.733623   -0.611467    1.227604
      4          6           0       -0.101694   -1.614381    0.423986
      5          6           0       -1.141102   -0.977999   -0.466395
      6          8           0       -1.950859    0.133042   -0.217123
      7          6           0       -1.333179    1.266207    0.380779
      8          6           0        0.090314    1.530849   -0.119800
      9          6           0        0.283916   -0.886913   -0.892131
     10          1           0        2.762204   -0.217801   -0.451137
     11          1           0        1.700192   -1.046412    1.500560
     12          1           0        0.297032   -0.157901    2.122424
     13          1           0       -0.134103   -2.679858    0.624966
     14          1           0       -1.737463   -1.707937   -1.005830
     15          1           0       -1.985565    2.113566    0.150475
     16          1           0       -1.326668    1.148432    1.473590
     17          1           0        0.078175    1.896352   -1.152584
     18          1           0        0.551238    2.305674    0.502688
     19          1           0        0.670557   -1.258488   -1.835050
 ---------------------------------------------------------------------

 SCF Done:  E(RB3LYP) =  -423.154206316     A.U. after    1 cycles

 The electronic state is 1-A.
 Alpha  occ. eigenvalues --  -19.14016 -19.13951 -10.24222 -10.23709 -10.22700
 Alpha  occ. eigenvalues --  -10.19453 -10.18620 -10.18531 -10.17875  -1.03674
 Alpha  occ. eigenvalues --   -1.02434  -0.88371  -0.77981  -0.70408  -0.66783
 Alpha  occ. eigenvalues --   -0.62613  -0.55699  -0.53800  -0.53072  -0.48626
 Alpha  occ. eigenvalues --   -0.47119  -0.44749  -0.44056  -0.42268  -0.40369
 Alpha  occ. eigenvalues --   -0.38300  -0.36772  -0.35216  -0.33064  -0.32886
 Alpha  occ. eigenvalues --   -0.30797  -0.27391  -0.24959  -0.23118
 Alpha virt. eigenvalues --    0.07602   0.09092   0.09734   0.11013   0.12857
 Alpha virt. eigenvalues --    0.13339   0.15505   0.15756   0.16335   0.17317
 Alpha virt. eigenvalues --    0.17436   0.19557   0.20241   0.22326   0.23724

 Mulliken charges:
               1
     1  O   -0.493646
     2  C    0.414171
     3  C   -0.305198
     4  C   -0.119792
     5  C    0.139931
     6  O   -0.265476
     7  C   -0.082164
     8  C   -0.247269
     9  C   -0.205204
    10  H    0.274675
    11  H    0.094064
    12  H    0.097808
    13  H    0.084812
    14  H    0.105864
    15  H    0.106941
    16  H    0.098296
    17  H    0.110652
    18  H    0.107134
    19  H    0.084401
 Sum of Mulliken charges =   0.00000

 Dipole moment (field-independent basis, Debye):
    X=              0.9195    Y=             -1.1524    Z=              0.2934  Tot=              1.5032
 Quadrupole moment (field-independent basis, Debye-Ang):
   XX=            -56.4119   YY=            -50.1439   ZZ=            -52.5049
   XY=             -4.2851   XZ=             -0.1560   YZ=              1.9626

  Exact polarizability:  75.427  -1.876  77.772   0.509   0.811  67.916
 Approx polarizability: 111.103  -0.938 109.489  -0.157  -0.523 105.994

                      1                      2                      3
                      A                      A                      A
 Frequencies --    155.4124               264.4851               303.9242
 Red. masses --      3.7566                 1.8362                 2.0444
 Frc consts  --      0.0535                 0.0757                 0.1113
 IR Inten    --      3.7470                 9.7778                13.3133

                      4                      5                      6
                      A                      A                      A
 Frequencies --    323.4893               371.5439               412.3501
 Red. masses --      1.4144                 4.2512                 2.9779
 Frc consts  --      0.0872                 0.3458                 0.2983
 IR Inten    --     60.6885                 3.8784                 6.9406

                      7                      8                      9
                      A                      A                      A
 Frequencies --    424.4326               531.2248               541.7319
 Red. masses --      4.4045                 3.5665                 2.4635
 Frc consts  --      0.4675                 0.5930                 0.4260
 IR Inten    --      2.7559                 3.0820                 3.6966

                     10                     11                     12
                      A                      A                      A
 Frequencies --    627.4026               686.2442               736.8661
 Red. masses --      5.1161                 2.6959                 1.9889
 Frc consts  --      1.1865                 0.7480                 0.6363
 IR Inten    --      8.7579                10.0192                 0.1655

                     13                     14                     15
                      A                      A                      A
 Frequencies --    772.9581               845.4512               854.3506
 Red. masses --      2.2995                 2.7237                 2.6301
 Frc consts  --      0.8095                 1.1471                 1.1311
 IR Inten    --      2.7153                10.4356                16.7813

                     16                     17                     18
                      A                      A                      A
 Frequencies --    910.9273               930.8922               948.0894
 Red. masses --      2.2068                 1.7449                 1.8626
 Frc consts  --      1.0789                 0.8909                 0.9864
 IR Inten    --      3.1873                 8.1837                17.7034

                     19                     20                     21
                      A                      A                      A
 Frequencies --    976.8886               995.8737              1006.8488
 Red. masses --      1.3814                 1.9262                 2.0868
 Frc consts  --      0.7767                 1.1256                 1.2464
 IR Inten    --      0.4035                26.2192                 6.3071

                     22                     23                     24
                      A                      A                      A
 Frequencies --   1044.6407              1075.6328              1083.2723
 Red. masses --      2.0232                 1.3486                 2.2159
 Frc consts  --      1.3008                 0.9193                 1.5321
 IR Inten    --      3.4840                 1.7087                41.7693

                     25                     26                     27
                      A                      A                      A
 Frequencies --   1103.1382              1129.6290              1159.2699
 Red. masses --      2.3825                 2.0616                 1.3903
 Frc consts  --      1.7082                 1.5500                 1.1008
 IR Inten    --     26.8716                19.8837                 8.9314

                     28                     29                     30
                      A                      A                      A
 Frequencies --   1184.8505              1222.2276              1229.8170
 Red. masses --      2.8933                 1.9577                 1.8056
 Frc consts  --      2.3932                 1.7231                 1.6089
 IR Inten    --     59.7136                43.9624                22.3851

                     31                     32                     33
                      A                      A                      A
 Frequencies --   1249.1691              1275.7623              1304.0798
 Red. masses --      1.6831                 1.3639                 1.6139
 Frc consts  --      1.5474                 1.3079                 1.6171
 IR Inten    --     43.3238                 3.5484                19.2699

                     34                     35                     36
                      A                      A                      A
 Frequencies --   1341.1064              1362.3938              1381.1907
 Red. masses --      1.6018                 1.7567                 1.4244
 Frc consts  --      1.6974                 1.9211                 1.6010
 IR Inten    --     16.1850                76.0801                 1.0538

                     37                     38                     39
                      A                      A                      A
 Frequencies --   1417.2739              1445.8735              1479.8084
 Red. masses --      1.5755                 1.7010                 1.1014
 Frc consts  --      1.8646                 2.0951                 1.4211
 IR Inten    --     27.8735                24.3808                 1.3214

                     40                     41                     42
                      A                      A                      A
 Frequencies --   1494.2108              1523.4201              3003.4483
 Red. masses --      1.1298                 1.0906                 1.0697
 Frc consts  --      1.4862                 1.4912                 5.6852
 IR Inten    --      7.4049                 2.0201                36.8816

                     43                     44                     45
                      A                      A                      A
 Frequencies --   3040.0490              3045.2388              3078.1986
 Red. masses --      1.0589                 1.0581                 1.0927
 Frc consts  --      5.7660                 5.7813                 6.1001
 IR Inten    --     21.5015                42.7732                46.1593

                     46                     47                     48
                      A                      A                      A
 Frequencies --   3088.3272              3093.0051              3156.9822
 Red. masses --      1.1053                 1.1068                 1.0885
 Frc consts  --      6.2111                 6.2387                 6.3917
 IR Inten    --     22.9816                34.9769                 5.9301

                     49                     50                     51
                      A                      A                      A
 Frequencies --   3161.0582              3174.7542              3798.9409
 Red. masses --      1.0883                 1.0966                 1.0658
 Frc consts  --      6.4069                 6.5118                 9.0626
 IR Inten    --     24.2650                25.2668                11.2138

 - Thermochemistry -
 -------------------
 Temperature   298.150 Kelvin.  Pressure   1.00000 Atm.
 Atom     1 has atomic number  8 and mass  15.99491

 Molecular mass:   126.06808 amu.
 Principal axes and moments of inertia in atomic units:
                           1         2         3
     Eigenvalues --   683.81652 965.199051269.51209
           X            0.99857  -0.05349   0.00144
           Y            0.05346   0.99841   0.01774
           Z           -0.00239  -0.01764   0.99984
 This molecule is an asymmetric top.
 Rotational symmetry number  1.
 Warning -- assumption of classical behavior for rotation
           may cause significant error
 Rotational temperatures (Kelvin)      0.12666     0.08974     0.06823
 Rotational constants (GHZ):           2.63922     1.86981     1.42160
 Zero-point vibrational energy     423287.6 (Joules/Mol)
                                  101.16816 (Kcal/Mol)
 Warning -- explicit consideration of   9 degrees of freedom as
           vibrations may cause significant error
 Vibrational temperatures:    223.60   380.53   437.28   465.43   534.57
          (Kelvin)            593.28   610.66   764.31   779.43   902.69
                              987.35  1060.18  1112.11  1216.41  1229.22
                             1310.62  1339.34  1364.09  1405.52  1432.84
                             1448.63  1503.00  1547.59  1558.59  1587.17
                             1625.28  1667.93  1704.73  1758.51  1769.43
                             1797.27  1835.54  1876.28  1929.55  1960.18
                             1987.22  2039.14  2080.29  2129.11  2149.83
                             2191.86  4321.29  4373.95  4381.41  4428.84
                             4443.41  4450.14  4542.19  4548.05  4567.76
                             5465.82

 Zero-point correction=                           0.161222 (Hartree/Particle)
 Thermal correction to Energy=                    0.168409
 Thermal correction to Enthalpy=                  0.169353
 Thermal correction to Gibbs Free Energy=         0.130150
 Sum of electronic and zero-point Energies=           -422.992985
 Sum of electronic and thermal Energies=              -422.985797
 Sum of electronic and thermal Enthalpies=            -422.984853
 Sum of electronic and thermal Free Energies=         -423.024056

                     E (Thermal)             CV                S
                      KCal/Mol        Cal/Mol-Kelvin    Cal/Mol-Kelvin
 Total                  105.678             30.134             82.510
 Electronic               0.000              0.000              0.000
 Translational            0.889              2.981             40.409
 Rotational               0.889              2.981             28.218
 Vibrational            103.901             24.172             13.884
 Vibration     1          0.620              1.897              2.605
 Vibration     2          0.671              1.738              1.632
 Vibration     3          0.695              1.666              1.395
 Vibration     4          0.708              1.628              1.292
 Vibration     5          0.743              1.531              1.073
 Vibration     6          0.776              1.443              0.918
 Vibration     7          0.786              1.417              0.877
 Vibration     8          0.886              1.181              0.584
 Vibration     9          0.897              1.158              0.562

 Normal termination of Gaussian 09 at Mon Jan 27 18:58:01 2020.
