 Gaussian 09, Revision D.01,
 Gaussian 09:  ES64L-G09RevD.01 24-Apr-2013

 -----------------------------
 # b3lyp 6-31G(2df,p) opt Freq
 -----------------------------

 -----
 titel
 -----
 Symbolic Z-matrix:
 Charge =  0 Multiplicity = 1

 SCF Done:  E(RB3LYP) =  -423.146093704     A.U. after   14 cycles
 Optimization completed.
    -- Stationary point found.
 Normal termination of Gaussian 09 at Mon Jan 27 23:03:44 2020.

 ----------------------------------------------------------------------
 #N Geom=AllCheck Guess=TCheck SCRF=Check GenChk RB3LYP/6-31G(2df,p) Fr
 eq
 ----------------------------------------------------------------------

 Structure from the checkpoint file:  "/scratch/puck/g09_a59583c3-a988-4d98-9c98-995618d5e8cc/Gau-195642.chk"
 -----
 titel
 -----
 Charge =  0 Multiplicity = 1

                         Standard orientation:
 ---------------------------------------------------------------------
 Center     Atomic      Atomic             Coordinates (Angstroms)
 Number     Number       Type             X           Y           Z
 ---------------------------------------------------------------------
      1          8           0       -1.366619    1.787780    0.052097
      2          6           0       -1.446180    0.460218   -0.364278
      3          6           0       -1.280655   -0.746274    0.608825
      4          6           0        0.063999   -0.472657    1.316089
      5          6           0        0.860855   -0.093980    0.046861
      6          6           0        2.294421   -0.437472   -0.199435
      7          6           0        1.888009    1.011555   -0.037686
      8          6           0       -0.240044   -0.286106   -0.995353
      9          8           0       -0.870464   -1.526331   -0.556034
     10          1           0       -0.476902    1.946569    0.386854
     11          1           0       -2.345805    0.344163   -0.969112
     12          1           0       -2.099613   -1.185817    1.177309
     13          1           0       -0.003250    0.331484    2.056287
     14          1           0        0.447564   -1.370943    1.805378
     15          1           0        2.851964   -0.898352    0.609379
     16          1           0        2.579841   -0.780380   -1.188898
     17          1           0        2.177452    1.519375    0.877413
     18          1           0        1.901243    1.644843   -0.919753
     19          1           0        0.021740   -0.254243   -2.053498
 ---------------------------------------------------------------------

 SCF Done:  E(RB3LYP) =  -423.146093704     A.U. after    1 cycles

 The electronic state is 1-A.
 Alpha  occ. eigenvalues --  -19.14415 -19.13734 -10.23568 -10.23537 -10.23362
 Alpha  occ. eigenvalues --  -10.20507 -10.19633 -10.19201 -10.18976  -1.05805
 Alpha  occ. eigenvalues --   -1.02231  -0.86840  -0.76356  -0.70866  -0.67578
 Alpha  occ. eigenvalues --   -0.61207  -0.57711  -0.54661  -0.53345  -0.50559
 Alpha  occ. eigenvalues --   -0.46695  -0.45269  -0.43547  -0.42333  -0.38933
 Alpha  occ. eigenvalues --   -0.37565  -0.37241  -0.36678  -0.34436  -0.32297
 Alpha  occ. eigenvalues --   -0.30010  -0.29098  -0.26069  -0.24929
 Alpha virt. eigenvalues --    0.07301   0.08758   0.09567   0.10525   0.10678
 Alpha virt. eigenvalues --    0.13888   0.14166   0.15667   0.16436   0.16962
 Alpha virt. eigenvalues --    0.17196   0.18982   0.19744   0.21473   0.22501

 Mulliken charges:
               1
     1  O   -0.436657
     2  C    0.144254
     3  C    0.026596
     4  C   -0.326455
     5  C    0.388750
     6  C   -0.348616
     7  C   -0.346395
     8  C   -0.056515
     9  O   -0.290710
    10  H    0.294909
    11  H    0.104250
    12  H    0.081281
    13  H    0.100133
    14  H    0.115311
    15  H    0.117070
    16  H    0.118663
    17  H    0.116614
    18  H    0.120724
    19  H    0.076793
 Sum of Mulliken charges =   0.00000

 Dipole moment (field-independent basis, Debye):
    X=              1.5497    Y=              0.5489    Z=              0.7218  Tot=              1.7955
 Quadrupole moment (field-independent basis, Debye-Ang):
   XX=            -53.8574   YY=            -58.3426   ZZ=            -50.0173
   XY=              2.1966   XZ=             -0.6100   YZ=             -1.3338

  Exact polarizability:  82.356   1.740  69.869  -1.166  -1.196  70.057
 Approx polarizability: 111.294   2.495 110.705  -1.686   1.439 105.651

                      1                      2                      3
                      A                      A                      A
 Frequencies --    119.7654               203.8155               253.1511
 Red. masses --      4.0875                 2.9538                 2.2411
 Frc consts  --      0.0345                 0.0723                 0.0846
 IR Inten    --      0.6100                 1.7867                 9.6610

                      4                      5                      6
                      A                      A                      A
 Frequencies --    285.0097               333.1565               368.0347
 Red. masses --      2.3352                 1.4736                 2.2952
 Frc consts  --      0.1118                 0.0964                 0.1832
 IR Inten    --      8.1883                21.4982                33.9985

                      7                      8                      9
                      A                      A                      A
 Frequencies --    446.3395               489.1143               586.8550
 Red. masses --      2.2508                 5.0783                 5.1691
 Frc consts  --      0.2642                 0.7158                 1.0489
 IR Inten    --      7.6325                 4.6326                 5.3842

                     10                     11                     12
                      A                      A                      A
 Frequencies --    626.0691               765.5955               786.4293
 Red. masses --      4.0739                 2.7909                 1.1335
 Frc consts  --      0.9408                 0.9638                 0.4130
 IR Inten    --      2.4511                 8.5490                 1.1327

                     13                     14                     15
                      A                      A                      A
 Frequencies --    801.0937               853.7286               866.4420
 Red. masses --      3.1355                 3.0109                 2.2081
 Frc consts  --      1.1856                 1.2930                 0.9767
 IR Inten    --      5.4228                20.5602                 7.8594

                     16                     17                     18
                      A                      A                      A
 Frequencies --    875.3386               891.4354               949.4537
 Red. masses --      2.3041                 3.9590                 1.9538
 Frc consts  --      1.0402                 1.8536                 1.0377
 IR Inten    --      3.0178                28.6402                12.1622

                     19                     20                     21
                      A                      A                      A
 Frequencies --    953.8128               974.0742               985.6352
 Red. masses --      1.6618                 2.4357                 2.3228
 Frc consts  --      0.8908                 1.3616                 1.3295
 IR Inten    --     11.5578                 6.2614                 5.9744

                     22                     23                     24
                      A                      A                      A
 Frequencies --   1010.7123              1050.6351              1054.6951
 Red. masses --      1.6306                 3.5813                 1.4141
 Frc consts  --      0.9814                 2.3291                 0.9268
 IR Inten    --      5.1603                 4.3331                 5.6495

                     25                     26                     27
                      A                      A                      A
 Frequencies --   1083.1964              1131.4019              1144.3153
 Red. masses --      1.4111                 1.8101                 1.5193
 Frc consts  --      0.9755                 1.3651                 1.1722
 IR Inten    --      0.3530                85.3579                30.2442

                     28                     29                     30
                      A                      A                      A
 Frequencies --   1180.7521              1187.8249              1202.2273
 Red. masses --      1.6707                 1.2755                 1.3196
 Frc consts  --      1.3724                 1.0603                 1.1237
 IR Inten    --     46.6539                 0.8991                 3.3468

                     31                     32                     33
                      A                      A                      A
 Frequencies --   1221.8366              1247.9473              1279.8439
 Red. masses --      2.2546                 1.4033                 1.7881
 Frc consts  --      1.9831                 1.2876                 1.7257
 IR Inten    --     16.8313                 7.7084                 2.7523

                     34                     35                     36
                      A                      A                      A
 Frequencies --   1289.1694              1310.6542              1318.0855
 Red. masses --      1.4610                 1.6529                 1.7850
 Frc consts  --      1.4306                 1.6729                 1.8272
 IR Inten    --      1.2258                 0.8528                 3.9948

                     37                     38                     39
                      A                      A                      A
 Frequencies --   1390.9627              1428.2710              1466.1273
 Red. masses --      2.3377                 1.3093                 1.0872
 Frc consts  --      2.6648                 1.5736                 1.3769
 IR Inten    --      1.7839                77.5257                 2.1338

                     40                     41                     42
                      A                      A                      A
 Frequencies --   1485.2216              1505.0141              3051.0061
 Red. masses --      1.1053                 1.4785                 1.0615
 Frc consts  --      1.4365                 1.9732                 5.8215
 IR Inten    --      4.6007                 0.0216                24.2938

                     43                     44                     45
                      A                      A                      A
 Frequencies --   3106.5339              3116.0251              3118.0509
 Red. masses --      1.1035                 1.0854                 1.0557
 Frc consts  --      6.2744                 6.2093                 6.0471
 IR Inten    --     14.8435                14.1829                15.9869

                     46                     47                     48
                      A                      A                      A
 Frequencies --   3123.0990              3126.4392              3133.1588
 Red. masses --      1.0877                 1.0566                 1.0930
 Frc consts  --      6.2508                 6.0852                 6.3220
 IR Inten    --     40.3553                18.9115                37.3621

                     49                     50                     51
                      A                      A                      A
 Frequencies --   3197.1533              3213.7697              3799.9499
 Red. masses --      1.1176                 1.1158                 1.0652
 Frc consts  --      6.7308                 6.7902                 9.0624
 IR Inten    --      1.0938                13.5523                26.3182

 - Thermochemistry -
 -------------------
 Temperature   298.150 Kelvin.  Pressure   1.00000 Atm.
 Atom     1 has atomic number  8 and mass  15.99491

 Molecular mass:   126.06808 amu.
 Principal axes and moments of inertia in atomic units:
                           1         2         3
     Eigenvalues --   684.653461063.443001306.32965
           X            0.99981   0.01888  -0.00445
           Y           -0.01900   0.99938  -0.02966
           Z            0.00389   0.02974   0.99955
 This molecule is an asymmetric top.
 Rotational symmetry number  1.
 Warning -- assumption of classical behavior for rotation
           may cause significant error
 Rotational temperatures (Kelvin)      0.12651     0.08145     0.06630
 Rotational constants (GHZ):           2.63599     1.69707     1.38154
 Zero-point vibrational energy     421016.3 (Joules/Mol)
                                  100.62531 (Kcal/Mol)
 Warning -- explicit consideration of   9 degrees of freedom as
           vibrations may cause significant error
 Vibrational temperatures:    172.32   293.24   364.23   410.06   479.34
          (Kelvin)            529.52   642.18   703.73   844.35   900.77
                             1101.52  1131.49  1152.59  1228.32  1246.62
                             1259.42  1282.58  1366.05  1372.32  1401.47
                             1418.11  1454.19  1511.63  1517.47  1558.48
                             1627.83  1646.41  1698.84  1709.01  1729.73
                             1757.95  1795.52  1841.41  1854.82  1885.74
                             1896.43  2001.28  2054.96  2109.43  2136.90
                             2165.38  4389.71  4469.60  4483.26  4486.17
                             4493.44  4498.24  4507.91  4599.98  4623.89
                             5467.27

 Zero-point correction=                           0.160357 (Hartree/Particle)
 Thermal correction to Energy=                    0.167877
 Thermal correction to Enthalpy=                  0.168822
 Thermal correction to Gibbs Free Energy=         0.128726
 Sum of electronic and zero-point Energies=           -422.985737
 Sum of electronic and thermal Energies=              -422.978216
 Sum of electronic and thermal Enthalpies=            -422.977272
 Sum of electronic and thermal Free Energies=         -423.017367

                     E (Thermal)             CV                S
                      KCal/Mol        Cal/Mol-Kelvin    Cal/Mol-Kelvin
 Total                  105.345             30.715             84.388
 Electronic               0.000              0.000              0.000
 Translational            0.889              2.981             40.409
 Rotational               0.889              2.981             28.344
 Vibrational            103.567             24.754             15.635
 Vibration     1          0.609              1.933              3.104
 Vibration     2          0.639              1.834              2.098
 Vibration     3          0.664              1.757              1.709
 Vibration     4          0.683              1.701              1.503
 Vibration     5          0.715              1.609              1.245
 Vibration     6          0.741              1.538              1.088
 Vibration     7          0.806              1.369              0.807
 Vibration     8          0.845              1.274              0.686
 Vibration     9          0.944              1.060              0.473

 Normal termination of Gaussian 09 at Mon Jan 27 23:48:06 2020.
