 Gaussian 09, Revision D.01,
 Gaussian 09:  ES64L-G09RevD.01 24-Apr-2013

 -----------------------------
 # b3lyp 6-31G(2df,p) opt Freq
 -----------------------------

 -----
 titel
 -----
 Symbolic Z-matrix:
 Charge =  0 Multiplicity = 1

 SCF Done:  E(RB3LYP) =  -423.167591897     A.U. after   14 cycles
 Optimization completed.
    -- Stationary point found.
 Normal termination of Gaussian 09 at Tue Jan 28 08:50:17 2020.

 ----------------------------------------------------------------------
 #N Geom=AllCheck Guess=TCheck SCRF=Check GenChk RB3LYP/6-31G(2df,p) Fr
 eq
 ----------------------------------------------------------------------

 Structure from the checkpoint file:  "/scratch/puck/g09_56055504-5b28-4a7d-80b0-f1d222b2ffb1/Gau-103520.chk"
 -----
 titel
 -----
 Charge =  0 Multiplicity = 1

                         Standard orientation:
 ---------------------------------------------------------------------
 Center     Atomic      Atomic             Coordinates (Angstroms)
 Number     Number       Type             X           Y           Z
 ---------------------------------------------------------------------
      1          6           0        2.589497    0.716895   -0.183146
      2          6           0        1.427897   -0.013719   -0.867032
      3          6           0        0.314338   -0.474637    0.092901
      4          8           0        0.807283   -1.332942    1.119639
      5          6           0       -0.780875   -1.227884   -0.645309
      6          6           0       -1.984355   -0.673892   -0.490841
      7          6           0       -1.885612    0.548849    0.360161
      8          8           0       -1.059394    1.593679   -0.221019
      9          6           0       -0.470814    0.696337    0.718978
     10          1           0        2.247465    1.608623    0.352337
     11          1           0        3.123374    0.073572    0.526768
     12          1           0        3.325924    1.040802   -0.924117
     13          1           0        0.969069    0.642749   -1.612101
     14          1           0        1.809029   -0.894116   -1.397560
     15          1           0        1.577462   -0.910710    1.515916
     16          1           0       -0.547760   -2.094166   -1.254193
     17          1           0       -2.908716   -1.021653   -0.935338
     18          1           0       -2.709870    0.907135    0.968589
     19          1           0       -0.129554    1.130174    1.656471
 ---------------------------------------------------------------------

 SCF Done:  E(RB3LYP) =  -423.167591897     A.U. after    1 cycles

 The electronic state is 1-A.
 Alpha  occ. eigenvalues --  -19.14886 -19.13935 -10.24251 -10.23637 -10.23017
 Alpha  occ. eigenvalues --  -10.18940 -10.18666 -10.18417 -10.18385  -1.06856
 Alpha  occ. eigenvalues --   -1.02168  -0.81786  -0.77171  -0.69794  -0.66581
 Alpha  occ. eigenvalues --   -0.62196  -0.57616  -0.54817  -0.52993  -0.48757
 Alpha  occ. eigenvalues --   -0.46279  -0.44297  -0.42657  -0.41238  -0.39423
 Alpha  occ. eigenvalues --   -0.38943  -0.37592  -0.35461  -0.34912  -0.33381
 Alpha  occ. eigenvalues --   -0.30777  -0.28673  -0.25819  -0.24708
 Alpha virt. eigenvalues --   -0.00549   0.07065   0.09831   0.11523   0.12838
 Alpha virt. eigenvalues --    0.13922   0.14081   0.15370   0.16152   0.16965
 Alpha virt. eigenvalues --    0.17323   0.18676   0.20414   0.21327   0.22715

 Mulliken charges:
               1
     1  C   -0.417113
     2  C   -0.214461
     3  C    0.316087
     4  O   -0.475852
     5  C   -0.096240
     6  C   -0.098988
     7  C   -0.001324
     8  O   -0.260600
     9  C   -0.025416
    10  H    0.128831
    11  H    0.109089
    12  H    0.124940
    13  H    0.126223
    14  H    0.100128
    15  H    0.278966
    16  H    0.106677
    17  H    0.107130
    18  H    0.100419
    19  H    0.091505
 Sum of Mulliken charges =   0.00000

 Dipole moment (field-independent basis, Debye):
    X=              0.6802    Y=             -0.1918    Z=              0.3672  Tot=              0.7965
 Quadrupole moment (field-independent basis, Debye-Ang):
   XX=            -46.6853   YY=            -58.4580   ZZ=            -51.8949
   XY=              1.9065   XZ=              0.4406   YZ=              4.4798

  Exact polarizability:  93.938  -0.844  68.917   1.706   6.331  63.225
 Approx polarizability: 132.071  -7.708 109.376   3.326   4.381  96.797

                      1                      2                      3
                      A                      A                      A
 Frequencies --     81.9010               148.8041               179.9446
 Red. masses --      2.4876                 2.8179                 2.5289
 Frc consts  --      0.0098                 0.0368                 0.0482
 IR Inten    --      0.1960                 2.1810                 1.1317

                      4                      5                      6
                      A                      A                      A
 Frequencies --    248.1421               267.9441               292.4148
 Red. masses --      1.3341                 1.3347                 2.1982
 Frc consts  --      0.0484                 0.0565                 0.1107
 IR Inten    --     37.1247                35.0795                30.0653

                      7                      8                      9
                      A                      A                      A
 Frequencies --    358.8896               401.0357               422.6190
 Red. masses --      3.3455                 3.3898                 3.9311
 Frc consts  --      0.2539                 0.3212                 0.4137
 IR Inten    --     10.8691                13.8039                 3.6299

                     10                     11                     12
                      A                      A                      A
 Frequencies --    469.0172               607.4944               628.6956
 Red. masses --      3.2146                 3.9907                 3.3169
 Frc consts  --      0.4166                 0.8677                 0.7724
 IR Inten    --      0.2654                 3.8744                 2.0905

                     13                     14                     15
                      A                      A                      A
 Frequencies --    759.7464               769.9636               786.2136
 Red. masses --      3.7285                 2.0227                 1.2959
 Frc consts  --      1.2680                 0.7065                 0.4719
 IR Inten    --      3.4288                 8.2918                 3.0581

                     16                     17                     18
                      A                      A                      A
 Frequencies --    815.8017               851.9128               879.1960
 Red. masses --      3.4680                 3.3959                 2.2335
 Frc consts  --      1.3599                 1.4521                 1.0172
 IR Inten    --      3.5067                12.0967                43.0239

                     19                     20                     21
                      A                      A                      A
 Frequencies --    946.8496               964.8468               987.4408
 Red. masses --      1.9197                 1.5381                 2.2369
 Frc consts  --      1.0140                 0.8437                 1.2851
 IR Inten    --      0.1311                 5.5112                 2.5291

                     22                     23                     24
                      A                      A                      A
 Frequencies --   1010.7978              1015.4598              1038.6353
 Red. masses --      2.0769                 2.0514                 1.8270
 Frc consts  --      1.2502                 1.2463                 1.1612
 IR Inten    --     39.4830                 3.1447                27.3783

                     25                     26                     27
                      A                      A                      A
 Frequencies --   1092.2031              1102.7938              1117.0008
 Red. masses --      2.2268                 1.2737                 1.2458
 Frc consts  --      1.5651                 0.9126                 0.9158
 IR Inten    --     10.6365                 3.6251                 2.8704

                     28                     29                     30
                      A                      A                      A
 Frequencies --   1160.9835              1211.3332              1247.8256
 Red. masses --      3.3172                 2.0701                 1.4175
 Frc consts  --      2.6344                 1.7897                 1.3004
 IR Inten    --     71.0104                10.9398                11.6411

                     31                     32                     33
                      A                      A                      A
 Frequencies --   1290.5538              1312.8587              1323.7254
 Red. masses --      1.2666                 1.4554                 1.3471
 Frc consts  --      1.2430                 1.4780                 1.3908
 IR Inten    --      1.2178                36.3745                 3.0121

                     34                     35                     36
                      A                      A                      A
 Frequencies --   1374.6136              1387.2513              1406.5960
 Red. masses --      1.5369                 2.1684                 1.3647
 Frc consts  --      1.7110                 2.4587                 1.5909
 IR Inten    --     11.5546                 7.3473                 4.9256

                     37                     38                     39
                      A                      A                      A
 Frequencies --   1425.6136              1477.5950              1499.8178
 Red. masses --      2.3040                 1.0776                 1.0549
 Frc consts  --      2.7589                 1.3862                 1.3981
 IR Inten    --     20.9275                 3.7873                 4.8043

                     40                     41                     42
                      A                      A                      A
 Frequencies --   1509.9259              1665.9001              3026.4066
 Red. masses --      1.0415                 6.6194                 1.0396
 Frc consts  --      1.3990                10.8234                 5.6104
 IR Inten    --      5.1897                 0.8960                22.4702

                     43                     44                     45
                      A                      A                      A
 Frequencies --   3041.2874              3082.0261              3103.6395
 Red. masses --      1.0640                 1.0951                 1.0984
 Frc consts  --      5.7984                 6.1288                 6.2340
 IR Inten    --     20.5243                 7.0989                28.0691

                     46                     47                     48
                      A                      A                      A
 Frequencies --   3110.8393              3136.2731              3169.7192
 Red. masses --      1.1019                 1.0898                 1.0922
 Frc consts  --      6.2830                 6.3155                 6.4656
 IR Inten    --     27.6990                20.2536                25.7683

                     49                     50                     51
                      A                      A                      A
 Frequencies --   3192.4665              3219.1337              3799.2058
 Red. masses --      1.0866                 1.1042                 1.0655
 Frc consts  --      6.5247                 6.7417                 9.0610
 IR Inten    --      7.5274                13.4560                12.9711

 - Thermochemistry -
 -------------------
 Temperature   298.150 Kelvin.  Pressure   1.00000 Atm.
 Atom     1 has atomic number  6 and mass  12.00000

 Molecular mass:   126.06808 amu.
 Principal axes and moments of inertia in atomic units:
                           1         2         3
     Eigenvalues --   658.198601226.157471455.93846
           X            0.99915   0.04069  -0.00599
           Y           -0.04014   0.99650   0.07326
           Z            0.00895  -0.07296   0.99730
 This molecule is an asymmetric top.
 Rotational symmetry number  1.
 Warning -- assumption of classical behavior for rotation
           may cause significant error
 Rotational temperatures (Kelvin)      0.13159     0.07064     0.05949
 Rotational constants (GHZ):           2.74194     1.47187     1.23957
 Zero-point vibrational energy     415231.9 (Joules/Mol)
                                   99.24281 (Kcal/Mol)
 Warning -- explicit consideration of  11 degrees of freedom as
           vibrations may cause significant error
 Vibrational temperatures:    117.84   214.10   258.90   357.02   385.51
          (Kelvin)            420.72   516.36   577.00   608.05   674.81
                              874.05   904.55  1093.10  1107.80  1131.18
                             1173.76  1225.71  1264.97  1362.30  1388.20
                             1420.71  1454.31  1461.02  1494.36  1571.43
                             1586.67  1607.11  1670.39  1742.84  1795.34
                             1856.82  1888.91  1904.54  1977.76  1995.94
                             2023.78  2051.14  2125.93  2157.90  2172.44
                             2396.86  4354.32  4375.73  4434.34  4465.44
                             4475.80  4512.39  4560.51  4593.24  4631.61
                             5466.20

 Zero-point correction=                           0.158153 (Hartree/Particle)
 Thermal correction to Energy=                    0.166760
 Thermal correction to Enthalpy=                  0.167704
 Thermal correction to Gibbs Free Energy=         0.125192
 Sum of electronic and zero-point Energies=           -423.009438
 Sum of electronic and thermal Energies=              -423.000832
 Sum of electronic and thermal Enthalpies=            -422.999888
 Sum of electronic and thermal Free Energies=         -423.042400

                     E (Thermal)             CV                S
                      KCal/Mol        Cal/Mol-Kelvin    Cal/Mol-Kelvin
 Total                  104.644             33.324             89.475
 Electronic               0.000              0.000              0.000
 Translational            0.889              2.981             40.409
 Rotational               0.889              2.981             28.554
 Vibrational            102.866             27.362             20.512
 Vibration     1          0.600              1.962              3.845
 Vibration     2          0.618              1.904              2.687
 Vibration     3          0.629              1.867              2.329
 Vibration     4          0.662              1.766              1.744
 Vibration     5          0.673              1.732              1.609
 Vibration     6          0.688              1.688              1.460
 Vibration     7          0.734              1.557              1.127
 Vibration     8          0.767              1.468              0.959
 Vibration     9          0.785              1.421              0.883
 Vibration    10          0.826              1.319              0.740
 Vibration    11          0.966              1.016              0.437

 Optimization completed.
    -- Stationary point found.
 Normal termination of Gaussian 09 at Tue Jan 28 09:33:57 2020.
