 Gaussian 09, Revision D.01,
 Gaussian 09:  ES64L-G09RevD.01 24-Apr-2013

 -----------------------------
 # b3lyp 6-31G(2df,p) opt Freq
 -----------------------------

 -----
 titel
 -----
 Symbolic Z-matrix:
 Charge =  0 Multiplicity = 1

 SCF Done:  E(RB3LYP) =  -423.168621227     A.U. after   14 cycles
 Optimization completed.
    -- Stationary point found.
 Normal termination of Gaussian 09 at Tue Jan 28 00:05:04 2020.

 ----------------------------------------------------------------------
 #N Geom=AllCheck Guess=TCheck SCRF=Check GenChk RB3LYP/6-31G(2df,p) Fr
 eq
 ----------------------------------------------------------------------

 Structure from the checkpoint file:  "/scratch/puck/g09_0b429ae9-8f01-41e3-bce5-61af8cbc213a/Gau-84034.chk"
 -----
 titel
 -----
 Charge =  0 Multiplicity = 1

                         Standard orientation:
 ---------------------------------------------------------------------
 Center     Atomic      Atomic             Coordinates (Angstroms)
 Number     Number       Type             X           Y           Z
 ---------------------------------------------------------------------
      1          6           0        1.418236    2.245852   -0.074160
      2          6           0        1.022483    0.805565    0.086745
      3          6           0        1.838186   -0.225039   -0.144445
      4          6           0        1.373882   -1.651657    0.008822
      5          8           0       -0.018865   -1.820025   -0.242627
      6          6           0       -0.845982   -0.908210    0.414996
      7          6           0       -1.469663    0.179014   -0.426063
      8          8           0       -2.733274    0.673804   -0.103087
      9          6           0       -0.362572    0.515168    0.548959
     10          1           0        1.308724    2.792964    0.870873
     11          1           0        2.455056    2.343475   -0.407301
     12          1           0        0.772059    2.751749   -0.802121
     13          1           0        2.867754   -0.067679   -0.454939
     14          1           0        1.878699   -2.299226   -0.715326
     15          1           0        1.628829   -2.033335    1.012586
     16          1           0       -1.444485   -1.329889    1.221623
     17          1           0       -1.205621    0.163021   -1.483670
     18          1           0       -3.387439    0.028444   -0.393211
     19          1           0       -0.703880    1.056082    1.428079
 ---------------------------------------------------------------------

 SCF Done:  E(RB3LYP) =  -423.168621227     A.U. after    1 cycles

 The electronic state is 1-A.
 Alpha  occ. eigenvalues --  -19.14473 -19.14067 -10.23272 -10.22951 -10.22831
 Alpha  occ. eigenvalues --  -10.19131 -10.18959 -10.18025 -10.17548  -1.04040
 Alpha  occ. eigenvalues --   -1.02538  -0.84773  -0.79586  -0.71927  -0.65097
 Alpha  occ. eigenvalues --   -0.61861  -0.59153  -0.53330  -0.50621  -0.48818
 Alpha  occ. eigenvalues --   -0.47883  -0.43932  -0.43785  -0.41461  -0.40120
 Alpha  occ. eigenvalues --   -0.39379  -0.38317  -0.36357  -0.34716  -0.31298
 Alpha  occ. eigenvalues --   -0.30729  -0.26390  -0.24066  -0.22765
 Alpha virt. eigenvalues --    0.01825   0.08188   0.10353   0.11249   0.12026
 Alpha virt. eigenvalues --    0.13504   0.14084   0.15194   0.15715   0.17557
 Alpha virt. eigenvalues --    0.18273   0.18638   0.20144   0.23127   0.23506

 Mulliken charges:
               1
     1  C   -0.479524
     2  C    0.301648
     3  C   -0.173238
     4  C   -0.121497
     5  O   -0.259927
     6  C    0.028731
     7  C    0.046437
     8  O   -0.423069
     9  C   -0.174905
    10  H    0.124800
    11  H    0.119427
    12  H    0.131303
    13  H    0.085855
    14  H    0.114105
    15  H    0.101248
    16  H    0.089937
    17  H    0.096176
    18  H    0.289400
    19  H    0.103092
 Sum of Mulliken charges =   0.00000

 Dipole moment (field-independent basis, Debye):
    X=              0.4666    Y=             -0.0687    Z=              0.0984  Tot=              0.4818
 Quadrupole moment (field-independent basis, Debye-Ang):
   XX=            -47.9116   YY=            -55.4072   ZZ=            -52.4387
   XY=              2.6465   XZ=              0.6912   YZ=             -0.7208

  Exact polarizability:  90.740  -5.420  85.068  -2.765   0.482  58.704
 Approx polarizability: 126.284 -14.938 124.682  -3.999   4.462  91.522

                      1                      2                      3
                      A                      A                      A
 Frequencies --    116.9045               153.4916               188.2245
 Red. masses --      3.4430                 2.6257                 1.1604
 Frc consts  --      0.0277                 0.0364                 0.0242
 IR Inten    --      0.2497                 4.2172                 1.5209

                      4                      5                      6
                      A                      A                      A
 Frequencies --    242.6207               260.4525               300.7170
 Red. masses --      3.0420                 2.0314                 1.2281
 Frc consts  --      0.1055                 0.0812                 0.0654
 IR Inten    --      6.0379                 1.8075                69.9686

                      7                      8                      9
                      A                      A                      A
 Frequencies --    309.8293               365.5299               413.9382
 Red. masses --      3.5313                 2.3913                 6.0972
 Frc consts  --      0.1997                 0.1883                 0.6155
 IR Inten    --     21.3829                16.6278                 8.1091

                     10                     11                     12
                      A                      A                      A
 Frequencies --    470.0019               543.4582               594.2594
 Red. masses --      4.3175                 3.9023                 4.4060
 Frc consts  --      0.5619                 0.6791                 0.9167
 IR Inten    --     10.5997                 4.6419                 0.5134

                     13                     14                     15
                      A                      A                      A
 Frequencies --    715.6788               807.0153               827.0078
 Red. masses --      2.8789                 1.7960                 1.9637
 Frc consts  --      0.8688                 0.6892                 0.7913
 IR Inten    --      4.5412                 5.4716                 9.4587

                     16                     17                     18
                      A                      A                      A
 Frequencies --    899.0034               903.3972               952.6439
 Red. masses --      2.8850                 2.7443                 2.2427
 Frc consts  --      1.3738                 1.3196                 1.1992
 IR Inten    --     18.6311                 2.7528                 3.7007

                     19                     20                     21
                      A                      A                      A
 Frequencies --    978.1763              1026.1775              1044.8776
 Red. masses --      2.5053                 1.8102                 1.7595
 Frc consts  --      1.4123                 1.1231                 1.1318
 IR Inten    --      3.9210                10.5200                11.1121

                     22                     23                     24
                      A                      A                      A
 Frequencies --   1056.6455              1066.3213              1086.5031
 Red. masses --      1.4542                 1.6605                 1.6446
 Frc consts  --      0.9566                 1.1124                 1.1438
 IR Inten    --      1.0698                 9.2824                 2.3787

                     25                     26                     27
                      A                      A                      A
 Frequencies --   1095.0841              1149.9563              1165.1096
 Red. masses --      1.6557                 2.9062                 2.9786
 Frc consts  --      1.1698                 2.2643                 2.3823
 IR Inten    --      4.5760               141.6972                35.6510

                     28                     29                     30
                      A                      A                      A
 Frequencies --   1192.5876              1221.7428              1268.3272
 Red. masses --      2.1071                 2.2379                 1.1348
 Frc consts  --      1.7657                 1.9681                 1.0755
 IR Inten    --      4.6084                29.7624                 6.4161

                     31                     32                     33
                      A                      A                      A
 Frequencies --   1282.1019              1302.6479              1331.1523
 Red. masses --      1.2227                 1.2960                 1.3077
 Frc consts  --      1.1842                 1.2957                 1.3652
 IR Inten    --     33.6594                13.0560                 3.4052

                     34                     35                     36
                      A                      A                      A
 Frequencies --   1387.9671              1394.6190              1414.1157
 Red. masses --      1.7171                 1.5417                 1.2958
 Frc consts  --      1.9490                 1.7667                 1.5268
 IR Inten    --      6.8715                12.7939                 1.9465

                     37                     38                     39
                      A                      A                      A
 Frequencies --   1460.0763              1477.0849              1490.3134
 Red. masses --      2.4968                 1.0472                 1.0647
 Frc consts  --      3.1361                 1.3462                 1.3933
 IR Inten    --     26.3929                 5.4412                 4.7468

                     40                     41                     42
                      A                      A                      A
 Frequencies --   1496.5123              1733.8404              2955.3560
 Red. masses --      1.1038                 7.1669                 1.0724
 Frc consts  --      1.4565                12.6940                 5.5185
 IR Inten    --      1.3775                 6.3529                66.0792

                     43                     44                     45
                      A                      A                      A
 Frequencies --   3018.9364              3067.4879              3069.0484
 Red. masses --      1.0373                 1.0984                 1.0887
 Frc consts  --      5.5702                 6.0895                 6.0420
 IR Inten    --     28.3592                19.2253                31.9181

                     46                     47                     48
                      A                      A                      A
 Frequencies --   3105.0385              3110.2432              3111.1602
 Red. masses --      1.0895                 1.0869                 1.1001
 Frc consts  --      6.1887                 6.1951                 6.2736
 IR Inten    --      7.5130                46.4196                18.8445

                     49                     50                     51
                      A                      A                      A
 Frequencies --   3144.3445              3162.3800              3795.7770
 Red. masses --      1.0871                 1.0905                 1.0660
 Frc consts  --      6.3328                 6.4257                 9.0495
 IR Inten    --     13.2421                15.8722                23.1093

 - Thermochemistry -
 -------------------
 Temperature   298.150 Kelvin.  Pressure   1.00000 Atm.
 Atom     1 has atomic number  6 and mass  12.00000

 Molecular mass:   126.06808 amu.
 Principal axes and moments of inertia in atomic units:
                           1         2         3
     Eigenvalues --   811.108401116.942141794.95543
           X            0.99851   0.05436  -0.00416
           Y           -0.05439   0.99849  -0.00779
           Z            0.00373   0.00800   0.99996
 This molecule is an asymmetric top.
 Rotational symmetry number  1.
 Warning -- assumption of classical behavior for rotation
           may cause significant error
 Rotational temperatures (Kelvin)      0.10678     0.07755     0.04825
 Rotational constants (GHZ):           2.22503     1.61579     1.00545
 Zero-point vibrational energy     417053.4 (Joules/Mol)
                                   99.67816 (Kcal/Mol)
 Warning -- explicit consideration of  12 degrees of freedom as
           vibrations may cause significant error
 Vibrational temperatures:    168.20   220.84   270.81   349.08   374.73
          (Kelvin)            432.66   445.77   525.92   595.56   676.23
                              781.91   855.01  1029.70  1161.11  1189.88
                             1293.46  1299.79  1370.64  1407.38  1476.44
                             1503.34  1520.28  1534.20  1563.23  1575.58
                             1654.53  1676.33  1715.87  1757.81  1824.84
                             1844.66  1874.22  1915.23  1996.97  2006.54
                             2034.59  2100.72  2125.19  2144.23  2153.14
                             2494.61  4252.09  4343.57  4413.43  4415.67
                             4467.45  4474.94  4476.26  4524.00  4549.95
                             5461.27

 Zero-point correction=                           0.158847 (Hartree/Particle)
 Thermal correction to Energy=                    0.167424
 Thermal correction to Enthalpy=                  0.168368
 Thermal correction to Gibbs Free Energy=         0.125937
 Sum of electronic and zero-point Energies=           -423.009774
 Sum of electronic and thermal Energies=              -423.001198
 Sum of electronic and thermal Enthalpies=            -423.000254
 Sum of electronic and thermal Free Energies=         -423.042684

                     E (Thermal)             CV                S
                      KCal/Mol        Cal/Mol-Kelvin    Cal/Mol-Kelvin
 Total                  105.060             32.903             89.302
 Electronic               0.000              0.000              0.000
 Translational            0.889              2.981             40.409
 Rotational               0.889              2.981             28.877
 Vibrational            103.282             26.941             20.017
 Vibration     1          0.608              1.935              3.151
 Vibration     2          0.619              1.899              2.628
 Vibration     3          0.633              1.856              2.245
 Vibration     4          0.659              1.775              1.784
 Vibration     5          0.669              1.745              1.659
 Vibration     6          0.693              1.672              1.413
 Vibration     7          0.699              1.655              1.363
 Vibration     8          0.739              1.543              1.098
 Vibration     9          0.778              1.440              0.913
 Vibration    10          0.827              1.317              0.738
 Vibration    11          0.899              1.154              0.558
 Vibration    12          0.952              1.044              0.460

 Normal termination of Gaussian 09 at Tue Jan 28 00:49:40 2020.
