 Gaussian 09, Revision D.01,
 Gaussian 09:  ES64L-G09RevD.01 24-Apr-2013

 -----------------------------
 # b3lyp 6-31G(2df,p) opt Freq
 -----------------------------

 -----
 titel
 -----
 Symbolic Z-matrix:
 Charge =  0 Multiplicity = 1

 SCF Done:  E(RB3LYP) =  -423.159764058     A.U. after   13 cycles
 Optimization completed.
    -- Stationary point found.
 Normal termination of Gaussian 09 at Mon Jan 27 12:17:44 2020.

 ----------------------------------------------------------------------
 #N Geom=AllCheck Guess=TCheck SCRF=Check GenChk RB3LYP/6-31G(2df,p) Fr
 eq
 ----------------------------------------------------------------------

 Structure from the checkpoint file:  "/scratch/puck/g09_2b15717c-3d14-48c2-be0f-4543bb03c02d/Gau-167049.chk"
 -----
 titel
 -----
 Charge =  0 Multiplicity = 1

                         Standard orientation:
 ---------------------------------------------------------------------
 Center     Atomic      Atomic             Coordinates (Angstroms)
 Number     Number       Type             X           Y           Z
 ---------------------------------------------------------------------
      1          6           0        2.090502   -0.513020   -0.023708
      2          8           0        1.079351   -1.240116   -0.766143
      3          6           0        0.031152   -0.608574   -0.035056
      4          6           0       -1.131209   -1.406830    0.558031
      5          8           0       -2.074284   -0.410051    0.105003
      6          6           0       -1.056696    0.282689   -0.668669
      7          6           0       -0.777873    1.721693   -0.200832
      8          6           0        0.713158    1.729115    0.232722
      9          6           0        1.014265    0.297653    0.730571
     10          1           0        2.690531   -1.190615    0.594481
     11          1           0        2.753714    0.058572   -0.683302
     12          1           0       -1.278523   -2.372868    0.057249
     13          1           0       -1.157117   -1.549030    1.645054
     14          1           0       -1.227148    0.175548   -1.745295
     15          1           0       -0.989048    2.476532   -0.962821
     16          1           0       -1.431555    1.921676    0.653926
     17          1           0        1.346265    1.957372   -0.632456
     18          1           0        0.921206    2.493970    0.985496
     19          1           0        1.031328    0.213830    1.818429
 ---------------------------------------------------------------------

 SCF Done:  E(RB3LYP) =  -423.159764058     A.U. after    1 cycles

 The electronic state is 1-A.
 Alpha  occ. eigenvalues --  -19.14076 -19.13177 -10.23621 -10.23514 -10.22582
 Alpha  occ. eigenvalues --  -10.22575 -10.19536 -10.19098 -10.18372  -1.05350
 Alpha  occ. eigenvalues --   -1.02710  -0.81670  -0.73169  -0.72100  -0.67061
 Alpha  occ. eigenvalues --   -0.63487  -0.58203  -0.52227  -0.51190  -0.49958
 Alpha  occ. eigenvalues --   -0.46269  -0.44827  -0.43428  -0.43221  -0.41636
 Alpha  occ. eigenvalues --   -0.38577  -0.35537  -0.35035  -0.33704  -0.33376
 Alpha  occ. eigenvalues --   -0.30574  -0.29070  -0.24999  -0.24823
 Alpha virt. eigenvalues --    0.06166   0.07857   0.09160   0.10458   0.12259
 Alpha virt. eigenvalues --    0.12394   0.14644   0.15349   0.16587   0.17214
 Alpha virt. eigenvalues --    0.17554   0.18272   0.19603   0.20597   0.22233

 Mulliken charges:
               1
     1  C   -0.100367
     2  O   -0.322180
     3  C    0.392718
     4  C   -0.153072
     5  O   -0.298472
     6  C    0.066415
     7  C   -0.236122
     8  C   -0.237230
     9  C   -0.131919
    10  H    0.105586
    11  H    0.104681
    12  H    0.110208
    13  H    0.101519
    14  H    0.082909
    15  H    0.103270
    16  H    0.118431
    17  H    0.106363
    18  H    0.105409
    19  H    0.081852
 Sum of Mulliken charges =   0.00000

 Dipole moment (field-independent basis, Debye):
    X=              1.6739    Y=              1.1815    Z=              0.9978  Tot=              2.2789
 Quadrupole moment (field-independent basis, Debye-Ang):
   XX=            -56.5495   YY=            -52.5474   ZZ=            -52.0509
   XY=              0.9454   XZ=              1.8902   YZ=             -2.5992

  Exact polarizability:  77.910   0.646  77.963   0.668  -3.419  65.504
 Approx polarizability: 108.246   0.123 107.015  -0.772  -2.775 101.420

                      1                      2                      3
                      A                      A                      A
 Frequencies --     94.2634               106.3289               248.6997
 Red. masses --      3.2654                 2.0357                 2.6834
 Frc consts  --      0.0171                 0.0136                 0.0978
 IR Inten    --      2.6919                 0.3133                 3.5542

                      4                      5                      6
                      A                      A                      A
 Frequencies --    306.4289               377.3922               441.3421
 Red. masses --      3.3634                 2.5983                 2.6358
 Frc consts  --      0.1861                 0.2180                 0.3025
 IR Inten    --      1.7848                 1.9518                 4.3313

                      7                      8                      9
                      A                      A                      A
 Frequencies --    522.8446               558.9397               616.9599
 Red. masses --      4.3551                 2.4550                 4.3070
 Frc consts  --      0.7014                 0.4519                 0.9659
 IR Inten    --      1.0953                 0.1259                 5.1746

                     10                     11                     12
                      A                      A                      A
 Frequencies --    790.5178               811.0561               820.3015
 Red. masses --      2.9249                 2.9642                 1.7899
 Frc consts  --      1.0769                 1.1488                 0.7096
 IR Inten    --      3.4020                 1.3512                 3.8603

                     13                     14                     15
                      A                      A                      A
 Frequencies --    864.7119               885.8324               921.6550
 Red. masses --      2.0566                 2.0178                 2.2302
 Frc consts  --      0.9060                 0.9329                 1.1161
 IR Inten    --      2.9929                 3.9616                20.5279

                     16                     17                     18
                      A                      A                      A
 Frequencies --    950.8449               986.9342              1002.1050
 Red. masses --      2.7168                 1.5701                 7.1993
 Frc consts  --      1.4472                 0.9010                 4.2596
 IR Inten    --      1.4418                 4.2454                82.2140

                     19                     20                     21
                      A                      A                      A
 Frequencies --   1007.2854              1037.8416              1059.8345
 Red. masses --      5.4673                 2.6870                 3.1553
 Frc consts  --      3.2683                 1.7052                 2.0882
 IR Inten    --     59.8172                19.7155                 3.0417

                     22                     23                     24
                      A                      A                      A
 Frequencies --   1067.7031              1116.6734              1128.2793
 Red. masses --      2.1778                 1.8795                 2.1321
 Frc consts  --      1.4628                 1.3809                 1.5992
 IR Inten    --     16.0966                 9.6249                14.5003

                     25                     26                     27
                      A                      A                      A
 Frequencies --   1156.9227              1162.3218              1188.0583
 Red. masses --      1.2935                 1.3820                 1.4769
 Frc consts  --      1.0200                 1.1000                 1.2282
 IR Inten    --     11.4733                11.4745                 5.8778

                     28                     29                     30
                      A                      A                      A
 Frequencies --   1204.3821              1218.8412              1250.7254
 Red. masses --      1.6078                 1.6662                 1.7038
 Frc consts  --      1.3741                 1.4584                 1.5704
 IR Inten    --      0.9294                 3.7719                23.5357

                     31                     32                     33
                      A                      A                      A
 Frequencies --   1269.5890              1314.2470              1317.8754
 Red. masses --      1.7269                 1.3277                 1.3931
 Frc consts  --      1.6400                 1.3512                 1.4256
 IR Inten    --      8.8998                 2.3155                 9.4231

                     34                     35                     36
                      A                      A                      A
 Frequencies --   1327.4168              1344.1631              1361.3750
 Red. masses --      1.3910                 1.5289                 1.6246
 Frc consts  --      1.4441                 1.6275                 1.7740
 IR Inten    --      9.9121                 0.4989                 0.1394

                     37                     38                     39
                      A                      A                      A
 Frequencies --   1362.7922              1484.9783              1499.7140
 Red. masses --      1.6779                 1.0811                 1.0940
 Frc consts  --      1.8360                 1.4047                 1.4497
 IR Inten    --     12.6813                 4.0952                 2.7069

                     40                     41                     42
                      A                      A                      A
 Frequencies --   1511.8677              1523.3038              3010.4757
 Red. masses --      1.1039                 1.1075                 1.0554
 Frc consts  --      1.4867                 1.5141                 5.6356
 IR Inten    --      1.0686                 0.7355                61.8422

                     43                     44                     45
                      A                      A                      A
 Frequencies --   3022.2904              3041.8479              3050.9876
 Red. masses --      1.0552                 1.0655                 1.0825
 Frc consts  --      5.6786                 5.8085                 5.9370
 IR Inten    --     71.0279                27.3926                29.4041

                     46                     47                     48
                      A                      A                      A
 Frequencies --   3058.1268              3060.9469              3068.7089
 Red. masses --      1.0655                 1.1097                 1.1101
 Frc consts  --      5.8713                 6.1256                 6.1592
 IR Inten    --     19.8525                31.5249                29.7302

                     49                     50                     51
                      A                      A                      A
 Frequencies --   3086.4506              3102.0377              3109.9872
 Red. masses --      1.0931                 1.0952                 1.1034
 Frc consts  --      6.1353                 6.2095                 6.2876
 IR Inten    --     22.7028                13.8803                51.1269

 - Thermochemistry -
 -------------------
 Temperature   298.150 Kelvin.  Pressure   1.00000 Atm.
 Atom     1 has atomic number  6 and mass  12.00000

 Molecular mass:   126.06808 amu.
 Principal axes and moments of inertia in atomic units:
                           1         2         3
     Eigenvalues --   715.84703 926.512161365.16392
           X            0.99956   0.02782   0.00993
           Y           -0.02756   0.99929  -0.02568
           Z           -0.01064   0.02540   0.99962
 This molecule is an asymmetric top.
 Rotational symmetry number  1.
 Warning -- assumption of classical behavior for rotation
           may cause significant error
 Rotational temperatures (Kelvin)      0.12099     0.09348     0.06345
 Rotational constants (GHZ):           2.52113     1.94789     1.32200
 Zero-point vibrational energy     423688.6 (Joules/Mol)
                                  101.26401 (Kcal/Mol)
 Warning -- explicit consideration of   9 degrees of freedom as
           vibrations may cause significant error
 Vibrational temperatures:    135.62   152.98   357.82   440.88   542.98
          (Kelvin)            634.99   752.26   804.19   887.67  1137.38
                             1166.93  1180.23  1244.13  1274.51  1326.05
                             1368.05  1419.98  1441.80  1449.26  1493.22
                             1524.86  1536.18  1606.64  1623.34  1664.55
                             1672.32  1709.35  1732.84  1753.64  1799.51
                             1826.65  1890.91  1896.13  1909.85  1933.95
                             1958.71  1960.75  2136.55  2157.75  2175.24
                             2191.69  4331.40  4348.40  4376.54  4389.69
                             4399.96  4404.01  4415.18  4440.71  4463.13
                             4474.57

 Zero-point correction=                           0.161374 (Hartree/Particle)
 Thermal correction to Energy=                    0.168602
 Thermal correction to Enthalpy=                  0.169546
 Thermal correction to Gibbs Free Energy=         0.129445
 Sum of electronic and zero-point Energies=           -422.998390
 Sum of electronic and thermal Energies=              -422.991162
 Sum of electronic and thermal Enthalpies=            -422.990218
 Sum of electronic and thermal Free Energies=         -423.030319

                     E (Thermal)             CV                S
                      KCal/Mol        Cal/Mol-Kelvin    Cal/Mol-Kelvin
 Total                  105.799             28.504             84.399
 Electronic               0.000              0.000              0.000
 Translational            0.889              2.981             40.409
 Rotational               0.889              2.981             28.295
 Vibrational            104.022             22.543             15.696
 Vibration     1          0.603              1.953              3.570
 Vibration     2          0.605              1.944              3.335
 Vibration     3          0.662              1.765              1.740
 Vibration     4          0.697              1.661              1.382
 Vibration     5          0.748              1.518              1.050
 Vibration     6          0.801              1.380              0.822
 Vibration     7          0.878              1.199              0.603
 Vibration     8          0.915              1.120              0.526
 Vibration     9          0.977              0.996              0.421

 Optimization completed.
    -- Stationary point found.
 Normal termination of Gaussian 09 at Mon Jan 27 13:05:30 2020.
