 Gaussian 09, Revision D.01,
 Gaussian 09:  ES64L-G09RevD.01 24-Apr-2013

 -----------------------------
 # b3lyp 6-31G(2df,p) opt Freq
 -----------------------------

 -----
 titel
 -----
 Symbolic Z-matrix:
 Charge =  0 Multiplicity = 1

 SCF Done:  E(RB3LYP) =  -423.152505631     A.U. after   13 cycles
 Optimization completed.
    -- Stationary point found.
 Normal termination of Gaussian 09 at Tue Jan 28 11:38:33 2020.

 ----------------------------------------------------------------------
 #N Geom=AllCheck Guess=TCheck SCRF=Check GenChk RB3LYP/6-31G(2df,p) Fr
 eq
 ----------------------------------------------------------------------

 Structure from the checkpoint file:  "/scratch/puck/g09_768df962-6905-4fa4-b56e-bf243add6442/Gau-24646.chk"
 -----
 titel
 -----
 Charge =  0 Multiplicity = 1

                         Standard orientation:
 ---------------------------------------------------------------------
 Center     Atomic      Atomic             Coordinates (Angstroms)
 Number     Number       Type             X           Y           Z
 ---------------------------------------------------------------------
      1          8           0       -2.860687   -0.284149    0.184727
      2          6           0       -1.768325    0.8325    0.557779    0.496066
      3          6           0       -0.687016    0.469236   -0.579945
      4          8           0       -0.310188   -0.912724   -0.770141
      5          6           0        1.057632   -1.049117   -0.400301
      6          6           0        1.277146   -0.786762    1.123092
      7          6           0        1.578666    0.670827    0.763309
      8          6           0        1.755354    0.301824   -0.705049
      9          6           0        0.621726    1.192825   -0.303203
     10          1           0       -2.472083   -1.140200   -0.033777
     11          1           0       -2.154749    1.582566    0.542652
     12          1           0       -1.340739    0.320221    1.481838
     13          1           0       -1.122107    0.818386   -1.526681
     14          1           0        1.439509   -1.976778   -0.823869
     15          1           0        0.440573   -1.021277    1.787798
     16          1           0        2.179128   -1.290257    1.484139
     17          1           0        2.168345    1.363399    1.352475
     18          1           0        2.533010    0.527172   -1.421396
     19          1           0        0.685018    2.252074   -0.523684
 ---------------------------------------------------------------------

 SCF Done:  E(RB3LYP) =  -423.152505631     A.U. after    1 cycles

 The electronic state is 1-A.
 Alpha  occ. eigenvalues --  -19.14229 -19.12312 -10.24038 -10.23123 -10.21947
 Alpha  occ. eigenvalues --  -10.20355 -10.20147 -10.19512 -10.18736  -1.04496
 Alpha  occ. eigenvalues --   -1.00406  -0.89268  -0.76926  -0.70631  -0.64913
 Alpha  occ. eigenvalues --   -0.61621  -0.58515  -0.54095  -0.52844  -0.50103
 Alpha  occ. eigenvalues --   -0.46866  -0.44392  -0.43252  -0.42140  -0.39861
 Alpha  occ. eigenvalues --   -0.39362  -0.37729  -0.36989  -0.32362  -0.30902
 Alpha  occ. eigenvalues --   -0.29376  -0.27332  -0.26528  -0.24071
 Alpha virt. eigenvalues --    0.08071   0.09777   0.10407   0.11691   0.12726
 Alpha virt. eigenvalues --    0.13192   0.13464   0.14940   0.15797   0.16846
 Alpha virt. eigenvalues --    0.17709   0.17835   0.19852   0.21220   0.21828

 Mulliken charges:
               1
     1  O   -0.424024
     2  C   -0.065826
     3  C    0.076005
     4  O   -0.295668
     5  C    0.089287
     6  C   -0.252718
     7  C   -0.080545
     8  C   -0.096320
     9  C   -0.076593
    10  H    0.288360
    11  H    0.102052
    12  H    0.087834
    13  H    0.084434
    14  H    0.085165
    15  H    0.098756
    16  H    0.103178
    17  H    0.088699
    18  H    0.092850
    19  H    0.095073
 Sum of Mulliken charges =   0.00000

 Dipole moment (field-independent basis, Debye):
    X=              2.7930    Y=              0.6998    Z=              0.1808  Tot=              2.8850
 Quadrupole moment (field-independent basis, Debye-Ang):
   XX=            -58.8076   YY=            -49.3760   ZZ=            -53.4110
   XY=             -0.3715   XZ=             -0.0084   YZ=             -0.9346

  Exact polarizability:  80.889  -2.705  72.345   1.408  -1.200  67.478
 Approx polarizability: 110.948  -3.684 109.311   2.353   0.804 104.280

                      1                      2                      3
                      A                      A                      A
 Frequencies --     93.3661               164.2339               204.4702
 Red. masses --      4.2302                 4.3291                 2.5726
 Frc consts  --      0.0217                 0.0688                 0.0634
 IR Inten    --      2.2271                 2.9505                 0.4532

                      4                      5                      6
                      A                      A                      A
 Frequencies --    343.4187               420.7927               463.0157
 Red. masses --      3.6387                 2.3676                 1.4780
 Frc consts  --      0.2528                 0.2470                 0.1867
 IR Inten    --      4.2490                 2.7403                50.0521

                      7                      8                      9
                      A                      A                      A
 Frequencies --    477.5606               517.2612               662.8441
 Red. masses --      2.2004                 2.8518                 5.1493
 Frc consts  --      0.2957                 0.4496                 1.3330
 IR Inten    --     40.7726                 9.7497                 4.4692

                     10                     11                     12
                      A                      A                      A
 Frequencies --    703.8096               752.6979               787.8837
 Red. masses --      3.6191                 2.3221                 1.8726
 Frc consts  --      1.0562                 0.7751                 0.6849
 IR Inten    --      0.9917                 3.3643                 8.7969

                     13                     14                     15
                      A                      A                      A
 Frequencies --    820.6523               838.1616               873.0521
 Red. masses --      2.1350                 3.1731                 2.2514
 Frc consts  --      0.8472                 1.3134                 1.0111
 IR Inten    --     15.5104                17.9663                 9.5988

                     16                     17                     18
                      A                      A                      A
 Frequencies --    905.4041               959.4349               969.0720
 Red. masses --      1.8233                 1.7409                 1.6482
 Frc consts  --      0.8806                 0.9442                 0.9120
 IR Inten    --      1.7584                13.9132                 5.7143

                     19                     20                     21
                      A                      A                      A
 Frequencies --    995.3569              1007.0604              1026.2904
 Red. masses --      2.1502                 2.5722                 1.9539
 Frc consts  --      1.2551                 1.5370                 1.2125
 IR Inten    --     23.2094                 5.8638                13.5558

                     22                     23                     24
                      A                      A                      A
 Frequencies --   1054.3807              1065.3460              1079.7115
 Red. masses --      1.6290                 1.9622                 2.7655
 Frc consts  --      1.0670                 1.3121                 1.8995
 IR Inten    --     44.1738                19.9741               100.8079

                     25                     26                     27
                      A                      A                      A
 Frequencies --   1109.2392              1113.7601              1127.2375
 Red. masses --      2.8061                 2.6268                 2.0752
 Frc consts  --      2.0342                 1.9198                 1.5536
 IR Inten    --     12.5426                 0.9212                21.6978

                     28                     29                     30
                      A                      A                      A
 Frequencies --   1154.5983              1203.6710              1224.7785
 Red. masses --      1.4024                 1.6730                 1.3299
 Frc consts  --      1.1015                 1.4281                 1.1754
 IR Inten    --     13.8743                 2.7275                 5.8317

                     31                     32                     33
                      A                      A                      A
 Frequencies --   1230.6964              1282.8912              1292.8573
 Red. masses --      1.3708                 1.4588                 1.4056
 Frc consts  --      1.2233                 1.4145                 1.3842
 IR Inten    --      6.5427                 6.7491                 8.6810

                     34                     35                     36
                      A                      A                      A
 Frequencies --   1326.1412              1339.7652              1363.4186
 Red. masses --      1.3728                 1.4758                 1.5234
 Frc consts  --      1.4225                 1.5607                 1.6685
 IR Inten    --      6.8018                 1.1239                22.4163

                     37                     38                     39
                      A                      A                      A
 Frequencies --   1392.3425              1403.3082              1440.3619
 Red. masses --      1.6451                 1.6313                 1.3126
 Frc consts  --      1.8790                 1.8927                 1.6045
 IR Inten    --     14.7454                10.3096                57.5487

                     40                     41                     42
                      A                      A                      A
 Frequencies --   1490.0653              1509.8500              2989.8933
 Red. masses --      1.1116                 1.0961                 1.0689
 Frc consts  --      1.4541                 1.4722                 5.6299
 IR Inten    --      1.1259                 1.4725                23.5194

                     43                     44                     45
                      A                      A                      A
 Frequencies --   3012.0939              3047.5584              3064.6395
 Red. masses --      1.0819                 1.0569                 1.0959
 Frc consts  --      5.7833                 5.7833                 6.0644
 IR Inten    --     63.3164                40.0243                49.9764

                     46                     47                     48
                      A                      A                      A
 Frequencies --   3099.2559              3130.0933              3177.3614
 Red. masses --      1.1081                 1.0906                 1.0904
 Frc consts  --      6.2709                 6.2953                 6.4861
 IR Inten    --     25.4952                36.7186                13.9616

                     49                     50                     51
                      A                      A                      A
 Frequencies --   3187.3610              3212.8374              3784.5627
 Red. masses --      1.0896                 1.0978                 1.0653
 Frc consts  --      6.5223                 6.6768                 8.9895
 IR Inten    --     13.7071                11.3302                25.5105

 - Thermochemistry -
 -------------------
 Temperature   298.150 Kelvin.  Pressure   1.00000 Atm.
 Atom     1 has atomic number  8 and mass  15.99491

 Molecular mass:   126.06808 amu.
 Principal axes and moments of inertia in atomic units:
                           1         2         3
     Eigenvalues --   524.740561342.083311416.59186
           X            0.99995  -0.00920   0.00279
           Y            0.00943   0.99515  -0.09792
           Z           -0.00188   0.09794   0.99519
 This molecule is an asymmetric top.
 Rotational symmetry number  1.
 Warning -- assumption of classical behavior for rotation
           may cause significant error
 Rotational temperatures (Kelvin)      0.16506     0.06454     0.06114
 Rotational constants (GHZ):           3.43930     1.34473     1.27400
 Zero-point vibrational energy     424051.7 (Joules/Mol)
                                  101.35080 (Kcal/Mol)
 Warning -- explicit consideration of   8 degrees of freedom as
           vibrations may cause significant error
 Vibrational temperatures:    134.33   236.30   294.19   494.10   605.43
          (Kelvin)            666.18   687.10   744.22   953.68  1012.62
                             1082.96  1133.59  1180.73  1205.93  1256.13
                             1302.67  1380.41  1394.28  1432.09  1448.93
                             1476.60  1517.02  1532.79  1553.46  1595.95
                             1602.45  1621.84  1661.21  1731.81  1762.18
                             1770.70  1845.79  1860.13  1908.02  1927.62
                             1961.65  2003.27  2019.04  2072.36  2143.87
                             2172.33  4301.78  4333.73  4384.75  4409.33
                             4459.13  4503.50  4571.51  4585.90  4622.55
                             5445.13

 Zero-point correction=                           0.161513 (Hartree/Particle)
 Thermal correction to Energy=                    0.168794
 Thermal correction to Enthalpy=                  0.169738
 Thermal correction to Gibbs Free Energy=         0.129741
 Sum of electronic and zero-point Energies=           -422.990993
 Sum of electronic and thermal Energies=              -422.983712
 Sum of electronic and thermal Enthalpies=            -422.982767
 Sum of electronic and thermal Free Energies=         -423.022765

                     E (Thermal)             CV                S
                      KCal/Mol        Cal/Mol-Kelvin    Cal/Mol-Kelvin
 Total                  105.920             29.487             84.181
 Electronic               0.000              0.000              0.000
 Translational            0.889              2.981             40.409
 Rotational               0.889              2.981             28.391
 Vibrational            104.142             23.525             15.382
 Vibration     1          0.602              1.954              3.588
 Vibration     2          0.623              1.886              2.500
 Vibration     3          0.640              1.834              2.093
 Vibration     4          0.722              1.589              1.196
 Vibration     5          0.783              1.425              0.889
 Vibration     6          0.821              1.332              0.757
 Vibration     7          0.834              1.300              0.717
 Vibration     8          0.872              1.212              0.616

 Optimization completed.
    -- Stationary point found.
 Normal termination of Gaussian 09 at Tue Jan 28 12:23:20 2020.
