 Gaussian 09, Revision D.01,
 Gaussian 09:  ES64L-G09RevD.01 24-Apr-2013

 -----------------------------
 # b3lyp 6-31G(2df,p) opt Freq
 -----------------------------

 -----
 titel
 -----
 Symbolic Z-matrix:
 Charge =  0 Multiplicity = 1

 SCF Done:  E(RB3LYP) =  -423.107372622     A.U. after   13 cycles
 Optimization completed.
    -- Stationary point found.
 Normal termination of Gaussian 09 at Tue Jan 28 02:54:38 2020.

 ----------------------------------------------------------------------
 #N Geom=AllCheck Guess=TCheck SCRF=Check GenChk RB3LYP/6-31G(2df,p) Fr
 eq
 ----------------------------------------------------------------------

 Structure from the checkpoint file:  "/scratch/puck/g09_34a1f5da-aae6-4484-905a-085299d2b946/Gau-40774.chk"
 -----
 titel
 -----
 Charge =  0 Multiplicity = 1

                         Standard orientation:
 ---------------------------------------------------------------------
 Center     Atomic      Atomic             Coordinates (Angstroms)
 Number     Number       Type             X           Y           Z
 ---------------------------------------------------------------------
      1          8           0        2.354126   -0.964659   -0.107888
      2          6           0        1.530337   -0.000228    0.504522
      3          6           0        1.252767    1.279012   -0.399004
      4          6           0       -0.102821    0.631811   -0.880219
      5          6           0       -1.545948    0.781095   -0.324768
      6          6           0       -0.935147    0.769763    1.098780
      7          6           0        0.023604   -0.240943    0.383523
      8          8           0       -0.777695   -1.396751    0.210655
      9          6           0       -1.942163   -0.734157   -0.396007
     10          1           0        1.827368   -1.448004   -0.753552
     11          1           0        1.935245    0.176029    1.505335
     12          1           0        1.193381    2.222797    0.144906
     13          1           0        1.983035    1.375464   -1.203653
     14          1           0       -0.005093    0.162106   -1.862132
     15          1           0       -2.305868    1.487732   -0.664393
     16          1           0       -0.480325    1.710873    1.399993
     17          1           0       -1.532249    0.351263    1.911750
     18          1           0       -2.076768   -1.105560   -1.417735
     19          1           0       -2.833944   -0.959532    0.196384
 ---------------------------------------------------------------------

 SCF Done:  E(RB3LYP) =  -423.107372622     A.U. after    1 cycles

 The electronic state is 1-A.
 Alpha  occ. eigenvalues --  -19.14289 -19.13881 -10.24077 -10.23674 -10.23493
 Alpha  occ. eigenvalues --  -10.20830 -10.19060 -10.18693 -10.18488  -1.04746
 Alpha  occ. eigenvalues --   -1.02069  -0.86698  -0.77195  -0.70004  -0.65860
 Alpha  occ. eigenvalues --   -0.62570  -0.57804  -0.53515  -0.51886  -0.50131
 Alpha  occ. eigenvalues --   -0.47206  -0.45191  -0.44150  -0.39395  -0.38953
 Alpha  occ. eigenvalues --   -0.37982  -0.36906  -0.36379  -0.33506  -0.32478
 Alpha  occ. eigenvalues --   -0.31733  -0.27576  -0.26613  -0.23059
 Alpha virt. eigenvalues --    0.05899   0.08493   0.10323   0.10605   0.12165
 Alpha virt. eigenvalues --    0.13217   0.14542   0.14915   0.16071   0.16498
 Alpha virt. eigenvalues --    0.17553   0.19135   0.19788   0.20627   0.22069

 Mulliken charges:
               1
     1  O   -0.432283
     2  C    0.033534
     3  C   -0.313464
     4  C   -0.049367
     5  C   -0.115744
     6  C   -0.285780
     7  C    0.428938
     8  O   -0.350197
     9  C   -0.086126
    10  H    0.292650
    11  H    0.085792
    12  H    0.110240
    13  H    0.114239
    14  H    0.070783
    15  H    0.070664
    16  H    0.108721
    17  H    0.101067
    18  H    0.105201
    19  H    0.111130
 Sum of Mulliken charges =   0.00000

 Dipole moment (field-independent basis, Debye):
    X=             -1.6280    Y=              1.5027    Z=             -0.7266  Tot=              2.3316
 Quadrupole moment (field-independent basis, Debye-Ang):
   XX=            -55.4603   YY=            -55.3267   ZZ=            -50.9813
   XY=              1.4162   XZ=             -0.1172   YZ=              2.9815

  Exact polarizability:  85.359   3.518  68.802   0.367   3.081  69.096
 Approx polarizability: 117.240   2.645 106.729   1.165   3.224 106.942

                      1                      2                      3
                      A                      A                      A
 Frequencies --     54.5377               179.5976               241.4027
 Red. masses --      1.6638                 1.8533                 4.8805
 Frc consts  --      0.0029                 0.0352                 0.1676
 IR Inten    --     43.4039                25.7392                 9.5177

                      4                      5                      6
                      A                      A                      A
 Frequencies --    327.0290               406.0520               427.7086
 Red. masses --      2.3339                 3.1058                 3.7321
 Frc consts  --      0.1471                 0.3017                 0.4023
 IR Inten    --      2.9548                 3.7805                 0.7106

                      7                      8                      9
                      A                      A                      A
 Frequencies --    442.1152               507.1723               583.4986
 Red. masses --      2.0050                 2.2378                 3.8412
 Frc consts  --      0.2309                 0.3391                 0.7705
 IR Inten    --      3.1102                 0.4235                 9.9833

                     10                     11                     12
                      A                      A                      A
 Frequencies --    663.9175               741.1704               785.2894
 Red. masses --      3.3012                 2.3034                 3.1240
 Frc consts  --      0.8573                 0.7455                 1.1350
 IR Inten    --      4.2860                 1.5405                24.0862

                     13                     14                     15
                      A                      A                      A
 Frequencies --    811.6303               839.5967               861.3215
 Red. masses --      2.8366                 4.4599                 2.6753
 Frc consts  --      1.1010                 1.8523                 1.1694
 IR Inten    --      0.2060                21.3552                 4.8291

                     16                     17                     18
                      A                      A                      A
 Frequencies --    907.1172               915.5275               936.0261
 Red. masses --      2.2641                 3.9608                 2.2512
 Frc consts  --      1.0977                 1.9561                 1.1621
 IR Inten    --      8.6116                35.3478                 9.8772

                     19                     20                     21
                      A                      A                      A
 Frequencies --    978.7078              1008.1204              1011.7851
 Red. masses --      2.1934                 2.1425                 1.6384
 Frc consts  --      1.2378                 1.2829                 0.9882
 IR Inten    --      7.0915                 2.9524                21.0883

                     22                     23                     24
                      A                      A                      A
 Frequencies --   1037.2352              1071.5407              1084.3687
 Red. masses --      2.8291                 1.8147                 1.3068
 Frc consts  --      1.7933                 1.2277                 0.9053
 IR Inten    --      4.5251                21.3487                 0.9359

                     25                     26                     27
                      A                      A                      A
 Frequencies --   1106.9522              1134.5880              1150.9759
 Red. masses --      2.6062                 1.4965                 1.4403
 Frc consts  --      1.8815                 1.1350                 1.1242
 IR Inten    --     56.4975                53.6376                16.3124

                     28                     29                     30
                      A                      A                      A
 Frequencies --   1171.6699              1198.1063              1216.8183
 Red. masses --      1.3658                 1.3844                 1.6928
 Frc consts  --      1.1047                 1.1708                 1.4768
 IR Inten    --      6.7165                 6.8196                22.6226

                     31                     32                     33
                      A                      A                      A
 Frequencies --   1232.9985              1241.4617              1258.4397
 Red. masses --      1.5301                 1.5821                 1.6239
 Frc consts  --      1.3706                 1.4366                 1.5153
 IR Inten    --      5.0232                 3.7449                 2.3566

                     34                     35                     36
                      A                      A                      A
 Frequencies --   1296.6842              1314.4969              1331.8719
 Red. masses --      1.6390                 2.4009                 1.3656
 Frc consts  --      1.6237                 2.4442                 1.4272
 IR Inten    --     13.0397                 6.9768                 9.1382

                     37                     38                     39
                      A                      A                      A
 Frequencies --   1356.8563              1428.5510              1461.6563
 Red. masses --      1.4327                 1.2979                 1.1353
 Frc consts  --      1.5541                 1.5606                 1.4290
 IR Inten    --      1.3714                73.2379                10.1934

                     40                     41                     42
                      A                      A                      A
 Frequencies --   1501.1265              1517.6433              3038.4384
 Red. masses --      1.1030                 1.1164                 1.0573
 Frc consts  --      1.4644                 1.5149                 5.7513
 IR Inten    --      5.1027                 0.5426                50.5522

                     43                     44                     45
                      A                      A                      A
 Frequencies --   3066.7342              3070.8590              3079.4631
 Red. masses --      1.0853                 1.0842                 1.0611
 Frc consts  --      6.0137                 6.0239                 5.9289
 IR Inten    --     45.5050                27.8523                22.5650

                     46                     47                     48
                      A                      A                      A
 Frequencies --   3082.6822              3092.0610              3096.1864
 Red. masses --      1.0652                 1.1079                 1.0897
 Frc consts  --      5.9638                 6.2407                 6.1549
 IR Inten    --     34.2977                29.0136                58.2155

                     49                     50                     51
                      A                      A                      A
 Frequencies --   3140.8123              3161.7671              3810.4105
 Red. masses --      1.1092                 1.1046                 1.0662
 Frc consts  --      6.4467                 6.5058                 9.1205
 IR Inten    --     17.7512                20.6604                21.5751

 - Thermochemistry -
 -------------------
 Temperature   298.150 Kelvin.  Pressure   1.00000 Atm.
 Atom     1 has atomic number  8 and mass  15.99491

 Molecular mass:   126.06808 amu.
 Principal axes and moments of inertia in atomic units:
                           1         2         3
     Eigenvalues --   567.773541118.357881326.26801
           X            0.99978   0.02082  -0.00077
           Y           -0.02075   0.99834   0.05372
           Z            0.00189  -0.05369   0.99856
 This molecule is an asymmetric top.
 Rotational symmetry number  1.
 Warning -- assumption of classical behavior for rotation
           may cause significant error
 Rotational temperatures (Kelvin)      0.15255     0.07745     0.06531
 Rotational constants (GHZ):           3.17863     1.61374     1.36077
 Zero-point vibrational energy     420982.5 (Joules/Mol)
                                  100.61723 (Kcal/Mol)
 Warning -- explicit consideration of   9 degrees of freedom as
           vibrations may cause significant error
 Vibrational temperatures:     78.47   258.40   347.32   470.52   584.22
          (Kelvin)            615.38   636.10   729.71   839.52   955.23
                             1066.38  1129.85  1167.75  1207.99  1239.25
                             1305.14  1317.24  1346.73  1408.14  1450.46
                             1455.73  1492.35  1541.71  1560.16  1592.66
                             1632.42  1656.00  1685.77  1723.81  1750.73
                             1774.01  1786.18  1810.61  1865.64  1891.27
                             1916.26  1952.21  2055.36  2102.99  2159.78
                             2183.55  4371.63  4412.34  4418.28  4430.66
                             4435.29  4448.78  4454.72  4518.92  4549.07
                             5482.32

 Zero-point correction=                           0.160344 (Hartree/Particle)
 Thermal correction to Energy=                    0.167810
 Thermal correction to Enthalpy=                  0.168754
 Thermal correction to Gibbs Free Energy=         0.128260
 Sum of electronic and zero-point Energies=           -422.947029
 Sum of electronic and thermal Energies=              -422.939563
 Sum of electronic and thermal Enthalpies=            -422.938618
 Sum of electronic and thermal Free Energies=         -422.979112

                     E (Thermal)             CV                S
                      KCal/Mol        Cal/Mol-Kelvin    Cal/Mol-Kelvin
 Total                  105.302             30.142             85.227
 Electronic               0.000              0.000              0.000
 Translational            0.889              2.981             40.409
 Rotational               0.889              2.981             28.223
 Vibrational            103.525             24.180             16.596
 Vibration     1          0.596              1.976              4.646
 Vibration     2          0.629              1.867              2.333
 Vibration     3          0.658              1.777              1.793
 Vibration     4          0.711              1.621              1.275
 Vibration     5          0.771              1.457              0.941
 Vibration     6          0.789              1.410              0.866
 Vibration     7          0.802              1.378              0.820
 Vibration     8          0.862              1.234              0.640
 Vibration     9          0.940              1.067              0.479

 Optimization completed.
    -- Stationary point found.
 Normal termination of Gaussian 09 at Tue Jan 28 03:44:47 2020.
