 Gaussian 09, Revision D.01,
 Gaussian 09:  ES64L-G09RevD.01 24-Apr-2013

 -----------------------------
 # b3lyp 6-31G(2df,p) opt Freq
 -----------------------------

 -----
 titel
 -----
 Symbolic Z-matrix:
 Charge =  0 Multiplicity = 1

 SCF Done:  E(RB3LYP) =  -423.175554253     A.U. after   14 cycles
 Optimization completed.
    -- Stationary point found.
 Normal termination of Gaussian 09 at Tue Jan 28 03:58:55 2020.

 ----------------------------------------------------------------------
 #N Geom=AllCheck Guess=TCheck SCRF=Check GenChk RB3LYP/6-31G(2df,p) Fr
 eq
 ----------------------------------------------------------------------

 Structure from the checkpoint file:  "/scratch/puck/g09_5d832498-e013-418b-866d-e26425cd2074/Gau-14357.chk"
 -----
 titel
 -----
 Charge =  0 Multiplicity = 1

                         Standard orientation:
 ---------------------------------------------------------------------
 Center     Atomic      Atomic             Coordinates (Angstroms)
 Number     Number       Type             X           Y           Z
 ---------------------------------------------------------------------
      1          8           0        2.366029   -1.074357   -0.380896
      2          6           0        1.349897   -0.297128    0.241126
      3          6           0        1.355325    1.161534   -0.253535
      4          6           0        0.111018    1.899701    0.186481
      5          6           0       -1.068924    1.289111    0.311660
      6          6           0       -1.238903   -0.152544   -0.005405
      7          8           0       -2.295199   -0.450066   -0.884592
      8          6           0       -0.999211   -1.208892    1.035713
      9          6           0        0.021683   -0.981949   -0.062682
     10          1           0        3.216198   -0.677032   -0.165704
     11          1           0        1.501677   -0.280790    1.332794
     12          1           0        2.252418    1.675826    0.113626
     13          1           0        1.431423    1.155088   -1.350144
     14          1           0        0.201787    2.959687    0.408848
     15          1           0       -1.958806    1.833567    0.617930
     16          1           0       -2.107199   -0.010238   -1.721482
     17          1           0       -0.747719   -0.892324    2.042954
     18          1           0       -1.621220   -2.094533    0.967749
     19          1           0        0.079491   -1.732865   -0.842809
 ---------------------------------------------------------------------

 SCF Done:  E(RB3LYP) =  -423.175554253     A.U. after    1 cycles

 The electronic state is 1-A.
 Alpha  occ. eigenvalues --  -19.13910 -19.13541 -10.23591 -10.23503 -10.18864
 Alpha  occ. eigenvalues --  -10.18658 -10.18186 -10.18134 -10.18060  -1.02486
 Alpha  occ. eigenvalues --   -1.01758  -0.85963  -0.78897  -0.72953  -0.64918
 Alpha  occ. eigenvalues --   -0.60455  -0.57948  -0.53879  -0.51923  -0.48487
 Alpha  occ. eigenvalues --   -0.46856  -0.45771  -0.43119  -0.40903  -0.39830
 Alpha  occ. eigenvalues --   -0.38703  -0.36918  -0.35141  -0.32653  -0.31982
 Alpha  occ. eigenvalues --   -0.29006  -0.27331  -0.25841  -0.23099
 Alpha virt. eigenvalues --    0.00750   0.07238   0.09340   0.10608   0.12042
 Alpha virt. eigenvalues --    0.12349   0.13464   0.15359   0.16889   0.18594
 Alpha virt. eigenvalues --    0.19481   0.20506   0.21106   0.22611   0.24339

 Mulliken charges:
               1
     1  O   -0.440138
     2  C    0.108870
     3  C   -0.292756
     4  C   -0.064561
     5  C   -0.155944
     6  C    0.394864
     7  O   -0.467265
     8  C   -0.331359
     9  C   -0.108435
    10  H    0.279811
    11  H    0.068908
    12  H    0.090914
    13  H    0.115523
    14  H    0.092405
    15  H    0.094087
    16  H    0.278341
    17  H    0.112168
    18  H    0.121784
    19  H    0.102784
 Sum of Mulliken charges =   0.00000

 Dipole moment (field-independent basis, Debye):
    X=              1.5023    Y=              1.8395    Z=              0.1207  Tot=              2.3780
 Quadrupole moment (field-independent basis, Debye-Ang):
   XX=            -52.3836   YY=            -54.1489   ZZ=            -50.7405
   XY=              1.4534   XZ=              2.0794   YZ=             -1.2652

  Exact polarizability:  88.866   5.708  78.677  -2.673  -0.675  62.959
 Approx polarizability: 130.943  11.684 112.151  -4.526  -0.401  98.438

                      1                      2                      3
                      A                      A                      A
 Frequencies --     98.9459               173.9008               259.4107
 Red. masses --      3.3474                 2.9619                 2.4453
 Frc consts  --      0.0193                 0.0528                 0.0970
 IR Inten    --      1.1630                 0.4828                 5.0371

                      4                      5                      6
                      A                      A                      A
 Frequencies --    286.2857               309.6279               342.8677
 Red. masses --      1.3737                 1.8987                 1.4126
 Frc consts  --      0.0663                 0.1072                 0.0978
 IR Inten    --     73.1001                39.4436                69.0824

                      7                      8                      9
                      A                      A                      A
 Frequencies --    393.1589               411.4312               440.5874
 Red. masses --      3.0186                 3.1841                 2.7947
 Frc consts  --      0.2749                 0.3176                 0.3196
 IR Inten    --      8.7318                 8.0196                10.9063

                     10                     11                     12
                      A                      A                      A
 Frequencies --    461.5671               517.0104               548.0262
 Red. masses --      4.3774                 3.5429                 2.9690
 Frc consts  --      0.5495                 0.5580                 0.5254
 IR Inten    --      6.6557                 8.6874                 1.7125

                     13                     14                     15
                      A                      A                      A
 Frequencies --    665.4476               738.3633               779.5777
 Red. masses --      4.8560                 1.5212                 1.7509
 Frc consts  --      1.2669                 0.4886                 0.6269
 IR Inten    --      2.3747                24.3085                11.1711

                     16                     17                     18
                      A                      A                      A
 Frequencies --    848.1918               920.5472               931.2766
 Red. masses --      2.3276                 1.6693                 2.1289
 Frc consts  --      0.9866                 0.8334                 1.0878
 IR Inten    --      2.5370                13.0825                 7.3775

                     19                     20                     21
                      A                      A                      A
 Frequencies --    945.7254               984.2518               989.8855
 Red. masses --      2.3661                 2.1909                 2.6102
 Frc consts  --      1.2469                 1.2505                 1.5069
 IR Inten    --      1.7465                18.1745                10.9205

                     22                     23                     24
                      A                      A                      A
 Frequencies --   1006.5172              1041.9619              1061.2379
 Red. masses --      1.4159                 1.8409                 2.2589
 Frc consts  --      0.8451                 1.1776                 1.4989
 IR Inten    --      2.6366                20.3014                74.7947

                     25                     26                     27
                      A                      A                      A
 Frequencies --   1072.3482              1102.7450              1117.5590
 Red. masses --      1.7043                 2.1961                 1.7296
 Frc consts  --      1.1547                 1.5735                 1.2727
 IR Inten    --      2.9817                20.0808                 9.5396

                     28                     29                     30
                      A                      A                      A
 Frequencies --   1185.8733              1202.8556              1227.5227
 Red. masses --      1.1809                 1.2256                 2.1014
 Frc consts  --      0.9784                 1.0448                 1.8656
 IR Inten    --      8.8206                15.3017                60.0503

                     31                     32                     33
                      A                      A                      A
 Frequencies --   1272.6943              1281.3558              1306.1706
 Red. masses --      1.2169                 1.6666                 1.4393
 Frc consts  --      1.1613                 1.6122                 1.4467
 IR Inten    --     31.3345                19.3496                90.5130

                     34                     35                     36
                      A                      A                      A
 Frequencies --   1317.7645              1370.2278              1395.2314
 Red. masses --      1.4577                 1.3432                 1.5813
 Frc consts  --      1.4914                 1.4858                 1.8136
 IR Inten    --      4.2485                14.0864                16.4806

                     37                     38                     39
                      A                      A                      A
 Frequencies --   1417.9358              1446.8287              1476.9643
 Red. masses --      1.7249                 1.5634                 1.4270
 Frc consts  --      2.0433                 1.9282                 1.8340
 IR Inten    --     14.4316                 1.3495                 6.0606

                     40                     41                     42
                      A                      A                      A
 Frequencies --   1484.8360              1703.9109              2957.0513
 Red. masses --      1.2356                 6.9297                 1.0833
 Frc consts  --      1.6051                11.8538                 5.5810
 IR Inten    --      4.9234                 5.5892                41.4408

                     43                     44                     45
                      A                      A                      A
 Frequencies --   3008.2850              3047.0198              3127.4043
 Red. masses --      1.0609                 1.1002                 1.0540
 Frc consts  --      5.6565                 6.0182                 6.0737
 IR Inten    --     32.4289                33.4008                10.7565

                     46                     47                     48
                      A                      A                      A
 Frequencies --   3149.3102              3171.6261              3177.4618
 Red. masses --      1.0835                 1.0975                 1.0893
 Frc consts  --      6.3314                 6.5043                 6.4800
 IR Inten    --      4.9882                32.8131                 1.6744

                     49                     50                     51
                      A                      A                      A
 Frequencies --   3222.2196              3792.0019              3813.2910
 Red. masses --      1.1169                 1.0660                 1.0660
 Frc consts  --      6.8322                 9.0314                 9.1330
 IR Inten    --      5.5609                14.6107                15.5132

 - Thermochemistry -
 -------------------
 Temperature   298.150 Kelvin.  Pressure   1.00000 Atm.
 Atom     1 has atomic number  8 and mass  15.99491

 Molecular mass:   126.06808 amu.
 Principal axes and moments of inertia in atomic units:
                           1         2         3
     Eigenvalues --   716.002451204.737441607.62233
           X            0.99961   0.02752  -0.00356
           Y           -0.02757   0.99951  -0.01448
           Z            0.00316   0.01458   0.99989
 This molecule is an asymmetric top.
 Rotational symmetry number  1.
 Warning -- assumption of classical behavior for rotation
           may cause significant error
 Rotational temperatures (Kelvin)      0.12097     0.07189     0.05388
 Rotational constants (GHZ):           2.52058     1.49804     1.12262
 Zero-point vibrational energy     418718.7 (Joules/Mol)
                                  100.07617 (Kcal/Mol)
 Warning -- explicit consideration of  12 degrees of freedom as
           vibrations may cause significant error
 Vibrational temperatures:    142.36   250.20   373.23   411.90   445.48
          (Kelvin)            493.31   565.67   591.96   633.91   664.09
                              743.86   788.49   957.43  1062.34  1121.64
                             1220.36  1324.46  1339.90  1360.69  1416.12
                             1424.22  1448.15  1499.15  1526.88  1542.87
                             1586.60  1607.92  1706.21  1730.64  1766.13
                             1831.12  1843.58  1879.29  1895.97  1971.45
                             2007.42  2040.09  2081.66  2125.02  2136.35
                             2451.54  4254.53  4328.25  4383.98  4499.63
                             4531.15  4563.26  4571.65  4636.05  5455.84
                             5486.47

 Zero-point correction=                           0.159482 (Hartree/Particle)
 Thermal correction to Energy=                    0.167791
 Thermal correction to Enthalpy=                  0.168735
 Thermal correction to Gibbs Free Energy=         0.127055
 Sum of electronic and zero-point Energies=           -423.016073
 Sum of electronic and thermal Energies=              -423.007764
 Sum of electronic and thermal Enthalpies=            -423.006819
 Sum of electronic and thermal Free Energies=         -423.048499

                     E (Thermal)             CV                S
                      KCal/Mol        Cal/Mol-Kelvin    Cal/Mol-Kelvin
 Total                  105.290             33.236             87.723
 Electronic               0.000              0.000              0.000
 Translational            0.889              2.981             40.409
 Rotational               0.889              2.981             28.718
 Vibrational            103.513             27.275             18.596
 Vibration     1          0.604              1.950              3.475
 Vibration     2          0.627              1.875              2.393
 Vibration     3          0.668              1.747              1.666
 Vibration     4          0.684              1.699              1.496
 Vibration     5          0.699              1.655              1.364
 Vibration     6          0.722              1.590              1.199
 Vibration     7          0.760              1.485              0.988
 Vibration     8          0.775              1.445              0.922
 Vibration     9          0.800              1.382              0.825
 Vibration    10          0.819              1.335              0.762
 Vibration    11          0.872              1.212              0.617
 Vibration    12          0.903              1.144              0.548

 Normal termination of Gaussian 09 at Tue Jan 28 04:45:22 2020.
