 Gaussian 09, Revision D.01,
 Gaussian 09:  ES64L-G09RevD.01 24-Apr-2013

 -----------------------------
 # b3lyp 6-31G(2df,p) opt Freq
 -----------------------------

 -----
 titel
 -----
 Symbolic Z-matrix:
 Charge =  0 Multiplicity = 1

 SCF Done:  E(RB3LYP) =  -423.173967929     A.U. after   13 cycles
 Optimization completed.
    -- Stationary point found.
 Normal termination of Gaussian 09 at Mon Jan 27 18:28:14 2020.

 ----------------------------------------------------------------------
 #N Geom=AllCheck Guess=TCheck SCRF=Check GenChk RB3LYP/6-31G(2df,p) Fr
 eq
 ----------------------------------------------------------------------

 Structure from the checkpoint file:  "/scratch/puck/g09_3a3860fe-7f88-4092-8390-0907717fd785/Gau-171864.chk"
 -----
 titel
 -----
 Charge =  0 Multiplicity = 1

                         Standard orientation:
 ---------------------------------------------------------------------
 Center     Atomic      Atomic             Coordinates (Angstroms)
 Number     Number       Type             X           Y           Z
 ---------------------------------------------------------------------
      1          8           0        2.296848   -0.377384    0.105662
      2          6           0        0.926222   -0.074534    0.029713
      3          6           0        0.490423    0.890471   -1.101323
      4          6           0       -0.887925    1.420802   -0.598935
      5          6           0       -1.071472    0.694671    0.759734
      6          6           0        0.386808    0.656791    1.283094
      7          6           0       -1.303511   -0.812853    0.503256
      8          8           0       -1.141317   -1.245842   -0.857793
      9          6           0       -0.011691   -1.314173    0.024662
     10          1           0        2.578375   -0.713022   -0.752002
     11          1           0        1.235062    1.687483   -1.183665
     12          1           0        0.410610    0.384590   -2.066117
     13          1           0       -0.863503    2.502222   -0.439103
     14          1           0       -1.696162    1.196792   -1.296061
     15          1           0       -1.813359    1.146614    1.418611
     16          1           0        0.837804    1.642940    1.433526
     17          1           0        0.506918    0.061081    2.192774
     18          1           0       -2.011729   -1.387446    1.093044
     19          1           0        0.398613   -2.302483    0.214846
 ---------------------------------------------------------------------

 SCF Done:  E(RB3LYP) =  -423.173967929     A.U. after    1 cycles

 The electronic state is 1-A.
 Alpha  occ. eigenvalues --  -19.15028 -19.14134 -10.23772 -10.23204 -10.22748
 Alpha  occ. eigenvalues --  -10.19223 -10.18036 -10.17974 -10.17627  -1.07104
 Alpha  occ. eigenvalues --   -1.02495  -0.84910  -0.72674  -0.71315  -0.65717
 Alpha  occ. eigenvalues --   -0.60876  -0.56524  -0.56034  -0.53131  -0.48868
 Alpha  occ. eigenvalues --   -0.46980  -0.43885  -0.42313  -0.39964  -0.38887
 Alpha  occ. eigenvalues --   -0.37733  -0.37234  -0.35268  -0.33499  -0.32601
 Alpha  occ. eigenvalues --   -0.30316  -0.28873  -0.27618  -0.24932
 Alpha virt. eigenvalues --    0.06595   0.09290   0.10166   0.10849   0.11726
 Alpha virt. eigenvalues --    0.13168   0.15456   0.16530   0.17321   0.18189
 Alpha virt. eigenvalues --    0.18555   0.19321   0.20649   0.21251   0.23210

 Mulliken charges:
               1
     1  O   -0.502981
     2  C    0.387517
     3  C   -0.261298
     4  C   -0.204781
     5  C   -0.071544
     6  C   -0.243214
     7  C    0.040644
     8  O   -0.249070
     9  C   -0.036274
    10  H    0.278875
    11  H    0.096696
    12  H    0.103746
    13  H    0.093851
    14  H    0.112820
    15  H    0.064696
    16  H    0.097014
    17  H    0.099773
    18  H    0.097075
    19  H    0.096455
 Sum of Mulliken charges =   0.00000

 Dipole moment (field-independent basis, Debye):
    X=             -0.0104    Y=              0.2952    Z=              0.3227  Tot=              0.4374
 Quadrupole moment (field-independent basis, Debye-Ang):
   XX=            -54.5900   YY=            -51.8094   ZZ=            -52.6829
   XY=             -2.2839   XZ=             -6.1778   YZ=             -0.8391

  Exact polarizability:  75.443  -1.480  73.041  -3.292  -0.034  68.411
 Approx polarizability: 112.108  -2.203 104.604  -1.778   3.984 106.144

                      1                      2                      3
                      A                      A                      A
 Frequencies --    257.3458               274.2393               291.4693
 Red. masses --      2.1682                 1.0984                 3.9302
 Frc consts  --      0.0846                 0.0487                 0.1967
 IR Inten    --      1.3647                76.0373                 7.1054

                      4                      5                      6
                      A                      A                      A
 Frequencies --    326.7855               355.8825               440.8429
 Red. masses --      4.3653                 3.5509                 2.6867
 Frc consts  --      0.2747                 0.2650                 0.3076
 IR Inten    --      2.6608                30.8666                 2.1391

                      7                      8                      9
                      A                      A                      A
 Frequencies --    462.1259               563.3109               590.4420
 Red. masses --      1.9301                 4.6952                 6.0123
 Frc consts  --      0.2429                 0.8778                 1.2349
 IR Inten    --      2.8553                 8.9772                 2.8179

                     10                     11                     12
                      A                      A                      A
 Frequencies --    604.3139               752.5479               791.9592
 Red. masses --      4.1567                 3.5906                 3.1887
 Frc consts  --      0.8944                 1.1981                 1.1784
 IR Inten    --      0.8347                 2.5009                 2.3951

                     13                     14                     15
                      A                      A                      A
 Frequencies --    798.2219               827.6189               874.6597
 Red. masses --      2.7481                 1.7267                 2.8850
 Frc consts  --      1.0316                 0.6968                 1.3004
 IR Inten    --      5.6784                 3.3418                 7.0151

                     16                     17                     18
                      A                      A                      A
 Frequencies --    880.6790               925.1265               932.1669
 Red. masses --      1.9620                 2.2821                 2.5577
 Frc consts  --      0.8966                 1.1508                 1.3095
 IR Inten    --     15.8800                10.0728                 3.3733

                     19                     20                     21
                      A                      A                      A
 Frequencies --    951.8333               987.9960               993.1300
 Red. masses --      2.2600                 2.1198                 2.1272
 Frc consts  --      1.2063                 1.2192                 1.2362
 IR Inten    --      0.7941                 2.1397                 0.9481

                     22                     23                     24
                      A                      A                      A
 Frequencies --   1023.5679              1060.6380              1085.5007
 Red. masses --      1.9347                 1.4927                 1.7269
 Frc consts  --      1.1942                 0.9894                 1.1989
 IR Inten    --      7.5312                18.2952                16.3651

                     25                     26                     27
                      A                      A                      A
 Frequencies --   1098.2570              1135.6168              1162.1992
 Red. masses --      1.3481                 1.2743                 2.0191
 Frc consts  --      0.9580                 0.9682                 1.6068
 IR Inten    --     12.4585                20.7386                24.0964

                     28                     29                     30
                      A                      A                      A
 Frequencies --   1212.4082              1230.1916              1240.2899
 Red. masses --      2.0286                 1.3516                 1.5451
 Frc consts  --      1.7569                 1.2051                 1.4004
 IR Inten    --     23.1669                11.8851                 9.6360

                     31                     32                     33
                      A                      A                      A
 Frequencies --   1257.4401              1269.8792              1277.1708
 Red. masses --      1.5235                 1.3833                 1.5115
 Frc consts  --      1.4193                 1.3143                 1.4527
 IR Inten    --     11.9842                11.6190                 1.4839

                     34                     35                     36
                      A                      A                      A
 Frequencies --   1303.9268              1324.9167              1349.3898
 Red. masses --      1.4574                 1.5977                 1.5716
 Frc consts  --      1.4599                 1.6524                 1.6860
 IR Inten    --      5.2836                23.0416                35.0749

                     37                     38                     39
                      A                      A                      A
 Frequencies --   1371.6526              1413.0526              1477.8816
 Red. masses --      1.8205                 2.7201                 1.0836
 Frc consts  --      2.0180                 3.2000                 1.3945
 IR Inten    --      3.3769                10.8762                 0.2599

                     40                     41                     42
                      A                      A                      A
 Frequencies --   1488.1152              1512.7326              3049.3319
 Red. masses --      1.1024                 1.1437                 1.0582
 Frc consts  --      1.4384                 1.5421                 5.7974
 IR Inten    --      4.6634                 4.2013                28.7999

                     43                     44                     45
                      A                      A                      A
 Frequencies --   3055.2542              3067.1752              3103.9069
 Red. masses --      1.0613                 1.0635                 1.1070
 Frc consts  --      5.8371                 5.8946                 6.2839
 IR Inten    --     26.4999                34.7310                22.8332

                     46                     47                     48
                      A                      A                      A
 Frequencies --   3106.7754              3109.9547              3128.1528
 Red. masses --      1.1035                 1.0881                 1.1030
 Frc consts  --      6.2756                 6.2004                 6.3592
 IR Inten    --     12.6649                29.3447                27.8989

                     49                     50                     51
                      A                      A                      A
 Frequencies --   3146.8317              3160.1082              3808.1847
 Red. masses --      1.0878                 1.0965                 1.0661
 Frc consts  --      6.3464                 6.4516                 9.1091
 IR Inten    --     19.6779                29.4479                21.5592

 - Thermochemistry -
 -------------------
 Temperature   298.150 Kelvin.  Pressure   1.00000 Atm.
 Atom     1 has atomic number  8 and mass  15.99491

 Molecular mass:   126.06808 amu.
 Principal axes and moments of inertia in atomic units:
                           1         2         3
     Eigenvalues --   720.11216 940.141391098.88146
           X            0.99830  -0.04567  -0.03635
           Y            0.04345   0.99727  -0.05975
           Z            0.03897   0.05807   0.99755
 This molecule is an asymmetric top.
 Rotational symmetry number  1.
 Warning -- assumption of classical behavior for rotation
           may cause significant error
 Rotational temperatures (Kelvin)      0.12028     0.09213     0.07882
 Rotational constants (GHZ):           2.50619     1.91965     1.64234
 Zero-point vibrational energy     424155.1 (Joules/Mol)
                                  101.37551 (Kcal/Mol)
 Warning -- explicit consideration of  10 degrees of freedom as
           vibrations may cause significant error
 Vibrational temperatures:    370.26   394.57   419.36   470.17   512.03
          (Kelvin)            634.27   664.90   810.48   849.51   869.47
                             1082.75  1139.45  1148.46  1190.76  1258.44
                             1267.10  1331.05  1341.18  1369.47  1421.50
                             1428.89  1472.68  1526.02  1561.79  1580.14
                             1633.90  1672.14  1744.38  1769.97  1784.50
                             1809.17  1827.07  1837.56  1876.06  1906.26
                             1941.47  1973.50  2033.07  2126.34  2141.06
                             2176.48  4387.30  4395.82  4412.98  4465.82
                             4469.95  4474.53  4500.71  4527.58  4546.69
                             5479.12

 Zero-point correction=                           0.161552 (Hartree/Particle)
 Thermal correction to Energy=                    0.168476
 Thermal correction to Enthalpy=                  0.169420
 Thermal correction to Gibbs Free Energy=         0.130882
 Sum of electronic and zero-point Energies=           -423.012416
 Sum of electronic and thermal Energies=              -423.005492
 Sum of electronic and thermal Enthalpies=            -423.004548
 Sum of electronic and thermal Free Energies=         -423.043086

                     E (Thermal)             CV                S
                      KCal/Mol        Cal/Mol-Kelvin    Cal/Mol-Kelvin
 Total                  105.720             29.697             81.110
 Electronic               0.000              0.000              0.000
 Translational            0.889              2.981             40.409
 Rotational               0.889              2.981             28.100
 Vibrational            103.943             23.735             12.602
 Vibration     1          0.667              1.750              1.680
 Vibration     2          0.677              1.721              1.569
 Vibration     3          0.687              1.690              1.465
 Vibration     4          0.710              1.622              1.276
 Vibration     5          0.731              1.563              1.140
 Vibration     6          0.801              1.381              0.824
 Vibration     7          0.820              1.334              0.760
 Vibration     8          0.919              1.111              0.517
 Vibration     9          0.948              1.052              0.466
 Vibration    10          0.963              1.023              0.442

 Normal termination of Gaussian 09 at Mon Jan 27 19:19:33 2020.
