 Gaussian 09, Revision D.01,
 Gaussian 09:  ES64L-G09RevD.01 24-Apr-2013

 -----------------------------
 # b3lyp 6-31G(2df,p) opt Freq
 -----------------------------

 -----
 titel
 -----
 Symbolic Z-matrix:
 Charge =  0 Multiplicity = 1

 SCF Done:  E(RB3LYP) =  -423.117299997     A.U. after   13 cycles
 Optimization completed.
    -- Stationary point found.
 Normal termination of Gaussian 09 at Tue Jan 28 09:51:36 2020.

 ----------------------------------------------------------------------
 #N Geom=AllCheck Guess=TCheck SCRF=Check GenChk RB3LYP/6-31G(2df,p) Fr
 eq
 ----------------------------------------------------------------------

 Structure from the checkpoint file:  "/scratch/puck/g09_3b823ed8-6af3-4b44-b5af-3b1ed63e507a/Gau-147388.chk"
 -----
 titel
 -----
 Charge =  0 Multiplicity = 1

                         Standard orientation:
 ---------------------------------------------------------------------
 Center     Atomic      Atomic             Coordinates (Angstroms)
 Number     Number       Type             X           Y           Z
 ---------------------------------------------------------------------
      1          6           0        2.891074    0.110436    0.021535
      2          6           0        1.586558    0.908708   -0.105991
      3          6           0        0.368530    0.034843   -0.061612
      4          6           0        0.007158   -1.037882   -1.131197
      5          6           0       -1.410867   -0.950033   -0.577481
      6          6           0       -1.203567   -0.688719    0.948624
      7          8           0        0.195753   -0.694281    1.195882
      8          6           0       -1.188567    0.437496   -0.026023
      9          8           0       -1.903565    1.584623   -0.236228
     10          1           0        3.757374    0.778211    0.019595
     11          1           0        2.901403   -0.462556    0.952609
     12          1           0        3.007864   -0.593571   -0.808535
     13          1           0        1.520830    1.644752    0.704627
     14          1           0        1.573091    1.471798   -1.047049
     15          1           0        0.067784   -0.634129   -2.145344
     16          1           0        0.546298   -1.987212   -1.058562
     17          1           0       -2.329750   -1.378243   -0.956693
     18          1           0       -1.888181   -1.008489    1.722852
     19          1           0       -1.796134    2.157601    0.532135
 ---------------------------------------------------------------------

 SCF Done:  E(RB3LYP) =  -423.117299997     A.U. after    1 cycles

 The electronic state is 1-A.
 Alpha  occ. eigenvalues --  -19.16308 -19.13239 -10.23793 -10.23755 -10.23202
 Alpha  occ. eigenvalues --  -10.18970 -10.18609 -10.18277 -10.17442  -1.06360
 Alpha  occ. eigenvalues --   -1.03710  -0.84817  -0.78332  -0.70979  -0.65463
 Alpha  occ. eigenvalues --   -0.60444  -0.57423  -0.56003  -0.50504  -0.47215
 Alpha  occ. eigenvalues --   -0.46712  -0.44251  -0.42986  -0.40383  -0.40195
 Alpha  occ. eigenvalues --   -0.37865  -0.36993  -0.35277  -0.34468  -0.34169
 Alpha  occ. eigenvalues --   -0.32362  -0.25789  -0.25476  -0.22496
 Alpha virt. eigenvalues --    0.06542   0.07644   0.11457   0.12149   0.13580
 Alpha virt. eigenvalues --    0.14302   0.14975   0.15219   0.16047   0.17034
 Alpha virt. eigenvalues --    0.17859   0.18581   0.19646   0.21013   0.22066

 Mulliken charges:
               1
     1  C   -0.382279
     2  C   -0.306625
     3  C    0.345928
     4  C   -0.263111
     5  C   -0.164161
     6  C   -0.005523
     7  O   -0.325565
     8  C    0.264319
     9  O   -0.447329
    10  H    0.112424
    11  H    0.140298
    12  H    0.120296
    13  H    0.101519
    14  H    0.107223
    15  H    0.104723
    16  H    0.099500
    17  H    0.094779
    18  H    0.109469
    19  H    0.294113
 Sum of Mulliken charges =   0.00000

 Dipole moment (field-independent basis, Debye):
    X=             -0.1438    Y=              0.9081    Z=              0.0629  Tot=              0.9216
 Quadrupole moment (field-independent basis, Debye-Ang):
   XX=            -52.1175   YY=            -51.3426   ZZ=            -53.4828
   XY=              1.9383   XZ=             -4.2319   YZ=              3.7597

  Exact polarizability:  83.935   2.170  71.565  -2.242   2.528  68.566
 Approx polarizability: 110.060   0.330 108.124  -0.139   0.715 108.860

                      1                      2                      3
                      A                      A                      A
 Frequencies --     72.1054               129.6733               194.7211
 Red. masses --      2.3538                 3.9477                 1.1974
 Frc consts  --      0.0072                 0.0391                 0.0267
 IR Inten    --      0.1225                 0.1677                 0.1938

                      4                      5                      6
                      A                      A                      A
 Frequencies --    244.2797               252.3338               338.0883
 Red. masses --      2.2746                 3.4979                 1.9405
 Frc consts  --      0.0800                 0.1312                 0.1307
 IR Inten    --     10.1570                 0.5849                11.0663

                      7                      8                      9
                      A                      A                      A
 Frequencies --    369.7094               420.2852               505.9464
 Red. masses --      1.2527                 2.9082                 3.2951
 Frc consts  --      0.1009                 0.3027                 0.4970
 IR Inten    --     88.4178                 3.2127                 6.7753

                     10                     11                     12
                      A                      A                      A
 Frequencies --    556.5175               596.9078               677.5494
 Red. masses --      3.6919                 3.8831                 3.1290
 Frc consts  --      0.6737                 0.8152                 0.8463
 IR Inten    --      8.9014                 6.9937                 9.2830

                     13                     14                     15
                      A                      A                      A
 Frequencies --    747.1620               766.1518               783.9982
 Red. masses --      3.6384                 2.6173                 1.9768
 Frc consts  --      1.1967                 0.9052                 0.7159
 IR Inten    --      1.2705                 2.1562                 1.3144

                     16                     17                     18
                      A                      A                      A
 Frequencies --    848.1649               883.3236               926.6417
 Red. masses --      2.3033                 1.7030                 1.8957
 Frc consts  --      0.9763                 0.7829                 0.9590
 IR Inten    --     16.6094                14.3955                31.5979

                     19                     20                     21
                      A                      A                      A
 Frequencies --    930.2510               960.4037               984.9533
 Red. masses --      1.9807                 1.6349                 2.3571
 Frc consts  --      1.0099                 0.8885                 1.3473
 IR Inten    --      6.2549                 2.4539                 5.4649

                     22                     23                     24
                      A                      A                      A
 Frequencies --   1017.8615              1034.5170              1037.9358
 Red. masses --      2.1156                 2.0124                 2.7478
 Frc consts  --      1.2914                 1.2689                 1.7441
 IR Inten    --     14.0964                16.7558                30.2894

                     25                     26                     27
                      A                      A                      A
 Frequencies --   1099.2019              1109.4917              1117.3840
 Red. masses --      2.2050                 1.4411                 2.6315
 Frc consts  --      1.5697                 1.0452                 1.9358
 IR Inten    --      8.3028                 3.8705                 4.7293

                     28                     29                     30
                      A                      A                      A
 Frequencies --   1167.1497              1211.2259              1242.1306
 Red. masses --      1.6513                 2.0217                 1.9635
 Frc consts  --      1.3254                 1.7475                 1.7850
 IR Inten    --      3.5600                43.1706                27.4214

                     31                     32                     33
                      A                      A                      A
 Frequencies --   1259.0945              1296.8102              1318.5418
 Red. masses --      1.5429                 1.6990                 1.3953
 Frc consts  --      1.4412                 1.6834                 1.4292
 IR Inten    --     12.5002                10.3259                23.2569

                     34                     35                     36
                      A                      A                      A
 Frequencies --   1319.2290              1390.4650              1407.3985
 Red. masses --      1.5757                 2.4063                 1.2402
 Frc consts  --      1.6158                 2.7410                 1.4474
 IR Inten    --     76.6459                 4.6280                 1.2184

                     37                     38                     39
                      A                      A                      A
 Frequencies --   1470.8146              1475.8747              1495.7257
 Red. masses --      1.6301                 1.1280                 1.5784
 Frc consts  --      2.0776                 1.4476                 2.0806
 IR Inten    --     22.8379                10.4605                26.7194

                     40                     41                     42
                      A                      A                      A
 Frequencies --   1497.1718              1507.6920              3028.3297
 Red. masses --      1.1881                 1.0750                 1.0596
 Frc consts  --      1.5691                 1.4397                 5.7254
 IR Inten    --     10.8802                 3.8230                22.0183

                     43                     44                     45
                      A                      A                      A
 Frequencies --   3041.8900              3050.3971              3064.2952
 Red. masses --      1.0356                 1.0562                 1.1013
 Frc consts  --      5.6459                 5.7904                 6.0930
 IR Inten    --     18.5597                38.1678                12.4547

                     46                     47                     48
                      A                      A                      A
 Frequencies --   3109.0839              3112.5555              3122.7410
 Red. masses --      1.1020                 1.1080                 1.1020
 Frc consts  --      6.2763                 6.3242                 6.3312
 IR Inten    --     32.6795                22.0467                22.0491

                     49                     50                     51
                      A                      A                      A
 Frequencies --   3202.5477              3213.3535              3783.1212
 Red. masses --      1.0924                 1.0962                 1.0660
 Frc consts  --      6.6015                 6.6691                 8.9888
 IR Inten    --      5.7644                19.8701                25.8346

 - Thermochemistry -
 -------------------
 Temperature   298.150 Kelvin.  Pressure   1.00000 Atm.
 Atom     1 has atomic number  6 and mass  12.00000

 Molecular mass:   126.06808 amu.
 Principal axes and moments of inertia in atomic units:
                           1         2         3
     Eigenvalues --   624.474541302.659451449.72714
           X            0.99960   0.02594  -0.01093
           Y           -0.02482   0.99546   0.09186
           Z            0.01327  -0.09155   0.99571
 This molecule is an asymmetric top.
 Rotational symmetry number  1.
 Warning -- assumption of classical behavior for rotation
           may cause significant error
 Rotational temperatures (Kelvin)      0.13870     0.06649     0.05974
 Rotational constants (GHZ):           2.89002     1.38543     1.24488
 Zero-point vibrational energy     415063.5 (Joules/Mol)
                                   99.20256 (Kcal/Mol)
 Warning -- explicit consideration of  11 degrees of freedom as
           vibrations may cause significant error
 Vibrational temperatures:    103.74   186.57   280.16   351.46   363.05
          (Kelvin)            486.43   531.93   604.70   727.94   800.70
                              858.82   974.84  1075.00  1102.32  1128.00
                             1220.32  1270.90  1333.23  1338.42  1381.80
                             1417.13  1464.47  1488.44  1493.36  1581.50
                             1596.31  1607.66  1679.27  1742.68  1787.15
                             1811.55  1865.82  1897.09  1898.07  2000.57
                             2024.93  2116.17  2123.45  2152.01  2154.09
                             2169.23  4357.09  4376.60  4388.84  4408.83
                             4473.27  4478.27  4492.92  4607.75  4623.29
                             5443.06

 Zero-point correction=                           0.158089 (Hartree/Particle)
 Thermal correction to Energy=                    0.166506
 Thermal correction to Enthalpy=                  0.167450
 Thermal correction to Gibbs Free Energy=         0.125122
 Sum of electronic and zero-point Energies=           -422.959211
 Sum of electronic and thermal Energies=              -422.950794
 Sum of electronic and thermal Enthalpies=            -422.949850
 Sum of electronic and thermal Free Energies=         -422.992178

                     E (Thermal)             CV                S
                      KCal/Mol        Cal/Mol-Kelvin    Cal/Mol-Kelvin
 Total                  104.484             32.689             89.087
 Electronic               0.000              0.000              0.000
 Translational            0.889              2.981             40.409
 Rotational               0.889              2.981             28.557
 Vibrational            102.707             26.727             20.121
 Vibration     1          0.598              1.967              4.095
 Vibration     2          0.612              1.924              2.951
 Vibration     3          0.635              1.847              2.182
 Vibration     4          0.660              1.772              1.771
 Vibration     5          0.664              1.759              1.714
 Vibration     6          0.718              1.599              1.221
 Vibration     7          0.742              1.534              1.081
 Vibration     8          0.783              1.426              0.891
 Vibration     9          0.861              1.237              0.643
 Vibration    10          0.912              1.125              0.531
 Vibration    11          0.955              1.038              0.455

 Optimization completed.
    -- Stationary point found.
 Normal termination of Gaussian 09 at Tue Jan 28 10:36:51 2020.
