 Gaussian 09, Revision D.01,
 Gaussian 09:  ES64L-G09RevD.01 24-Apr-2013

 -----------------------------
 # b3lyp 6-31G(2df,p) opt Freq
 -----------------------------

 -----
 titel
 -----
 Symbolic Z-matrix:
 Charge =  0 Multiplicity = 1

 SCF Done:  E(RB3LYP) =  -423.128444768     A.U. after   14 cycles
 Optimization completed.
    -- Stationary point found.
 Normal termination of Gaussian 09 at Tue Jan 28 08:09:12 2020.

 ----------------------------------------------------------------------
 #N Geom=AllCheck Guess=TCheck SCRF=Check GenChk RB3LYP/6-31G(2df,p) Fr
 eq
 ----------------------------------------------------------------------

 Structure from the checkpoint file:  "/scratch/puck/g09_00c31a85-0a49-40e6-b910-a4ae709c8515/Gau-11767.chk"
 -----
 titel
 -----
 Charge =  0 Multiplicity = 1

                         Standard orientation:
 ---------------------------------------------------------------------
 Center     Atomic      Atomic             Coordinates (Angstroms)
 Number     Number       Type             X           Y           Z
 ---------------------------------------------------------------------
      1          6           0       -1.483809    1.644425   -0.049472
      2          6           0       -1.763243    0.161786   -0.135117
      3          6           0       -0.744612   -0.678621   -0.905759
      4          6           0        0.616854   -0.571480   -0.390412
      5          6           0        1.739586   -0.493765    0.039956
      6          6           0        3.101952   -0.355788    0.553394
      7          8           0        3.907368    0.541015   -0.200631
      8          6           0       -3.140539   -0.340214   -0.030675
      9          8           0       -2.235828   -0.443615    1.072756
     10          1           0       -1.464883    2.095052   -1.047898
     11          1           0       -2.252216    2.143031    0.545509
     12          1           0       -0.511072    1.820623    0.418882
     13          1           0       -1.066208   -1.725866   -0.876059
     14          1           0       -0.760515   -0.374361   -1.961409
     15          1           0        3.062140   -0.062391    1.614671
     16          1           0        3.618126   -1.321510    0.513982
     17          1           0        3.421279    1.368692   -0.275451
     18          1           0       -3.961443    0.363846    0.100105
     19          1           0       -3.414663   -1.284379   -0.500815
 ---------------------------------------------------------------------

 SCF Done:  E(RB3LYP) =  -423.128444768     A.U. after    1 cycles

 The electronic state is 1-A.
 Alpha  occ. eigenvalues --  -19.15026 -19.13929 -10.25123 -10.25015 -10.23469
 Alpha  occ. eigenvalues --  -10.21513 -10.18478 -10.18146 -10.17485  -1.07273
 Alpha  occ. eigenvalues --   -1.02082  -0.80292  -0.75476  -0.72296  -0.67632
 Alpha  occ. eigenvalues --   -0.66080  -0.57535  -0.52910  -0.50190  -0.48369
 Alpha  occ. eigenvalues --   -0.47624  -0.45837  -0.44274  -0.43887  -0.41139
 Alpha  occ. eigenvalues --   -0.39976  -0.37257  -0.37140  -0.35361  -0.30045
 Alpha  occ. eigenvalues --   -0.28600  -0.27416  -0.26032  -0.25112
 Alpha virt. eigenvalues --    0.03166   0.04753   0.08989   0.10164   0.10729
 Alpha virt. eigenvalues --    0.11825   0.13161   0.13717   0.14708   0.15202
 Alpha virt. eigenvalues --    0.16267   0.18052   0.18332   0.19663   0.21672

 Mulliken charges:
               1
     1  C   -0.457677
     2  C    0.427600
     3  C   -0.421265
     4  C    0.048786
     5  C    0.072405
     6  C   -0.193190
     7  O   -0.402422
     8  C   -0.230779
     9  O   -0.264945
    10  H    0.119772
    11  H    0.127998
    12  H    0.134808
    13  H    0.137932
    14  H    0.132434
    15  H    0.119204
    16  H    0.140593
    17  H    0.285532
    18  H    0.112621
    19  H    0.110593
 Sum of Mulliken charges =   0.00000

 Dipole moment (field-independent basis, Debye):
    X=             -1.7667    Y=              1.0017    Z=             -1.1886  Tot=              2.3531
 Quadrupole moment (field-independent basis, Debye-Ang):
   XX=            -56.6736   YY=            -49.4747   ZZ=            -54.6786
   XY=             -0.1995   XZ=              7.2707   YZ=              1.0018

  Exact polarizability: 112.236   3.268  68.279   7.805   0.719  61.646
 Approx polarizability: 151.319   6.915  95.744  16.167  -0.923  98.286

                      1                      2                      3
                      A                      A                      A
 Frequencies --     17.7845                45.8617                87.0373
 Red. masses --      3.2654                 4.0386                 3.0514
 Frc consts  --      0.0006                 0.0050                 0.0136
 IR Inten    --      2.4274                 1.2549                 1.7905

                      4                      5                      6
                      A                      A                      A
 Frequencies --    131.6642               197.8401               231.5818
 Red. masses --      4.3923                 1.0702                 2.5438
 Frc consts  --      0.0449                 0.0247                 0.0804
 IR Inten    --      0.3191                 0.3809                19.1584

                      7                      8                      9
                      A                      A                      A
 Frequencies --    297.3626               321.1012               346.8277
 Red. masses --      1.6498                 2.3865                 2.5323
 Frc consts  --      0.0860                 0.1450                 0.1795
 IR Inten    --     63.3948                17.7237                13.1010

                     10                     11                     12
                      A                      A                      A
 Frequencies --    362.2676               390.0843               402.0453
 Red. masses --      2.5929                 3.2077                 3.0305
 Frc consts  --      0.2005                 0.2876                 0.2886
 IR Inten    --     13.0637                10.8033                 6.6118

                     13                     14                     15
                      A                      A                      A
 Frequencies --    494.0727               575.9192               734.9330
 Red. masses --      3.9876                 6.2329                 4.7130
 Frc consts  --      0.5735                 1.2180                 1.4998
 IR Inten    --      3.1682                13.5039                 8.5472

                     16                     17                     18
                      A                      A                      A
 Frequencies --    784.4389               839.3658               893.6318
 Red. masses --      3.9305                 3.3222                 1.6854
 Frc consts  --      1.4250                 1.3790                 0.7930
 IR Inten    --      1.8634                18.8933                 1.1949

                     19                     20                     21
                      A                      A                      A
 Frequencies --    928.0651               934.0508               986.5371
 Red. masses --      2.5364                 1.5049                 1.5855
 Frc consts  --      1.2871                 0.7736                 0.9092
 IR Inten    --     14.0769                 7.2251                36.3158

                     22                     23                     24
                      A                      A                      A
 Frequencies --   1041.9570              1044.6149              1103.6923
 Red. masses --      1.8263                 6.0247                 1.6804
 Frc consts  --      1.1682                 3.8734                 1.2060
 IR Inten    --      7.4898                85.1714                14.4500

                     25                     26                     27
                      A                      A                      A
 Frequencies --   1134.9541              1155.3443              1164.8916
 Red. masses --      1.3700                 3.5821                 1.3566
 Frc consts  --      1.0397                 2.8171                 1.0846
 IR Inten    --      4.2540                13.2032                 0.1227

                     28                     29                     30
                      A                      A                      A
 Frequencies --   1211.8782              1223.5497              1282.3747
 Red. masses --      1.1422                 1.3183                 1.9424
 Frc consts  --      0.9884                 1.1628                 1.8820
 IR Inten    --     14.6899                 4.8199                20.7644

                     31                     32                     33
                      A                      A                      A
 Frequencies --   1323.9493              1358.2850              1400.0413
 Red. masses --      1.7217                 1.2188                 1.4898
 Frc consts  --      1.7781                 1.3248                 1.7205
 IR Inten    --     18.7635                 4.1245                14.3004

                     34                     35                     36
                      A                      A                      A
 Frequencies --   1418.3277              1425.0721              1449.8193
 Red. masses --      1.2606                 1.8066                 1.0865
 Frc consts  --      1.4941                 2.1616                 1.3456
 IR Inten    --     91.4546                19.6456                 3.4711

                     37                     38                     39
                      A                      A                      A
 Frequencies --   1481.5528              1492.5893              1498.4020
 Red. masses --      1.0521                 1.0793                 1.0654
 Frc consts  --      1.3607                 1.4167                 1.4093
 IR Inten    --      5.1775                 0.8181                 2.6059

                     40                     41                     42
                      A                      A                      A
 Frequencies --   1535.5223              2361.3130              2976.7085
 Red. masses --      1.3823                11.8658                 1.0714
 Frc consts  --      1.9202                38.9810                 5.5934
 IR Inten    --      4.5100                 5.8864                47.1685

                     43                     44                     45
                      A                      A                      A
 Frequencies --   3016.8805              3040.1810              3062.1948
 Red. masses --      1.0627                 1.0369                 1.0884
 Frc consts  --      5.6985                 5.6463                 6.0133
 IR Inten    --     16.0357                14.8751                19.6684

                     46                     47                     48
                      A                      A                      A
 Frequencies --   3064.9526              3078.1855              3107.3547
 Red. masses --      1.0968                 1.0509                 1.0991
 Frc consts  --      6.0702                 5.8666                 6.2530
 IR Inten    --      6.7593                29.4575                15.1185

                     49                     50                     51
                      A                      A                      A
 Frequencies --   3130.3826              3162.6368              3817.6931
 Red. masses --      1.1020                 1.1191                 1.0663
 Frc consts  --      6.3622                 6.5950                 9.1561
 IR Inten    --     16.6262                25.6048                17.2797

 - Thermochemistry -
 -------------------
 Temperature   298.150 Kelvin.  Pressure   1.00000 Atm.
 Atom     1 has atomic number  6 and mass  12.00000

 Molecular mass:   126.06808 amu.
 Principal axes and moments of inertia in atomic units:
                           1         2         3
     Eigenvalues --   431.223502801.591602919.01822
           X            0.99989  -0.00676   0.01358
           Y            0.00617   0.99907   0.04259
           Z           -0.01385  -0.04250   0.99900
 This molecule is an asymmetric top.
 Rotational symmetry number  1.
 Rotational temperatures (Kelvin)      0.20086     0.03092     0.02967
 Rotational constants (GHZ):           4.18516     0.64418     0.61827
 Zero-point vibrational energy     410126.4 (Joules/Mol)
                                   98.02255 (Kcal/Mol)
 Warning -- explicit consideration of  14 degrees of freedom as
           vibrations may cause significant error
 Vibrational temperatures:     25.59    65.98   125.23   189.44   284.65
          (Kelvin)            333.19   427.84   461.99   499.01   521.22
                              561.24   578.45   710.86   828.62  1057.40
                             1128.63  1207.66  1285.74  1335.28  1343.89
                             1419.41  1499.14  1502.97  1587.97  1632.94
                             1662.28  1676.02  1743.62  1760.41  1845.05
                             1904.87  1954.27  2014.34  2040.65  2050.36
                             2085.96  2131.62  2147.50  2155.86  2209.27
                             3397.40  4282.81  4340.61  4374.14  4405.81
                             4409.78  4428.82  4470.78  4503.92  4550.32
                             5492.80

 Zero-point correction=                           0.156209 (Hartree/Particle)
 Thermal correction to Energy=                    0.166558
 Thermal correction to Enthalpy=                  0.167503
 Thermal correction to Gibbs Free Energy=         0.118794
 Sum of electronic and zero-point Energies=           -422.972236
 Sum of electronic and thermal Energies=              -422.961886
 Sum of electronic and thermal Enthalpies=            -422.960942
 Sum of electronic and thermal Free Energies=         -423.009651

                     E (Thermal)             CV                S
                      KCal/Mol        Cal/Mol-Kelvin    Cal/Mol-Kelvin
 Total                  104.517             36.191            102.516
 Electronic               0.000              0.000              0.000
 Translational            0.889              2.981             40.409
 Rotational               0.889              2.981             29.646
 Vibrational            102.739             30.230             32.462
 Vibration     1          0.593              1.986              6.867
 Vibration     2          0.595              1.979              4.988
 Vibration     3          0.601              1.958              3.726
 Vibration     4          0.612              1.922              2.922
 Vibration     5          0.637              1.843              2.153
 Vibration     6          0.653              1.793              1.867
 Vibration     7          0.691              1.679              1.432
 Vibration     8          0.707              1.633              1.304
 Vibration     9          0.725              1.582              1.181
 Vibration    10          0.736              1.550              1.112
 Vibration    11          0.758              1.491              1.000
 Vibration    12          0.768              1.466              0.955
 Vibration    13          0.850              1.263              0.673
 Vibration    14          0.932              1.083              0.493

 Optimization completed on the basis of negligible forces.
    -- Stationary point found.
 Normal termination of Gaussian 09 at Tue Jan 28 08:45:07 2020.
