 Gaussian 09, Revision D.01,
 Gaussian 09:  ES64L-G09RevD.01 24-Apr-2013

 -----------------------------
 # b3lyp 6-31G(2df,p) opt Freq
 -----------------------------

 -----
 titel
 -----
 Symbolic Z-matrix:
 Charge =  0 Multiplicity = 1

 SCF Done:  E(RB3LYP) =  -423.226738161     A.U. after   14 cycles
 Optimization completed.
    -- Stationary point found.
 Normal termination of Gaussian 09 at Tue Jan 28 00:48:26 2020.

 ----------------------------------------------------------------------
 #N Geom=AllCheck Guess=TCheck SCRF=Check GenChk RB3LYP/6-31G(2df,p) Fr
 eq
 ----------------------------------------------------------------------

 Structure from the checkpoint file:  "/scratch/puck/g09_5834e36b-0f14-4ed1-b6b8-c7e24364199a/Gau-38487.chk"
 -----
 titel
 -----
 Charge =  0 Multiplicity = 1

                         Standard orientation:
 ---------------------------------------------------------------------
 Center     Atomic      Atomic             Coordinates (Angstroms)
 Number     Number       Type             X           Y           Z
 ---------------------------------------------------------------------
      1          6           0       -2.296159   -1.216414    0.065849
      2          6           0       -1.072762   -0.511100   -0.502796
      3          8           0        0.071560   -1.169876    0.085135
      4          6           0        1.322266   -0.646883    0.010845
      5          8           0        2.251419   -1.298860    0.401539
      6          6           0        1.461914    0.757382   -0.557405
      7          6           0        0.275461    1.658075   -0.278393
      8          6           0       -0.480293    1.537048    1.025373
      9          6           0       -1.064825    0.983492   -0.250696
     10          1           0       -2.361606   -1.053530    1.145179
     11          1           0       -3.205950   -0.828078   -0.401696
     12          1           0       -2.238145   -2.291356   -0.122155
     13          1           0       -1.029112   -0.684361   -1.588404
     14          1           0        2.397786    1.159689   -0.161709
     15          1           0        1.597966    0.655923   -1.643395
     16          1           0        0.340549    2.647254   -0.720281
     17          1           0       -0.117110    0.839092    1.772225
     18          1           0       -0.927058    2.435182    1.435791
     19          1           0       -1.914769    1.500463   -0.685610
 ---------------------------------------------------------------------

 SCF Done:  E(RB3LYP) =  -423.226738161     A.U. after    1 cycles

 The electronic state is 1-A.
 Alpha  occ. eigenvalues --  -19.17500 -19.11330 -10.30160 -10.25579 -10.20684
 Alpha  occ. eigenvalues --  -10.20406 -10.20301 -10.19617 -10.18513  -1.09075
 Alpha  occ. eigenvalues --   -1.01037  -0.88022  -0.78593  -0.74121  -0.65680
 Alpha  occ. eigenvalues --   -0.61780  -0.60157  -0.52833  -0.52533  -0.50350
 Alpha  occ. eigenvalues --   -0.46954  -0.45192  -0.43603  -0.41530  -0.40423
 Alpha  occ. eigenvalues --   -0.39447  -0.39152  -0.37899  -0.36592  -0.33896
 Alpha  occ. eigenvalues --   -0.30563  -0.28744  -0.28315  -0.25909
 Alpha virt. eigenvalues --    0.01639   0.07225   0.10503   0.10951   0.12110
 Alpha virt. eigenvalues --    0.12345   0.13597   0.14763   0.15790   0.16646
 Alpha virt. eigenvalues --    0.17699   0.18057   0.18828   0.20248   0.22001

 Mulliken charges:
               1
     1  C   -0.389449
     2  C    0.107662
     3  O   -0.237780
     4  C    0.396925
     5  O   -0.325152
     6  C   -0.356887
     7  C   -0.048224
     8  C   -0.303902
     9  C   -0.025910
    10  H    0.132103
    11  H    0.117499
    12  H    0.132659
    13  H    0.089761
    14  H    0.138974
    15  H    0.133200
    16  H    0.093287
    17  H    0.136111
    18  H    0.116345
    19  H    0.092778
 Sum of Mulliken charges =   0.00000

 Dipole moment (field-independent basis, Debye):
    X=             -2.8874    Y=              2.8996    Z=             -1.5745  Tot=              4.3844
 Quadrupole moment (field-independent basis, Debye-Ang):
   XX=            -56.7083   YY=            -54.9389   ZZ=            -51.4588
   XY=              5.2550   XZ=             -1.7397   YZ=              1.4006

  Exact polarizability:  86.475   0.310  74.781   0.969  -0.323  64.551
 Approx polarizability: 122.291  -3.905 104.433   5.290  -2.830 101.188

                      1                      2                      3
                      A                      A                      A
 Frequencies --     93.3920               121.6530               219.5244
 Red. masses --      3.3962                 4.5746                 1.7270
 Frc consts  --      0.0175                 0.0399                 0.0490
 IR Inten    --      2.1320                 0.3262                 0.5807

                      4                      5                      6
                      A                      A                      A
 Frequencies --    248.3206               292.3662               328.3255
 Red. masses --      1.3499                 2.8450                 2.5772
 Frc consts  --      0.0490                 0.1433                 0.1637
 IR Inten    --      0.5328                 1.6709                 1.2024

                      7                      8                      9
                      A                      A                      A
 Frequencies --    434.0792               461.1800               516.7258
 Red. masses --      3.4074                 5.9362                 4.2804
 Frc consts  --      0.3783                 0.7439                 0.6734
 IR Inten    --      1.1969                 2.2261                 5.1383

                     10                     11                     12
                      A                      A                      A
 Frequencies --    559.7357               619.3894               688.7500
 Red. masses --      2.6082                 3.1197                 3.6672
 Frc consts  --      0.4815                 0.7052                 1.0250
 IR Inten    --      4.2315                 0.4203                 3.2648

                     13                     14                     15
                      A                      A                      A
 Frequencies --    763.0467               795.2192               834.6717
 Red. masses --      2.1728                 3.3885                 1.3755
 Frc consts  --      0.7454                 1.2625                 0.5646
 IR Inten    --      8.4916                 9.2336                10.3647

                     16                     17                     18
                      A                      A                      A
 Frequencies --    864.0182               913.0516               968.9775
 Red. masses --      1.8336                 3.0866                 2.3702
 Frc consts  --      0.8065                 1.5161                 1.3112
 IR Inten    --      2.1083                 5.0182                10.8180

                     19                     20                     21
                      A                      A                      A
 Frequencies --   1000.6924              1026.8952              1036.6158
 Red. masses --      2.1921                 1.4788                 2.6478
 Frc consts  --      1.2933                 0.9188                 1.6764
 IR Inten    --     11.4731                 2.3161                32.5241

                     22                     23                     24
                      A                      A                      A
 Frequencies --   1070.9065              1090.0461              1100.1618
 Red. masses --      1.3452                 1.8510                 1.6439
 Frc consts  --      0.9090                 1.2958                 1.1723
 IR Inten    --      3.6753                37.6650                25.4324

                     25                     26                     27
                      A                      A                      A
 Frequencies --   1123.2545              1141.1839              1173.0062
 Red. masses --      1.2385                 2.1552                 2.0227
 Frc consts  --      0.9206                 1.6537                 1.6398
 IR Inten    --      1.6788                12.6964                50.9006

                     28                     29                     30
                      A                      A                      A
 Frequencies --   1210.2959              1216.0867              1253.3665
 Red. masses --      1.7645                 1.4192                 1.7967
 Frc consts  --      1.5228                 1.2366                 1.6630
 IR Inten    --     91.1482                 9.0041               107.3818

                     31                     32                     33
                      A                      A                      A
 Frequencies --   1332.3235              1353.7630              1374.8050
 Red. masses --      1.9358                 1.3399                 1.5656
 Frc consts  --      2.0246                 1.4467                 1.7435
 IR Inten    --      4.4295                 8.7417                34.9749

                     34                     35                     36
                      A                      A                      A
 Frequencies --   1385.7245              1410.2184              1422.6218
 Red. masses --      1.5130                 1.2855                 1.7638
 Frc consts  --      1.7117                 1.5063                 2.1032
 IR Inten    --      2.9877                 9.2057                22.5977

                     37                     38                     39
                      A                      A                      A
 Frequencies --   1468.6086              1485.5610              1496.3079
 Red. masses --      1.0808                 1.0530                 1.1163
 Frc consts  --      1.3734                 1.3692                 1.4726
 IR Inten    --      5.8473                 2.1705                 2.9009

                     40                     41                     42
                      A                      A                      A
 Frequencies --   1498.7349              1846.1942              2991.8247
 Red. masses --      1.3322                12.2936                 1.0834
 Frc consts  --      1.7631                24.6879                 5.7135
 IR Inten    --      5.2240               338.1270                38.3132

                     43                     44                     45
                      A                      A                      A
 Frequencies --   3020.7845              3046.7787              3099.7754
 Red. masses --      1.0689                 1.0347                 1.0921
 Frc consts  --      5.7467                 5.6589                 6.1826
 IR Inten    --     14.3654                13.6601                 9.8678

                     46                     47                     48
                      A                      A                      A
 Frequencies --   3121.6640              3130.1654              3138.5780
 Red. masses --      1.1015                 1.1028                 1.0543
 Frc consts  --      6.3242                 6.3665                 6.1190
 IR Inten    --     16.0619                17.3417                 8.3060

                     49                     50                     51
                      A                      A                      A
 Frequencies --   3151.3364              3160.6641              3224.0814
 Red. masses --      1.0875                 1.0918                 1.1162
 Frc consts  --      6.3633                 6.4260                 6.8358
 IR Inten    --     12.2253                17.1500                 7.2992

 - Thermochemistry -
 -------------------
 Temperature   298.150 Kelvin.  Pressure   1.00000 Atm.
 Atom     1 has atomic number  6 and mass  12.00000

 Molecular mass:   126.06808 amu.
 Principal axes and moments of inertia in atomic units:
                           1         2         3
     Eigenvalues --   768.966131053.492951559.72149
           X            0.99164   0.12843  -0.01286
           Y           -0.12834   0.99170   0.00768
           Z            0.01374  -0.00597   0.99989
 This molecule is an asymmetric top.
 Rotational symmetry number  1.
 Warning -- assumption of classical behavior for rotation
           may cause significant error
 Rotational temperatures (Kelvin)      0.11264     0.08222     0.05553
 Rotational constants (GHZ):           2.34697     1.71310     1.15709
 Zero-point vibrational energy     420639.6 (Joules/Mol)
                                  100.53528 (Kcal/Mol)
 Warning -- explicit consideration of  11 degrees of freedom as
           vibrations may cause significant error
 Vibrational temperatures:    134.37   175.03   315.85   357.28   420.65
          (Kelvin)            472.39   624.54   663.53   743.45   805.33
                              891.16   990.96  1097.85  1144.14  1200.90
                             1243.13  1313.68  1394.14  1439.77  1477.47
                             1491.46  1540.79  1568.33  1582.89  1616.11
                             1641.91  1687.69  1741.34  1749.68  1803.31
                             1916.91  1947.76  1978.04  1993.75  2028.99
                             2046.83  2113.00  2137.39  2152.85  2156.34
                             2656.26  4304.56  4346.23  4383.63  4459.88
                             4491.37  4503.60  4515.71  4534.06  4547.49
                             4638.73

 Zero-point correction=                           0.160213 (Hartree/Particle)
 Thermal correction to Energy=                    0.168270
 Thermal correction to Enthalpy=                  0.169214
 Thermal correction to Gibbs Free Energy=         0.127620
 Sum of electronic and zero-point Energies=           -423.066525
 Sum of electronic and thermal Energies=              -423.058469
 Sum of electronic and thermal Enthalpies=            -423.057524
 Sum of electronic and thermal Free Energies=         -423.099118

                     E (Thermal)             CV                S
                      KCal/Mol        Cal/Mol-Kelvin    Cal/Mol-Kelvin
 Total                  105.591             31.303             87.542
 Electronic               0.000              0.000              0.000
 Translational            0.889              2.981             40.409
 Rotational               0.889              2.981             28.626
 Vibrational            103.813             25.341             18.507
 Vibration     1          0.602              1.954              3.588
 Vibration     2          0.609              1.931              3.074
 Vibration     3          0.647              1.811              1.963
 Vibration     4          0.662              1.766              1.742
 Vibration     5          0.688              1.688              1.460
 Vibration     6          0.712              1.619              1.268
 Vibration     7          0.795              1.396              0.845
 Vibration     8          0.819              1.336              0.763
 Vibration     9          0.872              1.213              0.618
 Vibration    10          0.915              1.118              0.524
 Vibration    11          0.979              0.991              0.417

 Optimization completed.
    -- Stationary point found.
 Normal termination of Gaussian 09 at Tue Jan 28 02:57:47 2020.
