 Gaussian 09, Revision D.01,
 Gaussian 09:  ES64L-G09RevD.01 24-Apr-2013

 -----------------------------
 # b3lyp 6-31G(2df,p) opt Freq
 -----------------------------

 -----
 titel
 -----
 Symbolic Z-matrix:
 Charge =  0 Multiplicity = 1

 SCF Done:  E(RB3LYP) =  -423.181861778     A.U. after   14 cycles
 Optimization completed.
    -- Stationary point found.
 Normal termination of Gaussian 09 at Mon Jan 27 17:34:16 2020.

 ----------------------------------------------------------------------
 #N Geom=AllCheck Guess=TCheck SCRF=Check GenChk RB3LYP/6-31G(2df,p) Fr
 eq
 ----------------------------------------------------------------------

 Structure from the checkpoint file:  "/scratch/puck/g09_86c44f06-58d6-4c3d-ad48-56fac310c877/Gau-15092.chk"
 -----
 titel
 -----
 Charge =  0 Multiplicity = 1

                         Standard orientation:
 ---------------------------------------------------------------------
 Center     Atomic      Atomic             Coordinates (Angstroms)
 Number     Number       Type             X           Y           Z
 ---------------------------------------------------------------------
      1          6           0       -2.190800    0.664892   -0.591118
      2          6           0       -1.006839   -0.044469    0.001047
      3          6           0       -1.117208   -1.249304    0.862955
      4          6           0       -0.356997   -1.395340   -0.454888
      5          6           0        0.988765   -0.782422   -0.285545
      6          8           0        2.111083   -1.100589   -0.573856
      7          6           0        0.391511    0.575307    0.213584
      8          6           0        0.757362    1.713437   -0.733992
      9          8           0        0.627898    0.928674    1.565913
     10          1           0       -1.935895    1.187244   -1.518428
     11          1           0       -2.995881   -0.042493   -0.813207
     12          1           0       -2.588635    1.406016    0.111560
     13          1           0       -0.586365   -1.301633    1.806513
     14          1           0       -2.084069   -1.743380    0.858873
     15          1           0       -0.667532   -2.103727   -1.213449
     16          1           0        1.833009    1.909505   -0.675506
     17          1           0        0.525705    1.467655   -1.774730
     18          1           0        0.218251    2.623795   -0.455814
     19          1           0        1.574803    1.079724    1.665480
 ---------------------------------------------------------------------

 SCF Done:  E(RB3LYP) =  -423.181861778     A.U. after    1 cycles

 The electronic state is 1-A.
 Alpha  occ. eigenvalues --  -19.14431 -19.12881 -10.26093 -10.24456 -10.21614
 Alpha  occ. eigenvalues --  -10.20458 -10.20278 -10.19188 -10.18480  -1.04248
 Alpha  occ. eigenvalues --   -1.02379  -0.90510  -0.75772  -0.73568  -0.67226
 Alpha  occ. eigenvalues --   -0.62655  -0.55888  -0.53927  -0.50158  -0.48082
 Alpha  occ. eigenvalues --   -0.45975  -0.43449  -0.42387  -0.41784  -0.40882
 Alpha  occ. eigenvalues --   -0.39750  -0.39217  -0.38175  -0.36186  -0.34061
 Alpha  occ. eigenvalues --   -0.30361  -0.29919  -0.27628  -0.22581
 Alpha virt. eigenvalues --   -0.01091   0.06504   0.09984   0.10141   0.12519
 Alpha virt. eigenvalues --    0.13093   0.14448   0.14657   0.15056   0.15860
 Alpha virt. eigenvalues --    0.17719   0.17916   0.19670   0.21282   0.22717

 Mulliken charges:
               1
     1  C   -0.506259
     2  C    0.352628
     3  C   -0.327383
     4  C   -0.248222
     5  C    0.397076
     6  O   -0.344361
     7  C    0.186230
     8  C   -0.454180
     9  O   -0.474933
    10  H    0.125430
    11  H    0.123543
    12  H    0.136136
    13  H    0.138057
    14  H    0.120264
    15  H    0.108884
    16  H    0.127247
    17  H    0.125262
    18  H    0.126729
    19  H    0.287851
 Sum of Mulliken charges =   0.00000

 Dipole moment (field-independent basis, Debye):
    X=             -2.1988    Y=              0.9890    Z=             -0.2541  Tot=              2.4243
 Quadrupole moment (field-independent basis, Debye-Ang):
   XX=            -54.5309   YY=            -52.9115   ZZ=            -53.8475
   XY=              6.1165   XZ=              4.1035   YZ=             -1.5530

  Exact polarizability:  85.672   1.568  76.671  -1.517  -0.258  66.259
 Approx polarizability: 129.322  -2.973 109.752  -6.054   4.019 102.472

                      1                      2                      3
                      A                      A                      A
 Frequencies --     96.2496               163.2421               188.1190
 Red. masses --      4.3001                 2.4494                 1.1089
 Frc consts  --      0.0235                 0.0385                 0.0231
 IR Inten    --      2.5044                11.2596                 2.1186

                      4                      5                      6
                      A                      A                      A
 Frequencies --    219.2901               227.8461               257.5614
 Red. masses --      1.4541                 2.6351                 1.2855
 Frc consts  --      0.0412                 0.0806                 0.0502
 IR Inten    --      8.2491                22.9391                17.6161

                      7                      8                      9
                      A                      A                      A
 Frequencies --    269.6838               306.4995               355.0112
 Red. masses --      2.7660                 2.1346                 2.6964
 Frc consts  --      0.1185                 0.1181                 0.2002
 IR Inten    --      1.2523                47.9851                 1.2740

                     10                     11                     12
                      A                      A                      A
 Frequencies --    386.3934               490.8146               527.3479
 Red. masses --      2.6681                 3.6479                 3.0910
 Frc consts  --      0.2347                 0.5178                 0.5065
 IR Inten    --      4.6206                 8.8192                 2.5793

                     13                     14                     15
                      A                      A                      A
 Frequencies --    589.3143               688.1488               696.5510
 Red. masses --      5.0607                 3.9704                 3.3668
 Frc consts  --      1.0355                 1.1078                 0.9624
 IR Inten    --      1.1286                 5.7293                 2.7359

                     16                     17                     18
                      A                      A                      A
 Frequencies --    744.0697               813.7753               861.6728
 Red. masses --      3.9074                 2.8389                 2.6508
 Frc consts  --      1.2746                 1.1077                 1.1596
 IR Inten    --     16.8969                 9.0702                15.2150

                     19                     20                     21
                      A                      A                      A
 Frequencies --    921.9446               956.7803               980.2864
 Red. masses --      1.4804                 1.6527                 1.3948
 Frc consts  --      0.7414                 0.8914                 0.7897
 IR Inten    --     25.0134                14.1931                 5.7547

                     22                     23                     24
                      A                      A                      A
 Frequencies --    998.0749              1035.6696              1066.1167
 Red. masses --      1.3865                 2.3019                 1.4636
 Frc consts  --      0.8138                 1.4547                 0.9801
 IR Inten    --      3.1167                17.8161                 5.3753

                     25                     26                     27
                      A                      A                      A
 Frequencies --   1089.8645              1107.0805              1118.8787
 Red. masses --      1.4347                 1.4759                 2.2055
 Frc consts  --      1.0040                 1.0657                 1.6268
 IR Inten    --     20.4718                10.6942                64.2302

                     28                     29                     30
                      A                      A                      A
 Frequencies --   1160.5096              1207.5546              1242.7381
 Red. masses --      4.2045                 3.2136                 2.1493
 Frc consts  --      3.3363                 2.7609                 1.9557
 IR Inten    --     13.5691                27.4589                21.8952

                     31                     32                     33
                      A                      A                      A
 Frequencies --   1268.4711              1357.1224              1386.6492
 Red. masses --      2.1824                 2.2248                 1.8647
 Frc consts  --      2.0689                 2.4142                 2.1125
 IR Inten    --     27.2982                18.3388                 8.5949

                     34                     35                     36
                      A                      A                      A
 Frequencies --   1401.4541              1423.6497              1481.7378
 Red. masses --      1.3017                 1.5099                 1.0630
 Frc consts  --      1.5063                 1.8031                 1.3750
 IR Inten    --      4.7367                 2.4566                 8.3448

                     37                     38                     39
                      A                      A                      A
 Frequencies --   1483.1151              1491.8817              1500.4174
 Red. masses --      1.0505                 1.0727                 1.1061
 Frc consts  --      1.3615                 1.4067                 1.4671
 IR Inten    --      0.6483                 2.8244                 4.5543

                     40                     41                     42
                      A                      A                      A
 Frequencies --   1502.1962              1871.6796              3031.3825
 Red. masses --      1.1881                12.3202                 1.0358
 Frc consts  --      1.5797                25.4291                 5.6078
 IR Inten    --      6.9039               315.5172                20.9072

                     43                     44                     45
                      A                      A                      A
 Frequencies --   3036.0422              3093.3091              3104.9328
 Red. masses --      1.0344                 1.0997                 1.1013
 Frc consts  --      5.6179                 6.1997                 6.2557
 IR Inten    --     16.8101                12.8380                26.3317

                     46                     47                     48
                      A                      A                      A
 Frequencies --   3108.4944              3116.9409              3132.3054
 Red. masses --      1.1008                 1.1027                 1.0540
 Frc consts  --      6.2668                 6.3121                 6.0931
 IR Inten    --     11.9820                14.4598                14.5804

                     49                     50                     51
                      A                      A                      A
 Frequencies --   3191.1621              3219.7764              3800.9117
 Red. masses --      1.0944                 1.1164                 1.0659
 Frc consts  --      6.5662                 6.8190                 9.0725
 IR Inten    --      7.5229                 3.2189                25.7235

 - Thermochemistry -
 -------------------
 Temperature   298.150 Kelvin.  Pressure   1.00000 Atm.
 Atom     1 has atomic number  6 and mass  12.00000

 Molecular mass:   126.06808 amu.
 Principal axes and moments of inertia in atomic units:
                           1         2         3
     Eigenvalues --   842.949881065.204051318.14545
           X            0.99420   0.10525   0.02216
           Y           -0.10302   0.99102  -0.08521
           Z           -0.03093   0.08244   0.99612
 This molecule is an asymmetric top.
 Rotational symmetry number  1.
 Warning -- assumption of classical behavior for rotation
           may cause significant error
 Rotational temperatures (Kelvin)      0.10275     0.08131     0.06571
 Rotational constants (GHZ):           2.14098     1.69427     1.36915
 Zero-point vibrational energy     411340.3 (Joules/Mol)
                                   98.31268 (Kcal/Mol)
 Warning -- explicit consideration of  13 degrees of freedom as
           vibrations may cause significant error
 Vibrational temperatures:    138.48   234.87   270.66   315.51   327.82
          (Kelvin)            370.57   388.01   440.98   510.78   555.93
                              706.17   758.74   847.89   990.09  1002.18
                             1070.55  1170.84  1239.75  1326.47  1376.59
                             1410.41  1436.01  1490.10  1533.90  1568.07
                             1592.84  1609.81  1669.71  1737.40  1788.02
                             1825.04  1952.59  1995.08  2016.38  2048.31
                             2131.89  2133.87  2146.48  2158.76  2161.32
                             2692.93  4361.48  4368.18  4450.58  4467.30
                             4472.42  4484.58  4506.68  4591.36  4632.53
                             5468.66

 Zero-point correction=                           0.156671 (Hartree/Particle)
 Thermal correction to Energy=                    0.166012
 Thermal correction to Enthalpy=                  0.166956
 Thermal correction to Gibbs Free Energy=         0.123250
 Sum of electronic and zero-point Energies=           -423.025191
 Sum of electronic and thermal Energies=              -423.015850
 Sum of electronic and thermal Enthalpies=            -423.014906
 Sum of electronic and thermal Free Energies=         -423.058612

                     E (Thermal)             CV                S
                      KCal/Mol        Cal/Mol-Kelvin    Cal/Mol-Kelvin
 Total                  104.174             35.375             91.987
 Electronic               0.000              0.000              0.000
 Translational            0.889              2.981             40.409
 Rotational               0.889              2.981             28.561
 Vibrational            102.396             29.413             23.017
 Vibration     1          0.603              1.952              3.529
 Vibration     2          0.623              1.888              2.512
 Vibration     3          0.633              1.856              2.246
 Vibration     4          0.647              1.812              1.965
 Vibration     5          0.651              1.799              1.896
 Vibration     6          0.667              1.750              1.678
 Vibration     7          0.674              1.729              1.598
 Vibration     8          0.697              1.661              1.381
 Vibration     9          0.731              1.565              1.144
 Vibration    10          0.755              1.499              1.014
 Vibration    11          0.847              1.270              0.681
 Vibration    12          0.882              1.189              0.593
 Vibration    13          0.947              1.055              0.468

 Normal termination of Gaussian 09 at Mon Jan 27 19:33:41 2020.
