 Gaussian 09, Revision D.01,
 Gaussian 09:  ES64L-G09RevD.01 24-Apr-2013

 -----------------------------
 # b3lyp 6-31G(2df,p) opt Freq
 -----------------------------

 -----
 titel
 -----
 Symbolic Z-matrix:
 Charge =  0 Multiplicity = 1

 SCF Done:  E(RB3LYP) =  -423.197762165     A.U. after   13 cycles
 Optimization completed.
    -- Stationary point found.
 Normal termination of Gaussian 09 at Tue Jan 28 00:13:06 2020.

 ----------------------------------------------------------------------
 #N Geom=AllCheck Guess=TCheck SCRF=Check GenChk RB3LYP/6-31G(2df,p) Fr
 eq
 ----------------------------------------------------------------------

 Structure from the checkpoint file:  "/scratch/puck/g09_42bef53a-0252-4223-b046-5583289d6aa3/Gau-69508.chk"
 -----
 titel
 -----
 Charge =  0 Multiplicity = 1

                         Standard orientation:
 ---------------------------------------------------------------------
 Center     Atomic      Atomic             Coordinates (Angstroms)
 Number     Number       Type             X           Y           Z
 ---------------------------------------------------------------------
      1          8           0       -2.505368   -0.378592    0.250132
      2          6           0       -1.284216   -0.244979   -0.478363
      3          6           0       -0.876986    1.206814   -0.593565
      4          6           0        0.273769    1.659633   -0.092827
      5          6           0        1.247852    0.700975    0.572867
      6          6           0        0.464247   -0.371169    1.337210
      7          6           0       -0.139502   -1.094345    0.119597
      8          6           0        1.083507   -1.127297   -0.827530
      9          8           0        1.954534   -0.064479   -0.417190
     10          1           0       -2.424082    0.145050    1.054299
     11          1           0       -1.524966   -0.639856   -1.473438
     12          1           0       -1.585881    1.870658   -1.081802
     13          1           0        0.555834    2.704000   -0.190529
     14          1           0        1.999004    1.228978    1.163329
     15          1           0        1.144762   -1.020697    1.894741
     16          1           0       -0.278449    0.035313    2.027825
     17          1           0       -0.520824   -2.093194    0.339804
     18          1           0        1.635262   -2.070674   -0.744081
     19          1           0        0.793989   -0.992806   -1.878018
 ---------------------------------------------------------------------

 SCF Done:  E(RB3LYP) =  -423.197762165     A.U. after    1 cycles

 The electronic state is 1-A.
 Alpha  occ. eigenvalues --  -19.13743 -19.13263 -10.23621 -10.23438 -10.22436
 Alpha  occ. eigenvalues --  -10.19045 -10.18803 -10.18660 -10.18656  -1.03073
 Alpha  occ. eigenvalues --   -1.01787  -0.82374  -0.76750  -0.73935  -0.66307
 Alpha  occ. eigenvalues --   -0.61681  -0.57551  -0.54081  -0.52723  -0.49279
 Alpha  occ. eigenvalues --   -0.46103  -0.44278  -0.43043  -0.42373  -0.41448
 Alpha  occ. eigenvalues --   -0.39314  -0.36405  -0.35445  -0.34231  -0.31618
 Alpha  occ. eigenvalues --   -0.31373  -0.27030  -0.26388  -0.24350
 Alpha virt. eigenvalues --   -0.00318   0.07773   0.09171   0.11875   0.12382
 Alpha virt. eigenvalues --    0.13608   0.14946   0.15223   0.17089   0.17654
 Alpha virt. eigenvalues --    0.18320   0.19440   0.20627   0.22480   0.22703

 Mulliken charges:
               1
     1  O   -0.443870
     2  C    0.104746
     3  C   -0.111788
     4  C   -0.063866
     5  C    0.067613
     6  C   -0.240676
     7  C   -0.076183
     8  C   -0.082553
     9  O   -0.268499
    10  H    0.278614
    11  H    0.091949
    12  H    0.098218
    13  H    0.096154
    14  H    0.075265
    15  H    0.104441
    16  H    0.088410
    17  H    0.079565
    18  H    0.103854
    19  H    0.098605
 Sum of Mulliken charges =   0.00000

 Dipole moment (field-independent basis, Debye):
    X=             -0.1425    Y=              0.4806    Z=              1.0391  Tot=              1.1537
 Quadrupole moment (field-independent basis, Debye-Ang):
   XX=            -61.4314   YY=            -50.0477   ZZ=            -50.5629
   XY=             -2.4079   XZ=              1.0197   YZ=              1.4350

  Exact polarizability:  80.561   1.314  76.137   4.990   1.811  67.142
 Approx polarizability: 126.460   8.027 109.303   8.470   5.571 102.532

                      1                      2                      3
                      A                      A                      A
 Frequencies --    123.5826               202.3120               260.7103
 Red. masses --      3.5960                 3.0693                 2.4486
 Frc consts  --      0.0324                 0.0740                 0.0981
 IR Inten    --      5.7539                 0.1848                 2.6375

                      4                      5                      6
                      A                      A                      A
 Frequencies --    303.3026               364.8378               390.6789
 Red. masses --      1.2833                 4.0617                 2.3194
 Frc consts  --      0.0696                 0.3185                 0.2086
 IR Inten    --     88.6987                 0.9494                 0.8395

                      7                      8                      9
                      A                      A                      A
 Frequencies --    441.5866               496.3029               605.8100
 Red. masses --      2.6610                 3.9379                 4.6357
 Frc consts  --      0.3057                 0.5715                 1.0024
 IR Inten    --      5.8127                 0.6954                 1.4248

                     10                     11                     12
                      A                      A                      A
 Frequencies --    644.0531               744.7099               778.1609
 Red. masses --      3.3171                 2.7473                 2.7880
 Frc consts  --      0.8107                 0.8977                 0.9947
 IR Inten    --      0.6057                13.3316                 9.3888

                     13                     14                     15
                      A                      A                      A
 Frequencies --    823.3362               854.0467               890.9734
 Red. masses --      2.2027                 3.0810                 3.2277
 Frc consts  --      0.8797                 1.3240                 1.5096
 IR Inten    --     13.6477                 3.8787                 7.6616

                     16                     17                     18
                      A                      A                      A
 Frequencies --    914.8926               939.3373               950.6596
 Red. masses --      2.6569                 2.5926                 2.1194
 Frc consts  --      1.3103                 1.3478                 1.1285
 IR Inten    --     17.3878                 8.3243                19.3999

                     19                     20                     21
                      A                      A                      A
 Frequencies --    972.2452              1004.1353              1027.5020
 Red. masses --      1.9072                 1.3398                 2.3329
 Frc consts  --      1.0622                 0.7959                 1.4511
 IR Inten    --      4.9260                 1.7519                17.0026

                     22                     23                     24
                      A                      A                      A
 Frequencies --   1041.6504              1070.3250              1082.0720
 Red. masses --      2.7451                 3.2517                 3.8397
 Frc consts  --      1.7549                 2.1948                 2.6489
 IR Inten    --     79.5504                57.8140                52.9016

                     25                     26                     27
                      A                      A                      A
 Frequencies --   1119.7160              1134.1462              1167.4140
 Red. masses --      1.6599                 1.0786                 1.2021
 Frc consts  --      1.2261                 0.8174                 0.9652
 IR Inten    --      6.7024                 5.1981                 6.0442

                     28                     29                     30
                      A                      A                      A
 Frequencies --   1214.9352              1234.5324              1266.8068
 Red. masses --      1.1032                 1.3678                 1.4601
 Frc consts  --      0.9594                 1.2282                 1.3806
 IR Inten    --      2.4381                16.3939                 5.2036

                     31                     32                     33
                      A                      A                      A
 Frequencies --   1303.5775              1308.6360              1332.9959
 Red. masses --      1.4006                 1.5145                 1.7766
 Frc consts  --      1.4023                 1.5282                 1.8599
 IR Inten    --      0.7702                 1.5662                 1.3070

                     34                     35                     36
                      A                      A                      A
 Frequencies --   1342.1612              1368.2175              1387.4408
 Red. masses --      1.3144                 1.3951                 1.4029
 Frc consts  --      1.3950                 1.5387                 1.5911
 IR Inten    --      0.8669                 5.8607                 5.8511

                     37                     38                     39
                      A                      A                      A
 Frequencies --   1402.4705              1422.9006              1489.2647
 Red. masses --      1.4022                 1.3178                 1.1077
 Frc consts  --      1.6249                 1.5720                 1.4474
 IR Inten    --      1.2846                63.6707                 7.0386

                     40                     41                     42
                      A                      A                      A
 Frequencies --   1520.3795              1699.8028              3013.4370
 Red. masses --      1.0906                 6.5839                 1.0611
 Frc consts  --      1.4854                11.2080                 5.6770
 IR Inten    --      0.1462                 0.5069                41.1472

                     43                     44                     45
                      A                      A                      A
 Frequencies --   3029.4782              3054.5985              3059.9885
 Red. masses --      1.0825                 1.1053                 1.0600
 Frc consts  --      5.8536                 6.0764                 5.8477
 IR Inten    --     44.5668                31.8359                22.0322

                     46                     47                     48
                      A                      A                      A
 Frequencies --   3094.6756              3098.6452              3110.4844
 Red. masses --      1.0862                 1.0885                 1.1062
 Frc consts  --      6.1290                 6.1577                 6.3058
 IR Inten    --     50.0355                17.1534                26.8436

                     49                     50                     51
                      A                      A                      A
 Frequencies --   3155.2196              3179.1284              3809.9864
 Red. masses --      1.0845                 1.0985                 1.0661
 Frc consts  --      6.3611                 6.5416                 9.1176
 IR Inten    --      8.5526                25.1688                13.1946

 - Thermochemistry -
 -------------------
 Temperature   298.150 Kelvin.  Pressure   1.00000 Atm.
 Atom     1 has atomic number  8 and mass  15.99491

 Molecular mass:   126.06808 amu.
 Principal axes and moments of inertia in atomic units:
                           1         2         3
     Eigenvalues --   631.514891106.005391291.30781
           X            0.99972  -0.01997   0.01234
           Y            0.01979   0.99969   0.01486
           Z           -0.01263  -0.01461   0.99981
 This molecule is an asymmetric top.
 Rotational symmetry number  1.
 Warning -- assumption of classical behavior for rotation
           may cause significant error
 Rotational temperatures (Kelvin)      0.13715     0.07831     0.06707
 Rotational constants (GHZ):           2.85780     1.63177     1.39761
 Zero-point vibrational energy     426159.2 (Joules/Mol)
                                  101.85450 (Kcal/Mol)
 Warning -- explicit consideration of   9 degrees of freedom as
           vibrations may cause significant error
 Vibrational temperatures:    177.81   291.08   375.10   436.38   524.92
          (Kelvin)            562.10   635.34   714.07   871.62   926.65
                             1071.47  1119.60  1184.60  1228.78  1281.91
                             1316.32  1351.50  1367.79  1398.84  1444.72
                             1478.34  1498.70  1539.96  1556.86  1611.02
                             1631.78  1679.65  1748.02  1776.21  1822.65
                             1875.55  1882.83  1917.88  1931.07  1968.56
                             1996.22  2017.84  2047.23  2142.72  2187.48
                             2445.63  4335.66  4358.74  4394.88  4402.64
                             4452.54  4458.25  4475.29  4539.65  4574.05
                             5481.71

 Zero-point correction=                           0.162315 (Hartree/Particle)
 Thermal correction to Energy=                    0.169641
 Thermal correction to Enthalpy=                  0.170585
 Thermal correction to Gibbs Free Energy=         0.130849
 Sum of electronic and zero-point Energies=           -423.035447
 Sum of electronic and thermal Energies=              -423.028121
 Sum of electronic and thermal Enthalpies=            -423.027177
 Sum of electronic and thermal Free Energies=         -423.066913

                     E (Thermal)             CV                S
                      KCal/Mol        Cal/Mol-Kelvin    Cal/Mol-Kelvin
 Total                  106.451             29.779             83.632
 Electronic               0.000              0.000              0.000
 Translational            0.889              2.981             40.409
 Rotational               0.889              2.981             28.291
 Vibrational            104.674             23.818             14.932
 Vibration     1          0.610              1.929              3.044
 Vibration     2          0.639              1.837              2.112
 Vibration     3          0.669              1.745              1.657
 Vibration     4          0.695              1.667              1.399
 Vibration     5          0.738              1.545              1.101
 Vibration     6          0.758              1.490              0.998
 Vibration     7          0.801              1.379              0.822
 Vibration     8          0.852              1.258              0.667
 Vibration     9          0.964              1.019              0.440

 Optimization completed.
    -- Stationary point found.
 Normal termination of Gaussian 09 at Tue Jan 28 00:59:50 2020.
