 Gaussian 09, Revision D.01,
 Gaussian 09:  ES64L-G09RevD.01 24-Apr-2013

 -----------------------------
 # b3lyp 6-31G(2df,p) opt Freq
 -----------------------------

 -----
 titel
 -----
 Symbolic Z-matrix:
 Charge =  0 Multiplicity = 1

 SCF Done:  E(RB3LYP) =  -423.150285630     A.U. after   14 cycles
 Optimization completed.
    -- Stationary point found.
 Normal termination of Gaussian 09 at Mon Jan 27 18:23:03 2020.

 ----------------------------------------------------------------------
 #N Geom=AllCheck Guess=TCheck SCRF=Check GenChk RB3LYP/6-31G(2df,p) Fr
 eq
 ----------------------------------------------------------------------

 Structure from the checkpoint file:  "/scratch/puck/g09_159a9d78-fda6-4716-a90d-d7e1250639ec/Gau-171756.chk"
 -----
 titel
 -----
 Charge =  0 Multiplicity = 1

                         Standard orientation:
 ---------------------------------------------------------------------
 Center     Atomic      Atomic             Coordinates (Angstroms)
 Number     Number       Type             X           Y           Z
 ---------------------------------------------------------------------
      1          6           0       -2.442712   -0.071849   -0.372939
      2          6           0       -0.965036    0.149731   -0.159630
      3          6           0       -0.275058    1.502024   -0.433774
      4          6           0        0.825521    1.055879    0.567843
      5          8           0        1.867708    0.352950   -0.082978
      6          6           0        1.345905   -0.634241   -0.973470
      7          6           0       -0.012022   -1.077421   -0.452178
      8          8           0        0.162581   -1.328358    0.973449
      9          6           0       -0.222460    0.030285    1.192325
     10          1           0       -3.030981    0.734281    0.078736
     11          1           0       -2.688755   -0.102992   -1.441233
     12          1           0       -2.766165   -1.018542    0.072873
     13          1           0        0.048643    1.758189   -1.446501
     14          1           0       -0.878514    2.324193   -0.035100
     15          1           0        1.293605    1.798121    1.214624
     16          1           0        1.267978   -0.244561   -2.000675
     17          1           0        2.052236   -1.470273   -0.974784
     18          1           0       -0.433023   -1.934952   -0.984914
     19          1           0       -0.632161    0.233350    2.184142
 ---------------------------------------------------------------------

 SCF Done:  E(RB3LYP) =  -423.150285630     A.U. after    1 cycles

 The electronic state is 1-A.
 Alpha  occ. eigenvalues --  -19.13954 -19.13481 -10.23886 -10.23254 -10.22993
 Alpha  occ. eigenvalues --  -10.22836 -10.20044 -10.18399 -10.18278  -1.06519
 Alpha  occ. eigenvalues --   -1.01388  -0.83233  -0.75977  -0.71678  -0.64634
 Alpha  occ. eigenvalues --   -0.63390  -0.60379  -0.52613  -0.50218  -0.48786
 Alpha  occ. eigenvalues --   -0.46502  -0.44890  -0.43145  -0.41278  -0.40637
 Alpha  occ. eigenvalues --   -0.39681  -0.38147  -0.36908  -0.36367  -0.32109
 Alpha  occ. eigenvalues --   -0.29514  -0.28876  -0.25762  -0.22601
 Alpha virt. eigenvalues --    0.07108   0.08996   0.11643   0.11897   0.12742
 Alpha virt. eigenvalues --    0.13348   0.14346   0.14698   0.15530   0.15762
 Alpha virt. eigenvalues --    0.16926   0.18769   0.19070   0.20231   0.21325

 Mulliken charges:
               1
     1  C   -0.511209
     2  C    0.299760
     3  C   -0.320456
     4  C    0.063720
     5  O   -0.259138
     6  C   -0.090498
     7  C    0.020812
     8  O   -0.291431
     9  C    0.071400
    10  H    0.117182
    11  H    0.118876
    12  H    0.129723
    13  H    0.103095
    14  H    0.101570
    15  H    0.082780
    16  H    0.091022
    17  H    0.117900
    18  H    0.079084
    19  H    0.075807
 Sum of Mulliken charges =   0.00000

 Dipole moment (field-independent basis, Debye):
    X=             -1.8264    Y=              0.8903    Z=             -1.1643  Tot=              2.3418
 Quadrupole moment (field-independent basis, Debye-Ang):
   XX=            -56.1692   YY=            -53.0898   ZZ=            -51.4336
   XY=             -0.9150   XZ=             -1.1900   YZ=              4.3779

  Exact polarizability:  76.300  -1.260  73.640  -1.175   4.307  71.031
 Approx polarizability: 104.511  -1.886 110.141  -0.541   4.081 109.661

                      1                      2                      3
                      A                      A                      A
 Frequencies --    213.8994               222.4478               269.6342
 Red. masses --      2.7901                 1.0913                 2.4304
 Frc consts  --      0.0752                 0.0318                 0.1041
 IR Inten    --      0.3784                 0.1468                 1.1327

                      4                      5                      6
                      A                      A                      A
 Frequencies --    288.9675               394.6589               402.0774
 Red. masses --      2.5912                 2.8063                 2.9857
 Frc consts  --      0.1275                 0.2575                 0.2844
 IR Inten    --      4.0443                 1.0309                 0.6908

                      7                      8                      9
                      A                      A                      A
 Frequencies --    461.2760               536.8931               642.1408
 Red. masses --      2.7224                 3.9489                 4.7788
 Frc consts  --      0.3413                 0.6707                 1.1610
 IR Inten    --      1.8058                 5.1250                 0.8608

                     10                     11                     12
                      A                      A                      A
 Frequencies --    694.6124               749.4135               797.2537
 Red. masses --      3.8398                 4.2069                 2.5506
 Frc consts  --      1.0915                 1.3920                 0.9552
 IR Inten    --      8.2164                 4.3526                 3.2723

                     13                     14                     15
                      A                      A                      A
 Frequencies --    831.4695               857.3334               869.3371
 Red. masses --      2.9026                 2.4632                 2.1696
 Frc consts  --      1.1823                 1.0667                 0.9661
 IR Inten    --     11.6988                 5.1028                21.0310

                     16                     17                     18
                      A                      A                      A
 Frequencies --    905.2022               936.6718               979.7909
 Red. masses --      2.8798                 2.0521                 2.1605
 Frc consts  --      1.3903                 1.0608                 1.2220
 IR Inten    --     21.1940                 6.6071                 7.1537

                     19                     20                     21
                      A                      A                      A
 Frequencies --    994.4806              1008.7265              1029.2579
 Red. masses --      2.7240                 1.5229                 2.1536
 Frc consts  --      1.5873                 0.9130                 1.3442
 IR Inten    --     14.5851                11.3127                 9.8047

                     22                     23                     24
                      A                      A                      A
 Frequencies --   1057.7559              1067.3465              1132.4279
 Red. masses --      2.6899                 2.3477                 1.6165
 Frc consts  --      1.7732                 1.5758                 1.2213
 IR Inten    --     40.0733                 4.7677                 0.7701

                     25                     26                     27
                      A                      A                      A
 Frequencies --   1162.4591              1173.2982              1207.8981
 Red. masses --      2.9961                 2.0084                 1.4646
 Frc consts  --      2.3854                 1.6290                 1.2590
 IR Inten    --     65.7594                 9.9973                 0.0867

                     28                     29                     30
                      A                      A                      A
 Frequencies --   1211.5094              1226.5590              1251.9672
 Red. masses --      1.9426                 1.6039                 1.4096
 Frc consts  --      1.6799                 1.4217                 1.3018
 IR Inten    --      2.4256                 1.4647                 6.7520

                     31                     32                     33
                      A                      A                      A
 Frequencies --   1262.9169              1272.6958              1338.1211
 Red. masses --      1.6744                 1.6171                 1.6445
 Frc consts  --      1.5735                 1.5432                 1.7349
 IR Inten    --      2.0318                 3.6192                 6.7740

                     34                     35                     36
                      A                      A                      A
 Frequencies --   1339.6955              1365.2963              1400.1934
 Red. masses --      1.2923                 2.2572                 1.4234
 Frc consts  --      1.3665                 2.4790                 1.6442
 IR Inten    --      6.3743                 4.8915                 3.2310

                     37                     38                     39
                      A                      A                      A
 Frequencies --   1411.1585              1481.1767              1492.3287
 Red. masses --      1.3103                 1.1318                 1.0521
 Frc consts  --      1.5373                 1.4630                 1.3805
 IR Inten    --      2.0766                 2.1367                 3.5947

                     40                     41                     42
                      A                      A                      A
 Frequencies --   1493.6901              1505.6285              2980.9845
 Red. masses --      1.0493                 1.0928                 1.0697
 Frc consts  --      1.3793                 1.4596                 5.6004
 IR Inten    --      5.0435                 2.8221                54.5244

                     43                     44                     45
                      A                      A                      A
 Frequencies --   3022.6001              3046.7548              3069.2509
 Red. masses --      1.0357                 1.0584                 1.0903
 Frc consts  --      5.5753                 5.7885                 6.0513
 IR Inten    --     26.2076                29.6419                32.8352

                     46                     47                     48
                      A                      A                      A
 Frequencies --   3079.5980              3085.7425              3090.6959
 Red. masses --      1.0917                 1.0999                 1.0901
 Frc consts  --      6.1003                 6.1708                 6.1350
 IR Inten    --     46.2183                15.3302                36.1730

                     49                     50                     51
                      A                      A                      A
 Frequencies --   3098.1646              3099.9718              3114.5111
 Red. masses --      1.1022                 1.1061                 1.0909
 Frc consts  --      6.2332                 6.2627                 6.2345
 IR Inten    --     22.1791                19.6068                51.4873

 - Thermochemistry -
 -------------------
 Temperature   298.150 Kelvin.  Pressure   1.00000 Atm.
 Atom     1 has atomic number  6 and mass  12.00000

 Molecular mass:   126.06808 amu.
 Principal axes and moments of inertia in atomic units:
                           1         2         3
     Eigenvalues --   642.22243 977.066001117.57766
           X            0.99988  -0.01529  -0.00389
           Y            0.01561   0.99480   0.10066
           Z            0.00233  -0.10071   0.99491
 This molecule is an asymmetric top.
 Rotational symmetry number  1.
 Warning -- assumption of classical behavior for rotation
           may cause significant error
 Rotational temperatures (Kelvin)      0.13487     0.08865     0.07750
 Rotational constants (GHZ):           2.81015     1.84710     1.61487
 Zero-point vibrational energy     422448.9 (Joules/Mol)
                                  100.96771 (Kcal/Mol)
 Warning -- explicit consideration of   8 degrees of freedom as
           vibrations may cause significant error
 Vibrational temperatures:    307.75   320.05   387.94   415.76   567.83
          (Kelvin)            578.50   663.67   772.47   923.90   999.39
                             1078.24  1147.07  1196.30  1233.51  1250.78
                             1302.38  1347.66  1409.70  1430.83  1451.33
                             1480.87  1521.87  1535.67  1629.31  1672.52
                             1688.11  1737.89  1743.09  1764.74  1801.30
                             1817.05  1831.12  1925.26  1927.52  1964.35
                             2014.56  2030.34  2131.08  2147.13  2149.08
                             2166.26  4288.97  4348.84  4383.60  4415.96
                             4430.85  4439.69  4446.82  4457.56  4460.16
                             4481.08

 Zero-point correction=                           0.160902 (Hartree/Particle)
 Thermal correction to Energy=                    0.167902
 Thermal correction to Enthalpy=                  0.168846
 Thermal correction to Gibbs Free Energy=         0.130028
 Sum of electronic and zero-point Energies=           -422.989383
 Sum of electronic and thermal Energies=              -422.982384
 Sum of electronic and thermal Enthalpies=            -422.981440
 Sum of electronic and thermal Free Energies=         -423.020257

                     E (Thermal)             CV                S
                      KCal/Mol        Cal/Mol-Kelvin    Cal/Mol-Kelvin
 Total                  105.360             29.104             81.698
 Electronic               0.000              0.000              0.000
 Translational            0.889              2.981             40.409
 Rotational               0.889              2.981             28.041
 Vibrational            103.582             23.142             13.249
 Vibration     1          0.644              1.820              2.010
 Vibration     2          0.648              1.807              1.939
 Vibration     3          0.674              1.729              1.599
 Vibration     4          0.686              1.694              1.480
 Vibration     5          0.762              1.482              0.982
 Vibration     6          0.768              1.466              0.955
 Vibration     7          0.819              1.336              0.762
 Vibration     8          0.892              1.168              0.572

 Optimization completed.
    -- Stationary point found.
 Normal termination of Gaussian 09 at Mon Jan 27 19:13:42 2020.
