 Gaussian 09, Revision D.01,
 Gaussian 09:  ES64L-G09RevD.01 24-Apr-2013

 -----------------------------
 # b3lyp 6-31G(2df,p) opt Freq
 -----------------------------

 -----
 titel
 -----
 Symbolic Z-matrix:
 Charge =  0 Multiplicity = 1

 SCF Done:  E(RB3LYP) =  -423.204193559     A.U. after   14 cycles
 Optimization completed.
    -- Stationary point found.
 Normal termination of Gaussian 09 at Tue Jan 28 08:14:11 2020.

 ----------------------------------------------------------------------
 #N Geom=AllCheck Guess=TCheck SCRF=Check GenChk RB3LYP/6-31G(2df,p) Fr
 eq
 ----------------------------------------------------------------------

 Structure from the checkpoint file:  "/scratch/puck/g09_2d045a3f-9ca1-44ca-aa65-a8ba750ca6e1/Gau-17884.chk"
 -----
 titel
 -----
 Charge =  0 Multiplicity = 1

                         Standard orientation:
 ---------------------------------------------------------------------
 Center     Atomic      Atomic             Coordinates (Angstroms)
 Number     Number       Type             X           Y           Z
 ---------------------------------------------------------------------
      1          6           0        2.180195   -0.828907   -0.487500
      2          6           0        1.088948   -0.396106    0.513812
      3          6           0       -0.019680   -1.455069    0.679899
      4          6           0       -1.057589   -1.430424   -0.451705
      5          6           0       -1.680380   -0.056892   -0.571225
      6          8           0       -1.845426    0.654615    0.650500
      7          6           0       -0.867730    1.145059   -0.283896
      8          6           0        0.580485    0.988711    0.092316
      9          8           0        1.330749    1.933605   -0.013310
     10          1           0        2.666074   -1.746306   -0.142166
     11          1           0        1.762655   -1.023893   -1.481360
     12          1           0        2.933685   -0.044985   -0.585799
     13          1           0        1.580173   -0.246068    1.482822
     14          1           0        0.437993   -2.448041    0.739518
     15          1           0       -0.543632   -1.286557    1.624131
     16          1           0       -0.610208   -1.699264   -1.417093
     17          1           0       -1.841446   -2.171155   -0.256040
     18          1           0       -2.506457    0.058018   -1.273265
     19          1           0       -1.106919    2.104259   -0.738466
 ---------------------------------------------------------------------

 SCF Done:  E(RB3LYP) =  -423.204193559     A.U. after    1 cycles

 The electronic state is 1-A.
 Alpha  occ. eigenvalues --  -19.16861 -19.13326 -10.27066 -10.25302 -10.24489
 Alpha  occ. eigenvalues --  -10.20058 -10.19931 -10.19111 -10.18406  -1.08860
 Alpha  occ. eigenvalues --   -1.04229  -0.82356  -0.75850  -0.70852  -0.68232
 Alpha  occ. eigenvalues --   -0.62122  -0.59974  -0.53337  -0.50756  -0.47885
 Alpha  occ. eigenvalues --   -0.47517  -0.44728  -0.43332  -0.41750  -0.40841
 Alpha  occ. eigenvalues --   -0.39046  -0.38496  -0.37352  -0.36483  -0.33788
 Alpha  occ. eigenvalues --   -0.32843  -0.30454  -0.28977  -0.24395
 Alpha virt. eigenvalues --   -0.03242   0.07965   0.10279   0.10891   0.11583
 Alpha virt. eigenvalues --    0.13343   0.14005   0.14424   0.16347   0.17315
 Alpha virt. eigenvalues --    0.17493   0.18431   0.20224   0.20314   0.21596

 Mulliken charges:
               1
     1  C   -0.391270
     2  C   -0.090066
     3  C   -0.232708
     4  C   -0.251909
     5  C    0.060586
     6  O   -0.242168
     7  C   -0.070087
     8  C    0.400583
     9  O   -0.325857
    10  H    0.116370
    11  H    0.117137
    12  H    0.143554
    13  H    0.108951
    14  H    0.096866
    15  H    0.122765
    16  H    0.112142
    17  H    0.113615
    18  H    0.101421
    19  H    0.110075
 Sum of Mulliken charges =   0.00000

 Dipole moment (field-independent basis, Debye):
    X=             -0.7425    Y=             -2.7056    Z=             -1.1523  Tot=              3.0330
 Quadrupole moment (field-independent basis, Debye-Ang):
   XX=            -55.2516   YY=            -56.2781   ZZ=            -52.1930
   XY=             -2.9742   XZ=              3.7235   YZ=             -0.9455

  Exact polarizability:  82.615   3.478  80.255   2.836  -1.048  61.364
 Approx polarizability: 117.022  12.876 119.275  -0.408  -0.009  98.344

                      1                      2                      3
                      A                      A                      A
 Frequencies --     38.6046               178.6034               222.6946
 Red. masses --      3.9485                 3.6599                 1.2917
 Frc consts  --      0.0035                 0.0688                 0.0377
 IR Inten    --      2.9342                 2.7473                 0.2956

                      4                      5                      6
                      A                      A                      A
 Frequencies --    248.3843               284.0290               346.2353
 Red. masses --      2.4854                 2.8153                 2.9307
 Frc consts  --      0.0903                 0.1338                 0.2070
 IR Inten    --      2.0601                 5.5762                 3.8603

                      7                      8                      9
                      A                      A                      A
 Frequencies --    370.9485               453.1404               498.5393
 Red. masses --      2.0887                 5.3433                 4.8054
 Frc consts  --      0.1693                 0.6464                 0.7037
 IR Inten    --      2.0065                11.7295                 1.0775

                     10                     11                     12
                      A                      A                      A
 Frequencies --    537.6227               635.7152               711.0630
 Red. masses --      4.4559                 3.0138                 2.9517
 Frc consts  --      0.7588                 0.7176                 0.8793
 IR Inten    --      5.1361                 0.5691                11.4600

                     13                     14                     15
                      A                      A                      A
 Frequencies --    756.7853               795.3727               844.2426
 Red. masses --      3.3217                 3.0796                 2.4989
 Frc consts  --      1.1209                 1.1479                 1.0494
 IR Inten    --      3.1693                 4.1020                14.4782

                     16                     17                     18
                      A                      A                      A
 Frequencies --    872.7316               909.2198               956.6967
 Red. masses --      3.0147                 2.5897                 2.0031
 Frc consts  --      1.3529                 1.2614                 1.0802
 IR Inten    --      9.3959                 4.6467                 7.3823

                     19                     20                     21
                      A                      A                      A
 Frequencies --    983.7926              1007.7034              1024.2559
 Red. masses --      1.9098                 1.8866                 1.8790
 Frc consts  --      1.0891                 1.1288                 1.1615
 IR Inten    --     11.8876                 7.8411                12.7364

                     22                     23                     24
                      A                      A                      A
 Frequencies --   1069.0826              1097.0569              1119.7249
 Red. masses --      1.3500                 1.6640                 1.5593
 Frc consts  --      0.9091                 1.1800                 1.1519
 IR Inten    --      3.0309                 2.3317                 4.5913

                     25                     26                     27
                      A                      A                      A
 Frequencies --   1155.6911              1205.2438              1225.3883
 Red. masses --      1.5560                 1.7166                 1.5616
 Frc consts  --      1.2244                 1.4691                 1.3815
 IR Inten    --      2.6308                13.1900                 3.1092

                     28                     29                     30
                      A                      A                      A
 Frequencies --   1261.8904              1267.7756              1314.4767
 Red. masses --      1.6066                 1.2964                 1.4528
 Frc consts  --      1.5073                 1.2277                 1.4789
 IR Inten    --     16.6063                10.7590                 2.1678

                     31                     32                     33
                      A                      A                      A
 Frequencies --   1336.4541              1354.8003              1374.2362
 Red. masses --      1.6664                 1.4749                 1.5421
 Frc consts  --      1.7536                 1.5951                 1.7159
 IR Inten    --      9.9869                 6.1012                 0.7058

                     34                     35                     36
                      A                      A                      A
 Frequencies --   1383.7734              1402.9584              1442.5208
 Red. masses --      1.3981                 1.2523                 2.6494
 Frc consts  --      1.5773                 1.4523                 3.2482
 IR Inten    --      1.0486                 7.5200                13.0703

                     37                     38                     39
                      A                      A                      A
 Frequencies --   1481.7082              1490.7700              1496.5159
 Red. masses --      1.1107                 1.0908                 1.0603
 Frc consts  --      1.4367                 1.4282                 1.3990
 IR Inten    --      0.5302                 6.1202                 3.7218

                     40                     41                     42
                      A                      A                      A
 Frequencies --   1506.2604              1794.0577              3030.3293
 Red. masses --      1.0540                11.9650                 1.0596
 Frc consts  --      1.4089                22.6900                 5.7327
 IR Inten    --      8.0583               160.8033                15.9302

                     43                     44                     45
                      A                      A                      A
 Frequencies --   3034.5941              3039.5339              3052.8096
 Red. masses --      1.0719                 1.0458                 1.0671
 Frc consts  --      5.8156                 5.6927                 5.8595
 IR Inten    --      2.2417                29.3942                25.2899

                     46                     47                     48
                      A                      A                      A
 Frequencies --   3066.9278              3101.0664              3104.2359
 Red. masses --      1.0999                 1.1001                 1.1007
 Frc consts  --      6.0954                 6.2330                 6.2495
 IR Inten    --     25.8385                20.4780                29.2705

                     49                     50                     51
                      A                      A                      A
 Frequencies --   3112.2616              3135.1265              3143.6626
 Red. masses --      1.0877                 1.1009                 1.0909
 Frc consts  --      6.2074                 6.3755                 6.3517
 IR Inten    --     27.8514                10.0616                21.0074

 - Thermochemistry -
 -------------------
 Temperature   298.150 Kelvin.  Pressure   1.00000 Atm.
 Atom     1 has atomic number  6 and mass  12.00000

 Molecular mass:   126.06808 amu.
 Principal axes and moments of inertia in atomic units:
                           1         2         3
     Eigenvalues --   769.057071021.622881519.41053
           X            0.99751  -0.06967   0.01138
           Y            0.06975   0.99754  -0.00749
           Z           -0.01083   0.00827   0.99991
 This molecule is an asymmetric top.
 Rotational symmetry number  1.
 Warning -- assumption of classical behavior for rotation
           may cause significant error
 Rotational temperatures (Kelvin)      0.11262     0.08478     0.05700
 Rotational constants (GHZ):           2.34669     1.76654     1.18779
 Zero-point vibrational energy     420351.7 (Joules/Mol)
                                  100.46646 (Kcal/Mol)
 Warning -- explicit consideration of  10 degrees of freedom as
           vibrations may cause significant error
 Vibrational temperatures:     55.54   256.97   320.41   357.37   408.65
          (Kelvin)            498.15   533.71   651.97   717.29   773.52
                              914.65  1023.06  1088.84  1144.36  1214.68
                             1255.66  1308.16  1376.47  1415.46  1449.86
                             1473.67  1538.17  1578.42  1611.03  1662.78
                             1734.07  1763.06  1815.58  1824.04  1891.24
                             1922.86  1949.25  1977.22  1990.94  2018.54
                             2075.46  2131.84  2144.88  2153.15  2167.17
                             2581.25  4359.96  4366.10  4373.21  4392.31
                             4412.62  4461.74  4466.30  4477.84  4510.74
                             4523.02

 Zero-point correction=                           0.160104 (Hartree/Particle)
 Thermal correction to Energy=                    0.168220
 Thermal correction to Enthalpy=                  0.169164
 Thermal correction to Gibbs Free Energy=         0.127026
 Sum of electronic and zero-point Energies=           -423.044090
 Sum of electronic and thermal Energies=              -423.035974
 Sum of electronic and thermal Enthalpies=            -423.035030
 Sum of electronic and thermal Free Energies=         -423.077167

                     E (Thermal)             CV                S
                      KCal/Mol        Cal/Mol-Kelvin    Cal/Mol-Kelvin
 Total                  105.559             31.238             88.686
 Electronic               0.000              0.000              0.000
 Translational            0.889              2.981             40.409
 Rotational               0.889              2.981             28.570
 Vibrational            103.782             25.276             19.708
 Vibration     1          0.594              1.981              5.329
 Vibration     2          0.629              1.869              2.343
 Vibration     3          0.648              1.807              1.937
 Vibration     4          0.662              1.765              1.742
 Vibration     5          0.682              1.703              1.509
 Vibration     6          0.724              1.583              1.183
 Vibration     7          0.743              1.532              1.076
 Vibration     8          0.812              1.354              0.786
 Vibration     9          0.854              1.253              0.662
 Vibration    10          0.893              1.167              0.570

 Optimization completed.
    -- Stationary point found.
 Normal termination of Gaussian 09 at Tue Jan 28 08:59:37 2020.
