 Gaussian 09, Revision D.01,
 Gaussian 09:  ES64L-G09RevD.01 24-Apr-2013

 -----------------------------
 # b3lyp 6-31G(2df,p) opt Freq
 -----------------------------

 -----
 titel
 -----
 Symbolic Z-matrix:
 Charge =  0 Multiplicity = 1

 SCF Done:  E(RB3LYP) =  -423.105346721     A.U. after   14 cycles
 Optimization completed.
    -- Stationary point found.
 Normal termination of Gaussian 09 at Tue Jan 28 02:55:55 2020.

 ----------------------------------------------------------------------
 #N Geom=AllCheck Guess=TCheck SCRF=Check GenChk RB3LYP/6-31G(2df,p) Fr
 eq
 ----------------------------------------------------------------------

 Structure from the checkpoint file:  "/scratch/puck/g09_0e8f071d-bb15-490c-a0f9-62a28146ada9/Gau-65430.chk"
 -----
 titel
 -----
 Charge =  0 Multiplicity = 1

                         Standard orientation:
 ---------------------------------------------------------------------
 Center     Atomic      Atomic             Coordinates (Angstroms)
 Number     Number       Type             X           Y           Z
 ---------------------------------------------------------------------
      1          6           0       -2.455438   -0.069452    0.736497
      2          6           0       -1.561830    0.070130   -0.486248
      3          6           0       -0.606653    1.327569   -0.435972
      4          6           0        0.687047    0.638586   -0.128422
      5          6           0        2.232777    0.555538   -0.143727
      6          6           0        1.638438   -0.774820    0.439698
      7          8           0        0.718871    0.032420    1.243799
      8          6           0        0.599011   -0.757504   -0.731402
      9          8           0       -0.736641   -1.129839   -0.596344
     10          1           0       -3.034914   -0.994773    0.673014
     11          1           0       -1.844426   -0.099208    1.641284
     12          1           0       -3.155785    0.770397    0.798481
     13          1           0       -2.178133    0.118145   -1.393023
     14          1           0       -0.563608    1.835773   -1.403443
     15          1           0       -0.919266    2.042229    0.328277
     16          1           0        2.737357    0.531801   -1.113335
     17          1           0        2.745867    1.169648    0.594922
     18          1           0        2.160674   -1.596604    0.929907
     19          1           0        0.994286   -0.938349   -1.738277
 ---------------------------------------------------------------------

 SCF Done:  E(RB3LYP) =  -423.105346721     A.U. after    1 cycles

 The electronic state is 1-A.
 Alpha  occ. eigenvalues --  -19.13666 -19.12977 -10.25003 -10.24780 -10.23741
 Alpha  occ. eigenvalues --  -10.22930 -10.20372 -10.19665 -10.16688  -1.07188
 Alpha  occ. eigenvalues --   -1.01437  -0.79352  -0.78578  -0.72102  -0.66112
 Alpha  occ. eigenvalues --   -0.62109  -0.58705  -0.53924  -0.49898  -0.48338
 Alpha  occ. eigenvalues --   -0.46701  -0.45754  -0.43225  -0.40498  -0.39068
 Alpha  occ. eigenvalues --   -0.38159  -0.36949  -0.35800  -0.34435  -0.32656
 Alpha  occ. eigenvalues --   -0.31756  -0.28584  -0.25220  -0.23688
 Alpha virt. eigenvalues --    0.07643   0.09626   0.10368   0.11959   0.12504
 Alpha virt. eigenvalues --    0.13446   0.14239   0.14466   0.15793   0.16637
 Alpha virt. eigenvalues --    0.16777   0.18292   0.19070   0.19404   0.19889

 Mulliken charges:
               1
     1  C   -0.389971
     2  C    0.148595
     3  C   -0.408590
     4  C    0.402294
     5  C   -0.322978
     6  C   -0.003540
     7  O   -0.338733
     8  C    0.119715
     9  O   -0.290109
    10  H    0.122645
    11  H    0.146093
    12  H    0.105795
    13  H    0.078841
    14  H    0.114420
    15  H    0.124736
    16  H    0.102865
    17  H    0.119281
    18  H    0.099552
    19  H    0.069090
 Sum of Mulliken charges =   0.00000

 Dipole moment (field-independent basis, Debye):
    X=              0.7486    Y=              1.3023    Z=             -1.4868  Tot=              2.1136
 Quadrupole moment (field-independent basis, Debye-Ang):
   XX=            -48.9445   YY=            -53.4190   ZZ=            -54.6024
   XY=             -2.8083   XZ=             -0.8858   YZ=             -1.5069

  Exact polarizability:  91.103  -2.752  68.228  -0.232  -1.432  67.552
 Approx polarizability: 118.677  -4.689 106.110   0.209  -0.896 108.001

                      1                      2                      3
                      A                      A                      A
 Frequencies --     94.0679               236.0733               253.2801
 Red. masses --      3.3878                 1.8864                 1.3036
 Frc consts  --      0.0177                 0.0619                 0.0493
 IR Inten    --      2.0709                 1.8803                 1.5064

                      4                      5                      6
                      A                      A                      A
 Frequencies --    322.0709               359.0044               415.1681
 Red. masses --      4.5874                 2.1800                 2.9325
 Frc consts  --      0.2804                 0.1655                 0.2978
 IR Inten    --      1.2245                 2.7535                 3.2787

                      7                      8                      9
                      A                      A                      A
 Frequencies --    433.8498               513.8468               608.6956
 Red. masses --      2.9437                 2.4789                 3.8077
 Frc consts  --      0.3265                 0.3856                 0.8312
 IR Inten    --      2.8263                 0.1715                 1.0534

                     10                     11                     12
                      A                      A                      A
 Frequencies --    700.9172               747.4515               777.6940
 Red. masses --      4.6644                 4.6627                 3.9104
 Frc consts  --      1.3501                 1.5348                 1.3934
 IR Inten    --     18.6963                11.0738                11.1577

                     13                     14                     15
                      A                      A                      A
 Frequencies --    787.8244               793.1415               864.4271
 Red. masses --      3.1704                 3.4350                 3.2834
 Frc consts  --      1.1594                 1.2731                 1.4456
 IR Inten    --      5.0371                 6.9914                30.4900

                     16                     17                     18
                      A                      A                      A
 Frequencies --    879.4178               903.4206               937.9399
 Red. masses --      2.4397                 2.0182                 1.8340
 Frc consts  --      1.1117                 0.9705                 0.9506
 IR Inten    --      9.6210                 8.0889                 2.1632

                     19                     20                     21
                      A                      A                      A
 Frequencies --    975.5154               996.7220              1026.5809
 Red. masses --      2.6863                 2.0707                 1.3949
 Frc consts  --      1.5062                 1.2120                 0.8661
 IR Inten    --     12.5235                 6.5410                 3.2196

                     22                     23                     24
                      A                      A                      A
 Frequencies --   1044.5652              1082.4362              1107.8834
 Red. masses --      1.9359                 1.8119                 1.7692
 Frc consts  --      1.2445                 1.2508                 1.2794
 IR Inten    --     24.7600                 8.1638                20.3815

                     25                     26                     27
                      A                      A                      A
 Frequencies --   1128.2469              1140.0706              1154.9366
 Red. masses --      2.7812                 1.7135                 1.8738
 Frc consts  --      2.0859                 1.3122                 1.4726
 IR Inten    --     83.5572                23.2742                 0.7947

                     28                     29                     30
                      A                      A                      A
 Frequencies --   1190.0615              1198.3595              1210.6395
 Red. masses --      1.8069                 1.5535                 1.4445
 Frc consts  --      1.5078                 1.3144                 1.2474
 IR Inten    --     11.4565                 4.7367                 3.4519

                     31                     32                     33
                      A                      A                      A
 Frequencies --   1246.8159              1269.3943              1309.1719
 Red. masses --      1.5455                 1.5752                 1.7415
 Frc consts  --      1.4155                 1.4954                 1.7586
 IR Inten    --      5.6849                 2.8126                24.6438

                     34                     35                     36
                      A                      A                      A
 Frequencies --   1360.0614              1368.8897              1390.1063
 Red. masses --      2.0043                 1.2984                 1.3875
 Frc consts  --      2.1844                 1.4335                 1.5797
 IR Inten    --     13.5888                23.5402                 5.5082

                     37                     38                     39
                      A                      A                      A
 Frequencies --   1403.5967              1475.0899              1485.3915
 Red. masses --      1.3311                 1.0962                 1.0547
 Frc consts  --      1.5450                 1.4053                 1.3710
 IR Inten    --     18.4503                 4.1114                 2.9291

                     40                     41                     42
                      A                      A                      A
 Frequencies --   1487.2249              1502.9534              3016.5134
 Red. masses --      1.2329                 1.0498                 1.0846
 Frc consts  --      1.6067                 1.3971                 5.8145
 IR Inten    --      4.6504                 1.8180                42.9087

                     43                     44                     45
                      A                      A                      A
 Frequencies --   3031.1610              3041.0044              3066.4014
 Red. masses --      1.0846                 1.0369                 1.0597
 Frc consts  --      5.8713                 5.6498                 5.8706
 IR Inten    --     56.9175                20.6942                22.9852

                     46                     47                     48
                      A                      A                      A
 Frequencies --   3068.3437              3110.4702              3118.5291
 Red. masses --      1.0595                 1.1002                 1.0935
 Frc consts  --      5.8773                 6.2714                 6.2655
 IR Inten    --     46.3117                18.6846                54.9836

                     49                     50                     51
                      A                      A                      A
 Frequencies --   3122.3931              3139.1943              3162.1338
 Red. masses --      1.1050                 1.1020                 1.1080
 Frc consts  --      6.3474                 6.3984                 6.5275
 IR Inten    --     11.7450                13.4780                16.7737

 - Thermochemistry -
 -------------------
 Temperature   298.150 Kelvin.  Pressure   1.00000 Atm.
 Atom     1 has atomic number  6 and mass  12.00000

 Molecular mass:   126.06808 amu.
 Principal axes and moments of inertia in atomic units:
                           1         2         3
     Eigenvalues --   511.169181210.062231262.49108
           X            0.99963  -0.01451  -0.02280
           Y            0.01128   0.99063  -0.13608
           Z            0.02456   0.13578   0.99044
 This molecule is an asymmetric top.
 Rotational symmetry number  1.
 Warning -- assumption of classical behavior for rotation
           may cause significant error
 Rotational temperatures (Kelvin)      0.16944     0.07158     0.06861
 Rotational constants (GHZ):           3.53061     1.49144     1.42951
 Zero-point vibrational energy     419046.8 (Joules/Mol)
                                  100.15458 (Kcal/Mol)
 Warning -- explicit consideration of   9 degrees of freedom as
           vibrations may cause significant error
 Vibrational temperatures:    135.34   339.66   364.41   463.39   516.53
          (Kelvin)            597.33   624.21   739.31   875.78  1008.46
                             1075.41  1118.93  1133.50  1141.15  1243.72
                             1265.28  1299.82  1349.48  1403.55  1434.06
                             1477.02  1502.89  1557.38  1594.00  1623.29
                             1640.31  1661.69  1712.23  1724.17  1741.84
                             1793.89  1826.37  1883.60  1956.82  1969.52
                             2000.05  2019.46  2122.32  2137.14  2139.78
                             2162.41  4340.08  4361.16  4375.32  4411.86
                             4414.66  4475.27  4486.86  4492.42  4516.59
                             4549.60

 Zero-point correction=                           0.159606 (Hartree/Particle)
 Thermal correction to Energy=                    0.166932
 Thermal correction to Enthalpy=                  0.167876
 Thermal correction to Gibbs Free Energy=         0.128115
 Sum of electronic and zero-point Energies=           -422.945740
 Sum of electronic and thermal Energies=              -422.938414
 Sum of electronic and thermal Enthalpies=            -422.937470
 Sum of electronic and thermal Free Energies=         -422.977232

                     E (Thermal)             CV                S
                      KCal/Mol        Cal/Mol-Kelvin    Cal/Mol-Kelvin
 Total                  104.752             29.968             83.686
 Electronic               0.000              0.000              0.000
 Translational            0.889              2.981             40.409
 Rotational               0.889              2.981             28.148
 Vibrational            102.974             24.006             15.129
 Vibration     1          0.603              1.953              3.574
 Vibration     2          0.655              1.786              1.832
 Vibration     3          0.664              1.757              1.708
 Vibration     4          0.707              1.631              1.300
 Vibration     5          0.734              1.557              1.126
 Vibration     6          0.779              1.437              0.909
 Vibration     7          0.795              1.396              0.846
 Vibration     8          0.869              1.219              0.624
 Vibration     9          0.968              1.013              0.435

 Normal termination of Gaussian 09 at Tue Jan 28 03:52:44 2020.
