 Gaussian 09, Revision D.01,
 Gaussian 09:  ES64L-G09RevD.01 24-Apr-2013

 -----------------------------
 # b3lyp 6-31G(2df,p) opt Freq
 -----------------------------

 -----
 titel
 -----
 Symbolic Z-matrix:
 Charge =  0 Multiplicity = 1

 SCF Done:  E(RB3LYP) =  -423.131983249     A.U. after   14 cycles
 Optimization completed.
    -- Stationary point found.
 Normal termination of Gaussian 09 at Tue Jan 28 01:58:14 2020.

 ----------------------------------------------------------------------
 #N Geom=AllCheck Guess=TCheck SCRF=Check GenChk RB3LYP/6-31G(2df,p) Fr
 eq
 ----------------------------------------------------------------------

 Structure from the checkpoint file:  "/scratch/puck/g09_86de00b0-347a-4e0c-8e4b-bc018ee6b3e1/Gau-89592.chk"
 -----
 titel
 -----
 Charge =  0 Multiplicity = 1

                         Standard orientation:
 ---------------------------------------------------------------------
 Center     Atomic      Atomic             Coordinates (Angstroms)
 Number     Number       Type             X           Y           Z
 ---------------------------------------------------------------------
      1          6           0        2.764440   -0.642458   -0.537658
      2          6           0        1.894940    0.430761    0.062030
      3          8           0        1.160882    0.082549    1.249973
      4          6           0        0.429973    0.373007    0.068787
      5          6           0       -0.596240    1.515032   -0.054169
      6          6           0       -1.570324    0.505462   -0.711898
      7          8           0       -2.421637   -0.147289    0.248291
      8          6           0       -1.518416   -1.275023    0.360280
      9          6           0       -0.508346   -0.633063   -0.606942
     10          1           0        3.672987   -0.777037    0.058435
     11          1           0        2.237721   -1.599437   -0.574964
     12          1           0        3.067974   -0.368149   -1.554020
     13          1           0        2.348035    1.423682    0.110169
     14          1           0       -0.959279    1.925984    0.890374
     15          1           0       -0.272986    2.329290   -0.710077
     16          1           0       -2.100822    0.797849   -1.620684
     17          1           0       -1.166715   -1.435167    1.385320
     18          1           0       -1.985738   -2.193271   -0.015442
     19          1           0       -0.131302   -1.228128   -1.437818
 ---------------------------------------------------------------------

 SCF Done:  E(RB3LYP) =  -423.131983249     A.U. after    1 cycles

 The electronic state is 1-A.
 Alpha  occ. eigenvalues --  -19.14834 -19.13177 -10.24126 -10.23868 -10.23759
 Alpha  occ. eigenvalues --  -10.23055 -10.19440 -10.18696 -10.18420  -1.07079
 Alpha  occ. eigenvalues --   -1.03847  -0.81914  -0.74870  -0.72010  -0.64391
 Alpha  occ. eigenvalues --   -0.62333  -0.58984  -0.52358  -0.51422  -0.48177
 Alpha  occ. eigenvalues --   -0.47667  -0.46251  -0.42610  -0.42213  -0.40845
 Alpha  occ. eigenvalues --   -0.39790  -0.38854  -0.35218  -0.34326  -0.32581
 Alpha  occ. eigenvalues --   -0.29797  -0.27999  -0.26234  -0.24479
 Alpha virt. eigenvalues --    0.06194   0.07930   0.10427   0.11461   0.11591
 Alpha virt. eigenvalues --    0.12660   0.14551   0.15261   0.15466   0.16204
 Alpha virt. eigenvalues --    0.17225   0.17852   0.18816   0.20363   0.20766

 Mulliken charges:
               1
     1  C   -0.418495
     2  C   -0.026523
     3  O   -0.291213
     4  C    0.432925
     5  C   -0.335642
     6  C    0.114644
     7  O   -0.291927
     8  C   -0.080196
     9  C   -0.186841
    10  H    0.132678
    11  H    0.125984
    12  H    0.121890
    13  H    0.090217
    14  H    0.126295
    15  H    0.105441
    16  H    0.078297
    17  H    0.120994
    18  H    0.100981
    19  H    0.080494
 Sum of Mulliken charges =   0.00000

 Dipole moment (field-independent basis, Debye):
    X=              1.5855    Y=             -0.0248    Z=             -2.3014  Tot=              2.7948
 Quadrupole moment (field-independent basis, Debye-Ang):
   XX=            -56.1642   YY=            -49.6906   ZZ=            -54.5470
   XY=              0.8760   XZ=             -0.5758   YZ=             -0.4407

  Exact polarizability:  87.518   0.605  74.874  -0.192  -1.306  63.916
 Approx polarizability: 114.567   0.542 106.109  -0.268  -3.562 101.985

                      1                      2                      3
                      A                      A                      A
 Frequencies --     73.2529               146.0513               180.7481
 Red. masses --      4.0247                 2.7715                 1.2560
 Frc consts  --      0.0127                 0.0348                 0.0242
 IR Inten    --      1.1586                 0.1039                 1.3231

                      4                      5                      6
                      A                      A                      A
 Frequencies --    207.0379               220.0424               368.3174
 Red. masses --      2.8053                 2.1497                 2.6615
 Frc consts  --      0.0708                 0.0613                 0.2127
 IR Inten    --      1.8513                 3.3818                 1.9295

                      7                      8                      9
                      A                      A                      A
 Frequencies --    441.9442               446.4874               499.9181
 Red. masses --      3.4973                 2.4463                 2.9825
 Frc consts  --      0.4025                 0.2873                 0.4392
 IR Inten    --      1.7380                 3.3912                 2.9983

                     10                     11                     12
                      A                      A                      A
 Frequencies --    555.7048               726.4414               759.2403
 Red. masses --      4.8551                 3.1766                 2.5651
 Frc consts  --      0.8834                 0.9877                 0.8712
 IR Inten    --      7.3535                 3.8690                 7.6772

                     13                     14                     15
                      A                      A                      A
 Frequencies --    807.8709               830.9289               894.5695
 Red. masses --      2.5674                 1.9448                 2.6837
 Frc consts  --      0.9872                 0.7911                 1.2654
 IR Inten    --     24.1142                 4.8184                 9.7299

                     16                     17                     18
                      A                      A                      A
 Frequencies --    927.6304               937.1514               972.4700
 Red. masses --      2.4350                 2.3736                 2.3124
 Frc consts  --      1.2345                 1.2282                 1.2884
 IR Inten    --      4.6443                 5.0940                30.4784

                     19                     20                     21
                      A                      A                      A
 Frequencies --    985.0462              1002.4344              1039.9848
 Red. masses --      1.6048                 3.3185                 2.6638
 Frc consts  --      0.9174                 1.9647                 1.6975
 IR Inten    --      3.2481                52.2803                18.2211

                     22                     23                     24
                      A                      A                      A
 Frequencies --   1053.7771              1077.4137              1116.5994
 Red. masses --      2.4121                 2.1620                 2.6099
 Frc consts  --      1.5781                 1.4787                 1.9172
 IR Inten    --      5.2891                31.2702                13.8616

                     25                     26                     27
                      A                      A                      A
 Frequencies --   1130.9692              1147.3676              1157.0395
 Red. masses --      2.1378                 1.5635                 1.4153
 Frc consts  --      1.6111                 1.2127                 1.1163
 IR Inten    --      0.3632                 2.2877                 6.1093

                     28                     29                     30
                      A                      A                      A
 Frequencies --   1173.8915              1197.8191              1228.1654
 Red. masses --      1.4099                 1.6239                 1.6192
 Frc consts  --      1.1447                 1.3727                 1.4390
 IR Inten    --     10.2245                 4.4413                 3.2212

                     31                     32                     33
                      A                      A                      A
 Frequencies --   1255.8087              1274.5971              1307.0402
 Red. masses --      1.6843                 1.6053                 1.3224
 Frc consts  --      1.5650                 1.5365                 1.3310
 IR Inten    --      5.3828                 5.2273                 9.1777

                     34                     35                     36
                      A                      A                      A
 Frequencies --   1350.3559              1365.1941              1407.9496
 Red. masses --      1.4622                 1.3806                 1.2748
 Frc consts  --      1.5709                 1.5161                 1.4889
 IR Inten    --     21.1988                 1.3255                 4.3676

                     37                     38                     39
                      A                      A                      A
 Frequencies --   1448.9806              1473.1830              1489.2516
 Red. masses --      1.1298                 1.2480                 1.0996
 Frc consts  --      1.3975                 1.5958                 1.4369
 IR Inten    --      5.4993                 5.2023                 7.0246

                     40                     41                     42
                      A                      A                      A
 Frequencies --   1516.4329              1523.7268              3020.6702
 Red. masses --      1.9327                 1.2399                 1.0576
 Frc consts  --      2.6186                 1.6961                 5.6854
 IR Inten    --      8.8234                 2.1711                72.2450

                     43                     44                     45
                      A                      A                      A
 Frequencies --   3036.0404              3054.2689              3073.9462
 Red. masses --      1.0360                 1.0612                 1.1083
 Frc consts  --      5.6265                 5.8325                 6.1704
 IR Inten    --     17.5193                14.9983                27.9103

                     46                     47                     48
                      A                      A                      A
 Frequencies --   3081.1310              3085.6689              3100.1485
 Red. masses --      1.0868                 1.0887                 1.1005
 Frc consts  --      6.0787                 6.1074                 6.2319
 IR Inten    --     21.8944                52.4179                16.6584

                     49                     50                     51
                      A                      A                      A
 Frequencies --   3118.1261              3121.9663              3124.8700
 Red. masses --      1.0914                 1.1050                 1.1001
 Frc consts  --      6.2522                 6.3458                 6.3289
 IR Inten    --     24.9480                10.5015                30.1953

 - Thermochemistry -
 -------------------
 Temperature   298.150 Kelvin.  Pressure   1.00000 Atm.
 Atom     1 has atomic number  6 and mass  12.00000

 Molecular mass:   126.06808 amu.
 Principal axes and moments of inertia in atomic units:
                           1         2         3
     Eigenvalues --   500.333391477.140481604.34707
           X            0.99987  -0.00797  -0.01403
           Y            0.00807   0.99994   0.00681
           Z            0.01398  -0.00693   0.99988
 This molecule is an asymmetric top.
 Rotational symmetry number  1.
 Warning -- assumption of classical behavior for rotation
           may cause significant error
 Rotational temperatures (Kelvin)      0.17311     0.05864     0.05399
 Rotational constants (GHZ):           3.60708     1.22178     1.12491
 Zero-point vibrational energy     415915.7 (Joules/Mol)
                                   99.40623 (Kcal/Mol)
 Warning -- explicit consideration of  10 degrees of freedom as
           vibrations may cause significant error
 Vibrational temperatures:    105.39   210.13   260.06   297.88   316.59
          (Kelvin)            529.93   635.86   642.40   719.27   799.53
                             1045.19  1092.38  1162.34  1195.52  1287.08
                             1334.65  1348.35  1399.17  1417.26  1442.28
                             1496.30  1516.15  1550.16  1606.54  1627.21
                             1650.80  1664.72  1688.97  1723.39  1767.05
                             1806.83  1833.86  1880.54  1942.86  1964.21
                             2025.72  2084.76  2119.58  2142.70  2181.81
                             2192.30  4346.07  4368.18  4394.41  4422.72
                             4433.05  4439.58  4460.42  4486.28  4491.81
                             4495.99

 Zero-point correction=                           0.158414 (Hartree/Particle)
 Thermal correction to Energy=                    0.166564
 Thermal correction to Enthalpy=                  0.167508
 Thermal correction to Gibbs Free Energy=         0.125518
 Sum of electronic and zero-point Energies=           -422.973569
 Sum of electronic and thermal Energies=              -422.965420
 Sum of electronic and thermal Enthalpies=            -422.964475
 Sum of electronic and thermal Free Energies=         -423.006465

                     E (Thermal)             CV                S
                      KCal/Mol        Cal/Mol-Kelvin    Cal/Mol-Kelvin
 Total                  104.520             31.126             88.374
 Electronic               0.000              0.000              0.000
 Translational            0.889              2.981             40.409
 Rotational               0.889              2.981             28.563
 Vibrational            102.743             25.165             19.403
 Vibration     1          0.599              1.967              4.064
 Vibration     2          0.617              1.907              2.723
 Vibration     3          0.630              1.866              2.321
 Vibration     4          0.641              1.830              2.070
 Vibration     5          0.647              1.811              1.959
 Vibration     6          0.741              1.537              1.087
 Vibration     7          0.802              1.379              0.821
 Vibration     8          0.806              1.369              0.806
 Vibration     9          0.855              1.250              0.658
 Vibration    10          0.911              1.127              0.532

 Normal termination of Gaussian 09 at Tue Jan 28 02:44:17 2020.
