 Gaussian 09, Revision D.01,
 Gaussian 09:  ES64L-G09RevD.01 24-Apr-2013

 -----------------------------
 # b3lyp 6-31G(2df,p) opt Freq
 -----------------------------

 -----
 titel
 -----
 Symbolic Z-matrix:
 Charge =  0 Multiplicity = 1

 SCF Done:  E(RB3LYP) =  -423.184247823     A.U. after   14 cycles
 Optimization completed.
    -- Stationary point found.
 Normal termination of Gaussian 09 at Mon Jan 27 13:13:18 2020.

 ----------------------------------------------------------------------
 #N Geom=AllCheck Guess=TCheck SCRF=Check GenChk RB3LYP/6-31G(2df,p) Fr
 eq
 ----------------------------------------------------------------------

 Structure from the checkpoint file:  "/scratch/puck/g09_ba5ec65b-7278-48aa-be6b-19640841bdfa/Gau-28286.chk"
 -----
 titel
 -----
 Charge =  0 Multiplicity = 1

                         Standard orientation:
 ---------------------------------------------------------------------
 Center     Atomic      Atomic             Coordinates (Angstroms)
 Number     Number       Type             X           Y           Z
 ---------------------------------------------------------------------
      1          8           0       -2.254750   -1.936348    0.152713
      2          6           0       -1.396701   -1.287899   -0.387031
      3          6           0       -0.784272   -0.027026    0.215489
      4          6           0        0.466978    0.467946   -0.512898
      5          6           0        1.679218   -0.405363   -0.266372
      6          6           0        3.066128    0.164799   -0.402887
      7          6           0        2.529275   -0.189854    0.963004
      8          6           0       -1.895377    1.025183    0.304005
      9          8           0       -1.779222    2.160256   -0.071695
     10          1           0       -1.019184   -1.551493   -1.400753
     11          1           0       -0.560365   -0.281544    1.262700
     12          1           0        0.253504    0.528838   -1.588587
     13          1           0        0.671466    1.495001   -0.195372
     14          1           0        1.566344   -1.441242   -0.579611
     15          1           0        3.842333   -0.460335   -0.829730
     16          1           0        3.156522    1.216941   -0.652383
     17          1           0        2.939627   -1.055933    1.469956
     18          1           0        2.263163    0.627318    1.626207
     19          1           0       -2.833125    0.644466    0.759567
 ---------------------------------------------------------------------

 SCF Done:  E(RB3LYP) =  -423.184247823     A.U. after    1 cycles

 The electronic state is 1-A.
 Alpha  occ. eigenvalues --  -19.15675 -19.15621 -10.28828 -10.28710 -10.21505
 Alpha  occ. eigenvalues --  -10.20206 -10.19907 -10.19263 -10.19166  -1.06614
 Alpha  occ. eigenvalues --   -1.06160  -0.86896  -0.80970  -0.69839  -0.62542
 Alpha  occ. eigenvalues --   -0.60728  -0.58575  -0.55938  -0.50924  -0.49607
 Alpha  occ. eigenvalues --   -0.48141  -0.46133  -0.45432  -0.44552  -0.40980
 Alpha  occ. eigenvalues --   -0.39433  -0.39075  -0.37391  -0.36944  -0.35632
 Alpha  occ. eigenvalues --   -0.30197  -0.29350  -0.27435  -0.25736
 Alpha virt. eigenvalues --   -0.05371  -0.01791   0.08692   0.09585   0.10143
 Alpha virt. eigenvalues --    0.12162   0.12857   0.13560   0.14063   0.14953
 Alpha virt. eigenvalues --    0.16579   0.17739   0.21431   0.21695   0.22859

 Mulliken charges:
               1
     1  O   -0.246716
     2  C    0.139494
     3  C   -0.161624
     4  C   -0.243215
     5  C    0.017313
     6  C   -0.275489
     7  C   -0.257024
     8  C    0.135442
     9  O   -0.229881
    10  H    0.093596
    11  H    0.136489
    12  H    0.109342
    13  H    0.121564
    14  H    0.084986
    15  H    0.115709
    16  H    0.116748
    17  H    0.115865
    18  H    0.113897
    19  H    0.113504
 Sum of Mulliken charges =   0.00000

 Dipole moment (field-independent basis, Debye):
    X=              2.0840    Y=             -0.6055    Z=             -0.0821  Tot=              2.1718
 Quadrupole moment (field-independent basis, Debye-Ang):
   XX=            -57.4130   YY=            -62.0354   ZZ=            -51.4321
   XY=             -2.0256   XZ=              0.0217   YZ=              2.3165

  Exact polarizability:  87.620   1.777  78.664  -4.157  -0.889  65.860
 Approx polarizability: 111.585   7.174 126.537  -7.410  -5.917 102.998

                      1                      2                      3
                      A                      A                      A
 Frequencies --     43.8152                77.9579                83.1451
 Red. masses --      4.1169                 3.1652                 3.1885
 Frc consts  --      0.0047                 0.0113                 0.0130
 IR Inten    --      1.7416                 1.5293                 7.7543

                      4                      5                      6
                      A                      A                      A
 Frequencies --    111.0390               142.2253               211.1755
 Red. masses --      3.1068                 3.3921                 3.8657
 Frc consts  --      0.0226                 0.0404                 0.1016
 IR Inten    --      3.4696                 5.9484                 7.0821

                      7                      8                      9
                      A                      A                      A
 Frequencies --    285.0868               328.8415               378.7976
 Red. masses --      3.0433                 3.1501                 2.6711
 Frc consts  --      0.1457                 0.2007                 0.2258
 IR Inten    --      3.3362                 1.8545                 3.9716

                     10                     11                     12
                      A                      A                      A
 Frequencies --    403.9374               570.2964               657.8910
 Red. masses --      2.0101                 4.0430                 4.4210
 Frc consts  --      0.1932                 0.7747                 1.1274
 IR Inten    --      3.2843                 8.3441                13.6357

                     13                     14                     15
                      A                      A                      A
 Frequencies --    777.4603               806.8819               817.5198
 Red. masses --      1.0988                 1.6846                 2.2947
 Frc consts  --      0.3913                 0.6462                 0.9036
 IR Inten    --      2.3044                 3.0231                21.2063

                     16                     17                     18
                      A                      A                      A
 Frequencies --    840.6547               867.6759               895.2706
 Red. masses --      1.5967                 1.9604                 1.4500
 Frc consts  --      0.6648                 0.8696                 0.6847
 IR Inten    --      5.9711                44.6487                 7.1151

                     19                     20                     21
                      A                      A                      A
 Frequencies --    938.7860               981.5265              1031.2129
 Red. masses --      2.7330                 1.9633                 2.1033
 Frc consts  --      1.4191                 1.1144                 1.3178
 IR Inten    --      6.8378                 6.5993                48.2016

                     22                     23                     24
                      A                      A                      A
 Frequencies --   1058.9808              1079.6284              1085.1408
 Red. masses --      1.4422                 1.7849                 1.6320
 Frc consts  --      0.9529                 1.2258                 1.1322
 IR Inten    --      2.0615                 1.2428                 0.5885

                     25                     26                     27
                      A                      A                      A
 Frequencies --   1127.7850              1138.6094              1170.9231
 Red. masses --      2.2297                 1.1286                 1.7371
 Frc consts  --      1.6709                 0.8620                 1.4032
 IR Inten    --      6.3780                 2.0855                 9.9721

                     28                     29                     30
                      A                      A                      A
 Frequencies --   1198.5306              1220.1292              1229.6830
 Red. masses --      1.3922                 1.5406                 1.7055
 Frc consts  --      1.1783                 1.3513                 1.5195
 IR Inten    --      0.3268                 8.9501                16.3849

                     31                     32                     33
                      A                      A                      A
 Frequencies --   1244.2624              1299.0881              1355.0981
 Red. masses --      1.6813                 1.3303                 1.3658
 Frc consts  --      1.5336                 1.3228                 1.4776
 IR Inten    --      7.6771                 1.3055                15.8059

                     34                     35                     36
                      A                      A                      A
 Frequencies --   1405.4450              1412.5946              1420.7114
 Red. masses --      1.1887                 1.2677                 1.5570
 Frc consts  --      1.3834                 1.4904                 1.8516
 IR Inten    --      3.4322                 3.1248                 1.9513

                     37                     38                     39
                      A                      A                      A
 Frequencies --   1469.4932              1483.9646              1509.2443
 Red. masses --      1.0863                 1.1001                 1.3681
 Frc consts  --      1.3821                 1.4273                 1.8361
 IR Inten    --      2.2348                 4.9011                 2.0783

                     40                     41                     42
                      A                      A                      A
 Frequencies --   1805.3857              1843.1031              2876.8385
 Red. masses --     10.7152                10.4424                 1.0837
 Frc consts  --     20.5774                20.9001                 5.2844
 IR Inten    --    289.2379                72.4897                87.5987

                     43                     44                     45
                      A                      A                      A
 Frequencies --   2922.9110              3009.7440              3026.5547
 Red. masses --      1.0859                 1.0798                 1.0686
 Frc consts  --      5.4660                 5.7632                 5.7674
 IR Inten    --     73.9867                 7.6744                23.5868

                     46                     47                     48
                      A                      A                      A
 Frequencies --   3083.1392              3125.7736              3130.2765
 Red. masses --      1.0933                 1.0858                 1.0512
 Frc consts  --      6.1231                 6.2506                 6.0686
 IR Inten    --      5.5876                23.3478                17.7085

                     49                     50                     51
                      A                      A                      A
 Frequencies --   3135.7997              3209.1531              3224.0990
 Red. masses --      1.0608                 1.1176                 1.1154
 Frc consts  --      6.1460                 6.7811                 6.8310
 IR Inten    --      6.2821                 0.3866                18.8134

 - Thermochemistry -
 -------------------
 Temperature   298.150 Kelvin.  Pressure   1.00000 Atm.
 Atom     1 has atomic number  8 and mass  15.99491

 Molecular mass:   126.06808 amu.
 Principal axes and moments of inertia in atomic units:
                           1         2         3
     Eigenvalues --   776.098121843.916582376.84063
           X            1.00000  -0.00278  -0.00030
           Y            0.00278   0.99997   0.00708
           Z            0.00028  -0.00708   0.99997
 This molecule is an asymmetric top.
 Rotational symmetry number  1.
 Warning -- assumption of classical behavior for rotation
           may cause significant error
 Rotational temperatures (Kelvin)      0.11160     0.04697     0.03644
 Rotational constants (GHZ):           2.32540     0.97875     0.75930
 Zero-point vibrational energy     410039.7 (Joules/Mol)
                                   98.00184 (Kcal/Mol)
 Warning -- explicit consideration of  11 degrees of freedom as
           vibrations may cause significant error
 Vibrational temperatures:     63.04   112.16   119.63   159.76   204.63
          (Kelvin)            303.83   410.18   473.13   545.00   581.18
                              820.53   946.56  1118.59  1160.92  1176.23
                             1209.51  1248.39  1288.09  1350.70  1412.20
                             1483.68  1523.64  1553.34  1561.27  1622.63
                             1638.20  1684.70  1724.42  1755.49  1769.24
                             1790.21  1869.10  1949.68  2022.12  2032.41
                             2044.08  2114.27  2135.09  2171.46  2597.54
                             2651.81  4139.12  4205.41  4330.34  4354.53
                             4435.94  4497.29  4503.76  4511.71  4617.25
                             4638.75

 Zero-point correction=                           0.156176 (Hartree/Particle)
 Thermal correction to Energy=                    0.165887
 Thermal correction to Enthalpy=                  0.166831
 Thermal correction to Gibbs Free Energy=         0.119985
 Sum of electronic and zero-point Energies=           -423.028072
 Sum of electronic and thermal Energies=              -423.018361
 Sum of electronic and thermal Enthalpies=            -423.017416
 Sum of electronic and thermal Free Energies=         -423.064263

                     E (Thermal)             CV                S
                      KCal/Mol        Cal/Mol-Kelvin    Cal/Mol-Kelvin
 Total                  104.096             33.884             98.596
 Electronic               0.000              0.000              0.000
 Translational            0.889              2.981             40.409
 Rotational               0.889              2.981             29.610
 Vibrational            102.318             27.922             28.578
 Vibration     1          0.595              1.980              5.079
 Vibration     2          0.599              1.964              3.942
 Vibration     3          0.600              1.961              3.815
 Vibration     4          0.607              1.940              3.251
 Vibration     5          0.616              1.911              2.774
 Vibration     6          0.643              1.824              2.033
 Vibration     7          0.683              1.701              1.503
 Vibration     8          0.712              1.618              1.266
 Vibration     9          0.749              1.515              1.044
 Vibration    10          0.769              1.462              0.948
 Vibration    11          0.926              1.096              0.504

 Optimization completed.
    -- Stationary point found.
 Normal termination of Gaussian 09 at Mon Jan 27 14:22:03 2020.
