 Gaussian 09, Revision D.01,
 Gaussian 09:  ES64L-G09RevD.01 24-Apr-2013

 -----------------------------
 # b3lyp 6-31G(2df,p) opt Freq
 -----------------------------

 -----
 titel
 -----
 Symbolic Z-matrix:
 Charge =  0 Multiplicity = 1

 SCF Done:  E(RB3LYP) =  -423.187313345     A.U. after   14 cycles
 Optimization completed.
    -- Stationary point found.
 Normal termination of Gaussian 09 at Mon Jan 27 23:09:55 2020.

 ----------------------------------------------------------------------
 #N Geom=AllCheck Guess=TCheck SCRF=Check GenChk RB3LYP/6-31G(2df,p) Fr
 eq
 ----------------------------------------------------------------------

 Structure from the checkpoint file:  "/scratch/puck/g09_6b15a8e5-5b13-4a9b-a704-27198b0309a6/Gau-162166.chk"
 -----
 titel
 -----
 Charge =  0 Multiplicity = 1

                         Standard orientation:
 ---------------------------------------------------------------------
 Center     Atomic      Atomic             Coordinates (Angstroms)
 Number     Number       Type             X           Y           Z
 ---------------------------------------------------------------------
      1          6           0        2.101913   -1.699141   -0.217865
      2          6           0        1.332393   -0.531516    0.385351
      3          6           0        1.688238    0.863788   -0.161969
      4          6           0        0.797925    1.894928    0.459106
      5          6           0        0.251287    1.061375   -0.669417
      6          6           0       -0.100017   -0.336602   -0.188817
      7          8           0       -1.138125   -0.462520    0.808240
      8          6           0       -2.392252   -0.335506    0.359246
      9          8           0       -2.719754   -0.130486   -0.778174
     10          1           0        3.145975   -1.692468    0.112117
     11          1           0        1.660849   -2.656194    0.080071
     12          1           0        2.098762   -1.651607   -1.312568
     13          1           0        1.348810   -0.589145    1.479366
     14          1           0        2.615029    1.112410   -0.664261
     15          1           0        0.427088    1.761295    1.472160
     16          1           0        1.009642    2.925502    0.193896
     17          1           0       -0.106271    1.502242   -1.590272
     18          1           0       -0.325848   -1.019434   -1.010331
     19          1           0       -3.087920   -0.452505    1.205481
 ---------------------------------------------------------------------

 SCF Done:  E(RB3LYP) =  -423.187313345     A.U. after    1 cycles

 The electronic state is 1-A.
 Alpha  occ. eigenvalues --  -19.18449 -19.12995 -10.30459 -10.24451 -10.19827
 Alpha  occ. eigenvalues --  -10.19787 -10.19549 -10.19181 -10.18218  -1.10149
 Alpha  occ. eigenvalues --   -1.01724  -0.90253  -0.76833  -0.71364  -0.63997
 Alpha  occ. eigenvalues --   -0.62177  -0.57498  -0.53523  -0.51596  -0.50540
 Alpha  occ. eigenvalues --   -0.47451  -0.46856  -0.43392  -0.42890  -0.40432
 Alpha  occ. eigenvalues --   -0.38828  -0.37273  -0.37131  -0.34015  -0.32640
 Alpha  occ. eigenvalues --   -0.30050  -0.28963  -0.27860  -0.26626
 Alpha virt. eigenvalues --    0.01135   0.09428   0.09792   0.10542   0.12019
 Alpha virt. eigenvalues --    0.12977   0.14547   0.15255   0.15583   0.16831
 Alpha virt. eigenvalues --    0.17045   0.17356   0.19203   0.20347   0.21841

 Mulliken charges:
               1
     1  C   -0.419520
     2  C   -0.017233
     3  C   -0.054910
     4  C   -0.294009
     5  C   -0.060784
     6  C    0.124128
     7  O   -0.218239
     8  C    0.178506
     9  O   -0.308890
    10  H    0.119117
    11  H    0.121546
    12  H    0.119119
    13  H    0.080329
    14  H    0.090002
    15  H    0.116141
    16  H    0.115848
    17  H    0.099400
    18  H    0.102591
    19  H    0.106859
 Sum of Mulliken charges =   0.00000

 Dipole moment (field-independent basis, Debye):
    X=              1.9304    Y=             -0.0391    Z=              0.8806  Tot=              2.1222
 Quadrupole moment (field-independent basis, Debye-Ang):
   XX=            -55.9095   YY=            -50.9575   ZZ=            -53.8547
   XY=              0.7790   XZ=             -5.5463   YZ=             -0.4060

  Exact polarizability:  87.037  -1.038  73.799  -0.479  -0.481  67.500
 Approx polarizability: 116.671  -1.182 100.156   5.742  -2.405 112.009

                      1                      2                      3
                      A                      A                      A
 Frequencies --     43.0031               122.7653               158.4200
 Red. masses --      6.8601                 3.0737                 4.5054
 Frc consts  --      0.0075                 0.0273                 0.0666
 IR Inten    --      1.2988                 0.7496                 4.2018

                      4                      5                      6
                      A                      A                      A
 Frequencies --    223.7443               237.9929               254.8218
 Red. masses --      1.5802                 2.4887                 1.6055
 Frc consts  --      0.0466                 0.0831                 0.0614
 IR Inten    --      2.1206                 2.6254                 1.1063

                      7                      8                      9
                      A                      A                      A
 Frequencies --    334.1646               357.9955               466.9420
 Red. masses --      2.8851                 2.9939                 2.9963
 Frc consts  --      0.1898                 0.2261                 0.3849
 IR Inten    --     11.3369                 3.8609                 0.9959

                     10                     11                     12
                      A                      A                      A
 Frequencies --    560.0922               669.4734               775.3991
 Red. masses --      3.9126                 2.9870                 2.5486
 Frc consts  --      0.7232                 0.7888                 0.9028
 IR Inten    --      4.1739                 1.4352                 5.5700

                     13                     14                     15
                      A                      A                      A
 Frequencies --    784.2537               819.1244               873.1162
 Red. masses --      2.9373                 2.0909                 2.1921
 Frc consts  --      1.0644                 0.8266                 0.9846
 IR Inten    --      6.4501                 7.1352                 6.7852

                     16                     17                     18
                      A                      A                      A
 Frequencies --    922.6092               941.6484               980.7085
 Red. masses --      1.8429                 2.0991                 2.0594
 Frc consts  --      0.9243                 1.0966                 1.1670
 IR Inten    --     24.9332                 6.4748                28.2646

                     19                     20                     21
                      A                      A                      A
 Frequencies --    994.2074              1012.2828              1039.8540
 Red. masses --      1.5130                 1.4089                 2.1425
 Frc consts  --      0.8811                 0.8506                 1.3650
 IR Inten    --      2.4724                 9.9760                15.2062

                     22                     23                     24
                      A                      A                      A
 Frequencies --   1048.6106              1063.5554              1086.0516
 Red. masses --      1.7625                 1.2059                 1.4032
 Frc consts  --      1.1418                 0.8037                 0.9751
 IR Inten    --      2.6699                 1.7425                 2.1553

                     25                     26                     27
                      A                      A                      A
 Frequencies --   1095.9479              1125.3304              1153.7863
 Red. masses --      1.7870                 1.5911                 2.4983
 Frc consts  --      1.2646                 1.1872                 1.9595
 IR Inten    --      0.7895                 8.9142                 2.0502

                     28                     29                     30
                      A                      A                      A
 Frequencies --   1194.8152              1209.6937              1241.1094
 Red. masses --      2.6329                 3.9220                 1.4845
 Frc consts  --      2.2146                 3.3815                 1.3472
 IR Inten    --    148.3749               274.0372                 6.2781

                     31                     32                     33
                      A                      A                      A
 Frequencies --   1257.1585              1294.4100              1339.4581
 Red. masses --      1.6719                 1.5979                 1.7654
 Frc consts  --      1.5569                 1.5774                 1.8661
 IR Inten    --      0.9896                 4.3636                 3.6797

                     34                     35                     36
                      A                      A                      A
 Frequencies --   1371.5207              1387.7026              1407.6311
 Red. masses --      1.5057                 1.6302                 1.1579
 Frc consts  --      1.6688                 1.8496                 1.3518
 IR Inten    --      6.5384                10.4043                 1.0410

                     37                     38                     39
                      A                      A                      A
 Frequencies --   1412.2713              1491.3321              1494.9704
 Red. masses --      1.2375                 1.1931                 1.0548
 Frc consts  --      1.4543                 1.5635                 1.3890
 IR Inten    --      2.1364                 1.5218                 5.6271

                     40                     41                     42
                      A                      A                      A
 Frequencies --   1500.7645              1816.1332              3021.2475
 Red. masses --      1.0537                 9.5610                 1.0900
 Frc consts  --      1.3982                18.5801                 5.8619
 IR Inten    --      3.8104               262.9388                77.3066

                     43                     44                     45
                      A                      A                      A
 Frequencies --   3028.6038              3042.2665              3091.5058
 Red. masses --      1.0352                 1.0850                 1.0897
 Frc consts  --      5.5943                 5.9164                 6.1362
 IR Inten    --     22.6598                18.0272                13.5517

                     46                     47                     48
                      A                      A                      A
 Frequencies --   3098.9875              3101.2715              3115.9211
 Red. masses --      1.0982                 1.1011                 1.0560
 Frc consts  --      6.2139                 6.2399                 6.0409
 IR Inten    --     33.0095                23.3584                16.1681

                     49                     50                     51
                      A                      A                      A
 Frequencies --   3187.3286              3199.8608              3210.6302
 Red. masses --      1.0919                 1.1042                 1.1041
 Frc consts  --      6.5354                 6.6615                 6.7059
 IR Inten    --     12.7889                 1.8701                16.0660

 - Thermochemistry -
 -------------------
 Temperature   298.150 Kelvin.  Pressure   1.00000 Atm.
 Atom     1 has atomic number  6 and mass  12.00000

 Molecular mass:   126.06808 amu.
 Principal axes and moments of inertia in atomic units:
                           1         2         3
     Eigenvalues --   656.224381448.028351788.06519
           X            0.99956  -0.02592  -0.01409
           Y            0.02614   0.99954   0.01552
           Z            0.01368  -0.01588   0.99978
 This molecule is an asymmetric top.
 Rotational symmetry number  1.
 Warning -- assumption of classical behavior for rotation
           may cause significant error
 Rotational temperatures (Kelvin)      0.13199     0.05981     0.04844
 Rotational constants (GHZ):           2.75019     1.24634     1.00933
 Zero-point vibrational energy     416674.2 (Joules/Mol)
                                   99.58754 (Kcal/Mol)
 Warning -- explicit consideration of  10 degrees of freedom as
           vibrations may cause significant error
 Vibrational temperatures:     61.87   176.63   227.93   321.92   342.42
          (Kelvin)            366.63   480.79   515.08   671.82   805.85
                              963.22  1115.62  1128.36  1178.54  1256.22
                             1327.43  1354.82  1411.02  1430.44  1456.45
                             1496.12  1508.71  1530.22  1562.58  1576.82
                             1619.10  1660.04  1719.07  1740.48  1785.68
                             1808.77  1862.36  1927.18  1973.31  1996.59
                             2025.26  2031.94  2145.69  2150.93  2159.26
                             2613.01  4346.90  4357.48  4377.14  4447.98
                             4458.75  4462.03  4483.11  4585.85  4603.88
                             4619.37

 Zero-point correction=                           0.158703 (Hartree/Particle)
 Thermal correction to Energy=                    0.167327
 Thermal correction to Enthalpy=                  0.168272
 Thermal correction to Gibbs Free Energy=         0.124748
 Sum of electronic and zero-point Energies=           -423.028611
 Sum of electronic and thermal Energies=              -423.019986
 Sum of electronic and thermal Enthalpies=            -423.019042
 Sum of electronic and thermal Free Energies=         -423.062566

                     E (Thermal)             CV                S
                      KCal/Mol        Cal/Mol-Kelvin    Cal/Mol-Kelvin
 Total                  105.000             31.961             91.604
 Electronic               0.000              0.000              0.000
 Translational            0.889              2.981             40.409
 Rotational               0.889              2.981             28.920
 Vibrational            103.222             25.999             22.275
 Vibration     1          0.595              1.980              5.116
 Vibration     2          0.610              1.930              3.056
 Vibration     3          0.621              1.893              2.569
 Vibration     4          0.649              1.805              1.929
 Vibration     5          0.656              1.782              1.818
 Vibration     6          0.665              1.755              1.697
 Vibration     7          0.716              1.607              1.240
 Vibration     8          0.733              1.559              1.131
 Vibration     9          0.824              1.323              0.746
 Vibration    10          0.916              1.118              0.524

 Optimization completed.
    -- Stationary point found.
 Normal termination of Gaussian 09 at Mon Jan 27 23:53:00 2020.
