 Gaussian 09, Revision D.01,
 Gaussian 09:  ES64L-G09RevD.01 24-Apr-2013

 -----------------------------
 # b3lyp 6-31G(2df,p) opt Freq
 -----------------------------

 -----
 titel
 -----
 Symbolic Z-matrix:
 Charge =  0 Multiplicity = 1

 SCF Done:  E(RB3LYP) =  -423.186014417     A.U. after   14 cycles
 Optimization completed.
    -- Stationary point found.
 Normal termination of Gaussian 09 at Mon Jan 27 13:24:05 2020.

 ----------------------------------------------------------------------
 #N Geom=AllCheck Guess=TCheck SCRF=Check GenChk RB3LYP/6-31G(2df,p) Fr
 eq
 ----------------------------------------------------------------------

 Structure from the checkpoint file:  "/scratch/puck/g09_beaa1121-f710-47b7-bf1c-5363252d6b4d/Gau-155414.chk"
 -----
 titel
 -----
 Charge =  0 Multiplicity = 1

                         Standard orientation:
 ---------------------------------------------------------------------
 Center     Atomic      Atomic             Coordinates (Angstroms)
 Number     Number       Type             X           Y           Z
 ---------------------------------------------------------------------
      1          8           0       -3.178280   -0.151958    0.172850
      2          6           0       -2.091042   -0.060407   -0.336522
      3          6           0       -0.783957    0.062646    0.414930
      4          6           0       -0.109382    1.421712    0.064100
      5          6           0        1.439257    1.372437    0.103141
      6          6           0        1.906909   -0.052066   -0.215064
      7          6           0        1.453639   -1.039821    0.877615
      8          6           0        0.182247   -1.078194    0.011951
      9          8           0        0.958399   -0.663172   -1.146131
     10          1           0       -1.971103   -0.062476   -1.445614
     11          1           0       -1.011720   -0.016692    1.482768
     12          1           0       -0.405867    1.684124   -0.956341
     13          1           0       -0.498038    2.210696    0.712599
     14          1           0        1.841948    2.083201   -0.625188
     15          1           0        1.829095    1.667573    1.084234
     16          1           0        2.933952   -0.106153   -0.583449
     17          1           0        2.002018   -1.982358    0.841856
     18          1           0        1.374790   -0.680088    1.905893
     19          1           0       -0.322052   -2.034621   -0.151414
 ---------------------------------------------------------------------

 SCF Done:  E(RB3LYP) =  -423.186014417     A.U. after    1 cycles

 The electronic state is 1-A.
 Alpha  occ. eigenvalues --  -19.13936 -19.13785 -10.26714 -10.24819 -10.24380
 Alpha  occ. eigenvalues --  -10.19931 -10.19861 -10.19476 -10.19333  -1.04952
 Alpha  occ. eigenvalues --   -1.04384  -0.81600  -0.76557  -0.74513  -0.64493
 Alpha  occ. eigenvalues --   -0.62484  -0.57896  -0.53300  -0.52554  -0.48454
 Alpha  occ. eigenvalues --   -0.46348  -0.45853  -0.43691  -0.41449  -0.40718
 Alpha  occ. eigenvalues --   -0.40395  -0.37918  -0.36356  -0.35572  -0.34358
 Alpha  occ. eigenvalues --   -0.32202  -0.31259  -0.25828  -0.24161
 Alpha virt. eigenvalues --   -0.02121   0.06894   0.09098   0.10221   0.11276
 Alpha virt. eigenvalues --    0.12423   0.13786   0.14430   0.14803   0.15764
 Alpha virt. eigenvalues --    0.17503   0.17702   0.19771   0.20829   0.21753

 Mulliken charges:
               1
     1  O   -0.252135
     2  C    0.137348
     3  C   -0.069764
     4  C   -0.214760
     5  C   -0.235126
     6  C    0.104009
     7  C   -0.249128
     8  C    0.069733
     9  O   -0.296515
    10  H    0.086811
    11  H    0.091638
    12  H    0.119318
    13  H    0.112055
    14  H    0.108433
    15  H    0.104844
    16  H    0.081665
    17  H    0.112875
    18  H    0.100874
    19  H    0.087826
 Sum of Mulliken charges =   0.00000

 Dipole moment (field-independent basis, Debye):
    X=              2.9520    Y=              0.5867    Z=              0.9799  Tot=              3.1653
 Quadrupole moment (field-independent basis, Debye-Ang):
   XX=            -62.3935   YY=            -50.6884   ZZ=            -54.3944
   XY=              0.0127   XZ=              3.3552   YZ=             -1.3347

  Exact polarizability:  88.452   2.060  70.348  -0.478  -1.172  66.008
 Approx polarizability: 122.738   4.570  99.373  -5.719  -0.109 107.378

                      1                      2                      3
                      A                      A                      A
 Frequencies --     64.8995                81.3371               196.9051
 Red. masses --      4.4810                 3.1734                 2.2886
 Frc consts  --      0.0111                 0.0124                 0.0523
 IR Inten    --      5.4439                 2.1199                 2.0180

                      4                      5                      6
                      A                      A                      A
 Frequencies --    298.6873               356.5975               374.2273
 Red. masses --      2.1474                 2.2641                 6.7605
 Frc consts  --      0.1129                 0.1696                 0.5578
 IR Inten    --      1.5694                 1.0248                 2.1889

                      7                      8                      9
                      A                      A                      A
 Frequencies --    401.5088               460.6803               582.9792
 Red. masses --      2.6051                 4.4405                 4.6807
 Frc consts  --      0.2474                 0.5552                 0.9373
 IR Inten    --      3.9480                11.6888                 2.1508

                     10                     11                     12
                      A                      A                      A
 Frequencies --    648.9727               772.4633               822.8442
 Red. masses --      2.4097                 1.6580                 2.6920
 Frc consts  --      0.5980                 0.5829                 1.0739
 IR Inten    --      9.8070                 1.7681                 5.0065

                     13                     14                     15
                      A                      A                      A
 Frequencies --    856.2863               881.3003               901.5561
 Red. masses --      2.4734                 2.7840                 2.8681
 Frc consts  --      1.0685                 1.2740                 1.3735
 IR Inten    --      9.4669                10.3115                17.7715

                     16                     17                     18
                      A                      A                      A
 Frequencies --    912.9893               944.8516               972.0535
 Red. masses --      2.6980                 3.6379                 2.8133
 Frc consts  --      1.3250                 1.9135                 1.5662
 IR Inten    --      7.3056                38.6321                17.5563

                     19                     20                     21
                      A                      A                      A
 Frequencies --   1002.7395              1016.2565              1036.1499
 Red. masses --      1.9171                 2.1361                 1.7014
 Frc consts  --      1.1357                 1.2998                 1.0762
 IR Inten    --      9.6941                20.6333                 7.1824

                     22                     23                     24
                      A                      A                      A
 Frequencies --   1073.1347              1096.6052              1134.4032
 Red. masses --      1.8373                 2.1764                 2.0760
 Frc consts  --      1.2467                 1.5420                 1.5740
 IR Inten    --      9.0990                 8.8744                11.7527

                     25                     26                     27
                      A                      A                      A
 Frequencies --   1147.9786              1175.3060              1225.7703
 Red. masses --      1.4760                 1.4810                 1.3235
 Frc consts  --      1.1461                 1.2053                 1.1716
 IR Inten    --      3.8845                 3.9080                 0.6404

                     28                     29                     30
                      A                      A                      A
 Frequencies --   1230.8094              1262.6213              1281.0719
 Red. masses --      1.4889                 1.4111                 1.3714
 Frc consts  --      1.3290                 1.3254                 1.3261
 IR Inten    --     11.3341                 3.6659                 2.2100

                     31                     32                     33
                      A                      A                      A
 Frequencies --   1292.0228              1329.7695              1342.9446
 Red. masses --      1.4082                 1.2716                 1.4276
 Frc consts  --      1.3850                 1.3248                 1.5170
 IR Inten    --      2.7839                 5.3868                 3.3465

                     34                     35                     36
                      A                      A                      A
 Frequencies --   1350.1163              1367.6694              1389.7118
 Red. masses --      1.6270                 1.3819                 1.3425
 Frc consts  --      1.7474                 1.5229                 1.5276
 IR Inten    --      1.8113                 3.2121                 6.4921

                     37                     38                     39
                      A                      A                      A
 Frequencies --   1423.7985              1479.4086              1487.5711
 Red. masses --      1.1986                 1.0814                 1.1197
 Frc consts  --      1.4316                 1.3945                 1.4599
 IR Inten    --      3.4357                 0.2829                 5.2921

                     40                     41                     42
                      A                      A                      A
 Frequencies --   1500.0109              1831.7940              2859.7227
 Red. masses --      1.0965                10.1907                 1.0819
 Frc consts  --      1.4536                20.1469                 5.2127
 IR Inten    --      2.1284               207.3198                80.0053

                     43                     44                     45
                      A                      A                      A
 Frequencies --   3038.1199              3050.9450              3061.6175
 Red. masses --      1.0608                 1.0674                 1.0824
 Frc consts  --      5.7689                 5.8536                 5.9776
 IR Inten    --     24.4610                12.0001                 6.1187

                     46                     47                     48
                      A                      A                      A
 Frequencies --   3066.4749              3074.3148              3078.8887
 Red. masses --      1.0700                 1.0836                 1.0911
 Frc consts  --      5.9281                 6.0340                 6.0938
 IR Inten    --     22.9921                38.9693                44.7822

                     49                     50                     51
                      A                      A                      A
 Frequencies --   3087.9566              3103.2771              3134.2441
 Red. masses --      1.0913                 1.1020                 1.1088
 Frc consts  --      6.1312                 6.2528                 6.4173
 IR Inten    --     42.1441                26.3868                23.8817

 - Thermochemistry -
 -------------------
 Temperature   298.150 Kelvin.  Pressure   1.00000 Atm.
 Atom     1 has atomic number  8 and mass  15.99491

 Molecular mass:   126.06808 amu.
 Principal axes and moments of inertia in atomic units:
                           1         2         3
     Eigenvalues --   541.625111442.642281650.15394
           X            0.99987   0.00384   0.01573
           Y           -0.00330   0.99941  -0.03405
           Z           -0.01585   0.03400   0.99930
 This molecule is an asymmetric top.
 Rotational symmetry number  1.
 Warning -- assumption of classical behavior for rotation
           may cause significant error
 Rotational temperatures (Kelvin)      0.15991     0.06004     0.05249
 Rotational constants (GHZ):           3.33209     1.25100     1.09368
 Zero-point vibrational energy     422068.6 (Joules/Mol)
                                  100.87682 (Kcal/Mol)
 Warning -- explicit consideration of   9 degrees of freedom as
           vibrations may cause significant error
 Vibrational temperatures:     93.38   117.03   283.30   429.74   513.06
          (Kelvin)            538.43   577.68   662.82   838.78   933.73
                             1111.40  1183.89  1232.00  1267.99  1297.14
                             1313.59  1359.43  1398.57  1442.72  1462.16
                             1490.79  1544.00  1577.77  1632.15  1651.68
                             1691.00  1763.61  1770.86  1816.63  1843.17
                             1858.93  1913.24  1932.20  1942.51  1967.77
                             1999.48  2048.53  2128.54  2140.28  2158.18
                             2635.54  4114.50  4371.17  4389.62  4404.98
                             4411.97  4423.25  4429.83  4442.88  4464.92
                             4509.47

 Zero-point correction=                           0.160757 (Hartree/Particle)
 Thermal correction to Energy=                    0.168533
 Thermal correction to Enthalpy=                  0.169477
 Thermal correction to Gibbs Free Energy=         0.127819
 Sum of electronic and zero-point Energies=           -423.025257
 Sum of electronic and thermal Energies=              -423.017482
 Sum of electronic and thermal Enthalpies=            -423.016538
 Sum of electronic and thermal Free Energies=         -423.058196

                     E (Thermal)             CV                S
                      KCal/Mol        Cal/Mol-Kelvin    Cal/Mol-Kelvin
 Total                  105.756             29.731             87.677
 Electronic               0.000              0.000              0.000
 Translational            0.889              2.981             40.409
 Rotational               0.889              2.981             28.646
 Vibrational            103.978             23.769             18.622
 Vibration     1          0.597              1.971              4.302
 Vibration     2          0.600              1.962              3.858
 Vibration     3          0.636              1.844              2.162
 Vibration     4          0.692              1.676              1.424
 Vibration     5          0.732              1.562              1.137
 Vibration     6          0.745              1.525              1.062
 Vibration     7          0.767              1.467              0.957
 Vibration     8          0.819              1.337              0.764
 Vibration     9          0.940              1.068              0.480

 Optimization completed.
    -- Stationary point found.
 Normal termination of Gaussian 09 at Mon Jan 27 14:11:26 2020.
