 Gaussian 09, Revision D.01,
 Gaussian 09:  ES64L-G09RevD.01 24-Apr-2013

 -----------------------------
 # b3lyp 6-31G(2df,p) opt Freq
 -----------------------------

 -----
 titel
 -----
 Symbolic Z-matrix:
 Charge =  0 Multiplicity = 1

 SCF Done:  E(RB3LYP) =  -423.112571694     A.U. after   13 cycles
 Optimization completed.
    -- Stationary point found.
 Normal termination of Gaussian 09 at Mon Jan 27 23:07:37 2020.

 ----------------------------------------------------------------------
 #N Geom=AllCheck Guess=TCheck SCRF=Check GenChk RB3LYP/6-31G(2df,p) Fr
 eq
 ----------------------------------------------------------------------

 Structure from the checkpoint file:  "/scratch/puck/g09_01a3bf97-8b8f-4bcf-9ae1-9a88c23464a5/Gau-56582.chk"
 -----
 titel
 -----
 Charge =  0 Multiplicity = 1

                         Standard orientation:
 ---------------------------------------------------------------------
 Center     Atomic      Atomic             Coordinates (Angstroms)
 Number     Number       Type             X           Y           Z
 ---------------------------------------------------------------------
      1          8           0        1.851414   -1.398731   -0.518037
      2          6           0        0.847151   -0.421518   -0.638497
      3          6           0        1.121497    1.027940   -0.158112
      4          6           0        0.891885    0.494748    1.310101
      5          6           0       -0.185651   -0.332818    0.537655
      6          6           0       -1.426123   -1.258266    0.540813
      7          6           0       -2.021248   -0.297690   -0.566261
      8          6           0       -1.059033    0.787197    0.022800
      9          8           0       -0.102832    1.677270   -0.582169
     10          1           0        1.958454   -1.635503    0.408105
     11          1           0        0.470109   -0.483810   -1.660730
     12          1           0        1.987174    1.620348   -0.448324
     13          1           0        1.771969   -0.033128    1.683664
     14          1           0        0.528929    1.194532    2.065862
     15          1           0       -1.263593   -2.304011    0.272911
     16          1           0       -2.005136   -1.209831    1.466757
     17          1           0       -1.764683   -0.624341   -1.574047
     18          1           0       -3.089373   -0.079719   -0.516957
     19          1           0       -1.593374    1.329596    0.813409
 ---------------------------------------------------------------------

 SCF Done:  E(RB3LYP) =  -423.112571694     A.U. after    1 cycles

 The electronic state is 1-A.
 Alpha  occ. eigenvalues --  -19.14360 -19.13889 -10.23550 -10.23202 -10.22699
 Alpha  occ. eigenvalues --  -10.19847 -10.19789 -10.19746 -10.19298  -1.04641
 Alpha  occ. eigenvalues --   -1.02158  -0.85607  -0.79724  -0.67710  -0.65788
 Alpha  occ. eigenvalues --   -0.63756  -0.57648  -0.55695  -0.51430  -0.48454
 Alpha  occ. eigenvalues --   -0.47107  -0.45135  -0.43368  -0.40128  -0.38351
 Alpha  occ. eigenvalues --   -0.37718  -0.36654  -0.36389  -0.35389  -0.32722
 Alpha  occ. eigenvalues --   -0.30314  -0.28565  -0.26857  -0.23209
 Alpha virt. eigenvalues --    0.06253   0.08059   0.09166   0.11756   0.12405
 Alpha virt. eigenvalues --    0.12636   0.13397   0.14431   0.16311   0.17872
 Alpha virt. eigenvalues --    0.18122   0.19097   0.19931   0.21318   0.22758

 Mulliken charges:
               1
     1  O   -0.459153
     2  C    0.159019
     3  C    0.061911
     4  C   -0.379377
     5  C    0.215961
     6  C   -0.357679
     7  C   -0.291591
     8  C    0.150778
     9  O   -0.298508
    10  H    0.285481
    11  H    0.089215
    12  H    0.088774
    13  H    0.096511
    14  H    0.108689
    15  H    0.113332
    16  H    0.112876
    17  H    0.123349
    18  H    0.103564
    19  H    0.076849
 Sum of Mulliken charges =   0.00000

 Dipole moment (field-independent basis, Debye):
    X=             -0.6122    Y=             -0.9038    Z=              1.9123  Tot=              2.2019
 Quadrupole moment (field-independent basis, Debye-Ang):
   XX=            -51.7935   YY=            -56.8783   ZZ=            -52.7138
   XY=              1.8650   XZ=              2.4479   YZ=             -0.2982

  Exact polarizability:  84.684   3.082  71.070   1.756   1.462  68.472
 Approx polarizability: 118.452   0.954 108.776   1.004   0.404 106.286

                      1                      2                      3
                      A                      A                      A
 Frequencies --    144.1737               202.1105               235.9766
 Red. masses --      1.2992                 3.7881                 2.0376
 Frc consts  --      0.0159                 0.0912                 0.0669
 IR Inten    --     67.4936                 0.3225                 7.6595

                      4                      5                      6
                      A                      A                      A
 Frequencies --    310.0232               377.1460               423.8726
 Red. masses --      2.8683                 3.2710                 3.3225
 Frc consts  --      0.1624                 0.2741                 0.3517
 IR Inten    --      4.4035                 2.5334                 4.6348

                      7                      8                      9
                      A                      A                      A
 Frequencies --    459.7692               534.3593               565.6839
 Red. masses --      2.8713                 2.5824                 4.0117
 Frc consts  --      0.3576                 0.4344                 0.7564
 IR Inten    --      5.5723                 0.4978                 1.8950

                     10                     11                     12
                      A                      A                      A
 Frequencies --    630.0817               680.9455               782.5223
 Red. masses --      3.0304                 2.9193                 1.9423
 Frc consts  --      0.7088                 0.7975                 0.7008
 IR Inten    --      2.5363                 5.3733                 4.8999

                     13                     14                     15
                      A                      A                      A
 Frequencies --    817.2599               823.2137               877.7629
 Red. masses --      2.6435                 1.7117                 2.6487
 Frc consts  --      1.0403                 0.6834                 1.2024
 IR Inten    --      1.0900                 7.1648                10.1872

                     16                     17                     18
                      A                      A                      A
 Frequencies --    881.3941               905.1183               941.7026
 Red. masses --      3.5447                 3.5243                 2.2275
 Frc consts  --      1.6225                 1.7011                 1.1638
 IR Inten    --      1.2487                57.3994                 8.9794

                     19                     20                     21
                      A                      A                      A
 Frequencies --    968.0482               995.4447              1030.4155
 Red. masses --      1.9298                 1.9837                 1.9133
 Frc consts  --      1.0655                 1.1581                 1.1969
 IR Inten    --      1.8619                 2.4752                15.3312

                     22                     23                     24
                      A                      A                      A
 Frequencies --   1068.6649              1080.9031              1100.9615
 Red. masses --      1.7026                 2.2713                 2.1163
 Frc consts  --      1.1457                 1.5635                 1.5114
 IR Inten    --      5.9248                28.9403                57.6833

                     25                     26                     27
                      A                      A                      A
 Frequencies --   1128.6414              1152.5864              1162.6353
 Red. masses --      2.6594                 1.5538                 1.6195
 Frc consts  --      1.9959                 1.2162                 1.2898
 IR Inten    --     54.9760                 2.1970                29.7506

                     28                     29                     30
                      A                      A                      A
 Frequencies --   1195.9892              1208.1785              1220.7419
 Red. masses --      2.3291                 1.4137                 1.3248
 Frc consts  --      1.9629                 1.2158                 1.1632
 IR Inten    --      2.2513                 2.3052                 3.5771

                     31                     32                     33
                      A                      A                      A
 Frequencies --   1229.6068              1243.0096              1256.2355
 Red. masses --      1.5695                 1.4811                 1.5440
 Frc consts  --      1.3982                 1.3483                 1.4356
 IR Inten    --     17.1238                16.6165                 6.9921

                     34                     35                     36
                      A                      A                      A
 Frequencies --   1268.6399              1299.1826              1306.2340
 Red. masses --      2.3156                 1.5504                 1.7740
 Frc consts  --      2.1958                 1.5418                 1.7834
 IR Inten    --      2.0209                10.2675                 1.8217

                     37                     38                     39
                      A                      A                      A
 Frequencies --   1393.7821              1422.0702              1479.7429
 Red. masses --      1.1826                 1.2505                 1.0881
 Frc consts  --      1.3535                 1.4899                 1.4037
 IR Inten    --      9.4806                61.2442                 1.9458

                     40                     41                     42
                      A                      A                      A
 Frequencies --   1492.9958              1503.9313              3013.5582
 Red. masses --      1.1202                 1.1152                 1.0849
 Frc consts  --      1.4712                 1.4861                 5.8049
 IR Inten    --      2.3186                 2.7661                44.5275

                     43                     44                     45
                      A                      A                      A
 Frequencies --   3066.1041              3070.5159              3085.2867
 Red. masses --      1.0577                 1.0565                 1.0617
 Frc consts  --      5.8585                 5.8686                 5.9545
 IR Inten    --     33.0365                34.0957                21.1360

                     46                     47                     48
                      A                      A                      A
 Frequencies --   3100.6253              3120.5321              3128.5084
 Red. masses --      1.0852                 1.1087                 1.1096
 Frc consts  --      6.1471                 6.3610                 6.3989
 IR Inten    --     40.0339                 9.8979                25.4982

                     49                     50                     51
                      A                      A                      A
 Frequencies --   3147.5588              3150.5370              3827.7663
 Red. masses --      1.0918                 1.1067                 1.0656
 Frc consts  --      6.3731                 6.4721                 9.1992
 IR Inten    --     31.5708                32.7409                14.7856

 - Thermochemistry -
 -------------------
 Temperature   298.150 Kelvin.  Pressure   1.00000 Atm.
 Atom     1 has atomic number  8 and mass  15.99491

 Molecular mass:   126.06808 amu.
 Principal axes and moments of inertia in atomic units:
                           1         2         3
     Eigenvalues --   716.78017 966.168271238.85034
           X            0.99734   0.06988   0.02064
           Y           -0.07030   0.99732   0.02045
           Z           -0.01916  -0.02185   0.99958
 This molecule is an asymmetric top.
 Rotational symmetry number  1.
 Warning -- assumption of classical behavior for rotation
           may cause significant error
 Rotational temperatures (Kelvin)      0.12084     0.08965     0.06991
 Rotational constants (GHZ):           2.51784     1.86794     1.45679
 Zero-point vibrational energy     421759.9 (Joules/Mol)
                                  100.80304 (Kcal/Mol)
 Warning -- explicit consideration of   9 degrees of freedom as
           vibrations may cause significant error
 Vibrational temperatures:    207.43   290.79   339.52   446.05   542.63
          (Kelvin)            609.86   661.50   768.82   813.89   906.55
                              979.73  1125.87  1175.85  1184.42  1262.90
                             1268.13  1302.26  1354.90  1392.80  1432.22
                             1482.54  1537.57  1555.18  1584.04  1623.86
                             1658.31  1672.77  1720.76  1738.30  1756.37
                             1769.13  1788.41  1807.44  1825.29  1869.23
                             1879.38  2005.34  2046.04  2129.02  2148.09
                             2163.82  4335.83  4411.43  4417.78  4439.03
                             4461.10  4489.74  4501.22  4528.63  4532.91
                             5507.30

 Zero-point correction=                           0.160640 (Hartree/Particle)
 Thermal correction to Energy=                    0.167971
 Thermal correction to Enthalpy=                  0.168915
 Thermal correction to Gibbs Free Energy=         0.129287
 Sum of electronic and zero-point Energies=           -422.951932
 Sum of electronic and thermal Energies=              -422.944601
 Sum of electronic and thermal Enthalpies=            -422.943657
 Sum of electronic and thermal Free Energies=         -422.983285

                     E (Thermal)             CV                S
                      KCal/Mol        Cal/Mol-Kelvin    Cal/Mol-Kelvin
 Total                  105.403             30.230             83.405
 Electronic               0.000              0.000              0.000
 Translational            0.889              2.981             40.409
 Rotational               0.889              2.981             28.241
 Vibrational            103.626             24.269             14.755
 Vibration     1          0.616              1.909              2.748
 Vibration     2          0.639              1.837              2.114
 Vibration     3          0.655              1.786              1.833
 Vibration     4          0.699              1.655              1.362
 Vibration     5          0.748              1.519              1.051
 Vibration     6          0.786              1.418              0.879
 Vibration     7          0.818              1.339              0.767
 Vibration     8          0.889              1.174              0.578
 Vibration     9          0.922              1.106              0.513

 Optimization completed.
    -- Stationary point found.
 Normal termination of Gaussian 09 at Mon Jan 27 23:58:04 2020.
