 Gaussian 09, Revision D.01,
 Gaussian 09:  ES64L-G09RevD.01 24-Apr-2013

 -----------------------------
 # b3lyp 6-31G(2df,p) opt Freq
 -----------------------------

 -----
 titel
 -----
 Symbolic Z-matrix:
 Charge =  0 Multiplicity = 1

 SCF Done:  E(RB3LYP) =  -423.153408161     A.U. after   14 cycles
 Optimization completed.
    -- Stationary point found.
 Normal termination of Gaussian 09 at Mon Jan 27 15:30:41 2020.

 ----------------------------------------------------------------------
 #N Geom=AllCheck Guess=TCheck SCRF=Check GenChk RB3LYP/6-31G(2df,p) Fr
 eq
 ----------------------------------------------------------------------

 Structure from the checkpoint file:  "/scratch/puck/g09_5af94bfe-19f6-466e-b04f-9769c8fd030e/Gau-57531.chk"
 -----
 titel
 -----
 Charge =  0 Multiplicity = 1

                         Standard orientation:
 ---------------------------------------------------------------------
 Center     Atomic      Atomic             Coordinates (Angstroms)
 Number     Number       Type             X           Y           Z
 ---------------------------------------------------------------------
      1          6           0        1.907711    1.310853    0.395485
      2          6           0        1.402017    0.125172   -0.427454
      3          8           0        2.238890   -1.022069   -0.292492
      4          6           0       -0.036098   -0.203507   -0.111263
      5          6           0       -0.966379   -1.259063   -0.808605
      6          6           0       -1.896558   -0.646275    0.292693
      7          6           0       -0.652136   -0.733749    1.241266
      8          6           0       -1.289032    0.694280   -0.139191
      9          8           0       -1.596045    1.824433   -0.366622
     10          1           0        2.943249    1.538494    0.130342
     11          1           0        1.289452    2.195838    0.216321
     12          1           0        1.869440    1.085124    1.468480
     13          1           0        1.460822    0.381276   -1.492535
     14          1           0        2.299202   -1.227589    0.647102
     15          1           0       -1.232340   -1.084202   -1.852926
     16          1           0       -0.673787   -2.295716   -0.629610
     17          1           0       -2.925922   -0.909483    0.522893
     18          1           0       -0.630458   -0.073084    2.110186
     19          1           0       -0.359576   -1.755842    1.495080
 ---------------------------------------------------------------------

 SCF Done:  E(RB3LYP) =  -423.153408161     A.U. after    1 cycles

 The electronic state is 1-A.
 Alpha  occ. eigenvalues --  -19.13962 -19.13818 -10.27510 -10.24017 -10.21520
 Alpha  occ. eigenvalues --  -10.21405 -10.21371 -10.20876 -10.18020  -1.05069
 Alpha  occ. eigenvalues --   -1.02180  -0.92552  -0.76263  -0.68450  -0.66531
 Alpha  occ. eigenvalues --   -0.63690  -0.60675  -0.52318  -0.50616  -0.46702
 Alpha  occ. eigenvalues --   -0.45785  -0.45036  -0.44706  -0.42448  -0.40254
 Alpha  occ. eigenvalues --   -0.37842  -0.36905  -0.36046  -0.35092  -0.33922
 Alpha  occ. eigenvalues --   -0.33304  -0.31724  -0.27894  -0.23925
 Alpha virt. eigenvalues --    0.00948   0.06443   0.10128   0.10581   0.11926
 Alpha virt. eigenvalues --    0.12493   0.13472   0.14722   0.15195   0.15352
 Alpha virt. eigenvalues --    0.16832   0.17873   0.18428   0.19354   0.20141

 Mulliken charges:
               1
     1  C   -0.420881
     2  C   -0.016486
     3  O   -0.424686
     4  C    0.201753
     5  C   -0.275938
     6  C   -0.176533
     7  C   -0.284523
     8  C    0.431810
     9  O   -0.338983
    10  H    0.125704
    11  H    0.145825
    12  H    0.107138
    13  H    0.101228
    14  H    0.277554
    15  H    0.113150
    16  H    0.114409
    17  H    0.097329
    18  H    0.113942
    19  H    0.108190
 Sum of Mulliken charges =   0.00000

 Dipole moment (field-independent basis, Debye):
    X=              0.3283    Y=             -1.9258    Z=              1.6021  Tot=              2.5265
 Quadrupole moment (field-independent basis, Debye-Ang):
   XX=            -56.4018   YY=            -57.8530   ZZ=            -50.7173
   XY=              6.4766   XZ=              2.1857   YZ=             -1.0424

  Exact polarizability:  79.685   1.111  78.121   0.922  -1.449  68.862
 Approx polarizability: 108.836  -5.937 123.226   1.065  -5.044 107.446

                      1                      2                      3
                      A                      A                      A
 Frequencies --     54.2034               126.9067               184.6045
 Red. masses --      3.7944                 4.8728                 3.0507
 Frc consts  --      0.0066                 0.0462                 0.0613
 IR Inten    --      2.8089                 5.0594                 0.3914

                      4                      5                      6
                      A                      A                      A
 Frequencies --    198.5695               256.9477               282.0621
 Red. masses --      3.1908                 1.1278                 1.3511
 Frc consts  --      0.0741                 0.0439                 0.0633
 IR Inten    --      2.0036                 1.5273                52.7383

                      7                      8                      9
                      A                      A                      A
 Frequencies --    309.4472               351.9775               482.0871
 Red. masses --      2.7265                 3.1430                 2.8842
 Frc consts  --      0.1538                 0.2294                 0.3949
 IR Inten    --     56.3378                 1.0738                11.5532

                     10                     11                     12
                      A                      A                      A
 Frequencies --    518.8268               570.8356               632.6081
 Red. masses --      2.1305                 3.6464                 3.0920
 Frc consts  --      0.3379                 0.7001                 0.7291
 IR Inten    --      0.8095                 3.9280                 3.1558

                     13                     14                     15
                      A                      A                      A
 Frequencies --    741.9197               784.9863               792.1800
 Red. masses --      4.8202                 4.1673                 3.0047
 Frc consts  --      1.5632                 1.5130                 1.1109
 IR Inten    --      7.5759                 0.4734                14.9530

                     16                     17                     18
                      A                      A                      A
 Frequencies --    815.7765               907.8654               919.8148
 Red. masses --      3.2450                 2.1720                 2.2112
 Frc consts  --      1.2724                 1.0547                 1.1023
 IR Inten    --      3.3821                 6.5958                 0.4027

                     19                     20                     21
                      A                      A                      A
 Frequencies --    927.5489               985.5322              1004.7618
 Red. masses --      2.1820                 2.2951                 1.0648
 Frc consts  --      1.1061                 1.3134                 0.6334
 IR Inten    --      1.3778                29.9652                 1.1954

                     22                     23                     24
                      A                      A                      A
 Frequencies --   1033.1266              1041.3909              1074.4268
 Red. masses --      1.5756                 1.6470                 1.8267
 Frc consts  --      0.9909                 1.0524                 1.2424
 IR Inten    --      9.8683                19.8835                15.6650

                     25                     26                     27
                      A                      A                      A
 Frequencies --   1080.2125              1100.5661              1142.5081
 Red. masses --      1.6038                 1.7697                 1.9490
 Frc consts  --      1.1026                 1.2629                 1.4989
 IR Inten    --      6.1914                53.3098                 6.2613

                     28                     29                     30
                      A                      A                      A
 Frequencies --   1157.0489              1186.9861              1197.9829
 Red. masses --      1.6939                 1.6834                 1.5414
 Frc consts  --      1.3361                 1.3974                 1.3034
 IR Inten    --     17.7742                 8.1494                 1.5829

                     31                     32                     33
                      A                      A                      A
 Frequencies --   1228.4452              1293.8641              1321.4723
 Red. masses --      1.8969                 1.4826                 1.6782
 Frc consts  --      1.6866                 1.4624                 1.7266
 IR Inten    --      6.5191                 7.2908                 2.7458

                     34                     35                     36
                      A                      A                      A
 Frequencies --   1376.9458              1403.3311              1417.4680
 Red. masses --      2.6301                 1.2432                 1.2306
 Frc consts  --      2.9381                 1.4425                 1.4568
 IR Inten    --      8.3795                 8.3235                53.6756

                     37                     38                     39
                      A                      A                      A
 Frequencies --   1493.1433              1494.1092              1496.5514
 Red. masses --      1.0607                 1.0710                 1.0701
 Frc consts  --      1.3933                 1.4086                 1.4121
 IR Inten    --      4.9449                 5.0027                 1.5164

                     40                     41                     42
                      A                      A                      A
 Frequencies --   1533.2721              1906.7846              3026.5570
 Red. masses --      1.1458                12.2531                 1.0435
 Frc consts  --      1.5871                26.2482                 5.6318
 IR Inten    --      0.0838               339.7833                 8.1719

                     43                     44                     45
                      A                      A                      A
 Frequencies --   3039.9875              3059.2237              3067.2183
 Red. masses --      1.0789                 1.0532                 1.0536
 Frc consts  --      5.8746                 5.8077                 5.8399
 IR Inten    --     20.4628                22.9208                26.3764

                     46                     47                     48
                      A                      A                      A
 Frequencies --   3099.5752              3126.4782              3132.1010
 Red. masses --      1.0965                 1.1029                 1.1121
 Frc consts  --      6.2068                 6.3520                 6.4278
 IR Inten    --     24.9702                15.8117                20.6047

                     49                     50                     51
                      A                      A                      A
 Frequencies --   3139.2288              3153.8780              3799.8189
 Red. masses --      1.1125                 1.0939                 1.0659
 Frc consts  --      6.4596                 6.4107                 9.0676
 IR Inten    --     17.9894                28.9186                12.1935

 - Thermochemistry -
 -------------------
 Temperature   298.150 Kelvin.  Pressure   1.00000 Atm.
 Atom     1 has atomic number  6 and mass  12.00000

 Molecular mass:   126.06808 amu.
 Principal axes and moments of inertia in atomic units:
                           1         2         3
     Eigenvalues --   706.898041257.756181600.20938
           X            0.99631   0.08536   0.00903
           Y           -0.08547   0.99627   0.01206
           Z           -0.00797  -0.01278   0.99989
 This molecule is an asymmetric top.
 Rotational symmetry number  1.
 Warning -- assumption of classical behavior for rotation
           may cause significant error
 Rotational temperatures (Kelvin)      0.12253     0.06886     0.05413
 Rotational constants (GHZ):           2.55304     1.43489     1.12782
 Zero-point vibrational energy     415541.8 (Joules/Mol)
                                   99.31687 (Kcal/Mol)
 Warning -- explicit consideration of  11 degrees of freedom as
           vibrations may cause significant error
 Vibrational temperatures:     77.99   182.59   265.60   285.70   369.69
          (Kelvin)            405.82   445.22   506.42   693.61   746.48
                              821.30   910.18  1067.46  1129.42  1139.77
                             1173.72  1306.21  1323.41  1334.53  1417.96
                             1445.63  1486.44  1498.33  1545.86  1554.18
                             1583.47  1643.81  1664.73  1707.81  1723.63
                             1767.46  1861.58  1901.30  1981.12  2019.08
                             2039.42  2148.30  2149.69  2153.20  2206.03
                             2743.43  4354.53  4373.86  4401.54  4413.04
                             4459.59  4498.30  4506.39  4516.64  4537.72
                             5467.08

 Zero-point correction=                           0.158272 (Hartree/Particle)
 Thermal correction to Energy=                    0.167077
 Thermal correction to Enthalpy=                  0.168021
 Thermal correction to Gibbs Free Energy=         0.124603
 Sum of electronic and zero-point Energies=           -422.995137
 Sum of electronic and thermal Energies=              -422.986331
 Sum of electronic and thermal Enthalpies=            -422.985387
 Sum of electronic and thermal Free Energies=         -423.028805

                     E (Thermal)             CV                S
                      KCal/Mol        Cal/Mol-Kelvin    Cal/Mol-Kelvin
 Total                  104.842             33.279             91.382
 Electronic               0.000              0.000              0.000
 Translational            0.889              2.981             40.409
 Rotational               0.889              2.981             28.744
 Vibrational            103.065             27.318             22.229
 Vibration     1          0.596              1.976              4.658
 Vibration     2          0.611              1.926              2.992
 Vibration     3          0.631              1.861              2.281
 Vibration     4          0.637              1.842              2.146
 Vibration     5          0.667              1.751              1.682
 Vibration     6          0.681              1.707              1.521
 Vibration     7          0.699              1.656              1.365
 Vibration     8          0.729              1.571              1.157
 Vibration     9          0.838              1.290              0.704
 Vibration    10          0.874              1.208              0.613
 Vibration    11          0.927              1.094              0.503

 Optimization completed.
    -- Stationary point found.
 Normal termination of Gaussian 09 at Mon Jan 27 16:11:40 2020.
