 Gaussian 09, Revision D.01,
 Gaussian 09:  ES64L-G09RevD.01 24-Apr-2013

 -----------------------------
 # b3lyp 6-31G(2df,p) opt Freq
 -----------------------------

 -----
 titel
 -----
 Symbolic Z-matrix:
 Charge =  0 Multiplicity = 1

 SCF Done:  E(RB3LYP) =  -423.175249772     A.U. after   14 cycles
 Optimization completed.
    -- Stationary point found.
 Normal termination of Gaussian 09 at Mon Jan 27 22:04:28 2020.

 ----------------------------------------------------------------------
 #N Geom=AllCheck Guess=TCheck SCRF=Check GenChk RB3LYP/6-31G(2df,p) Fr
 eq
 ----------------------------------------------------------------------

 Structure from the checkpoint file:  "/scratch/puck/g09_b87cf8ea-5937-4559-8910-6383c8b43605/Gau-189575.chk"
 -----
 titel
 -----
 Charge =  0 Multiplicity = 1

                         Standard orientation:
 ---------------------------------------------------------------------
 Center     Atomic      Atomic             Coordinates (Angstroms)
 Number     Number       Type             X           Y           Z
 ---------------------------------------------------------------------
      1          6           0        0.418748    2.205712   -0.347453
      2          6           0        0.718562    0.916588    0.402453
      3          6           0        1.247764   -0.329454   -0.374328
      4          8           0        2.611071   -0.645404   -0.241340
      5          6           0        0.203525   -1.239691    0.346153
      6          6           0       -1.077254   -1.507643   -0.486648
      7          6           0       -1.638379   -0.167572    0.034843
      8          8           0       -2.632734    0.458354   -0.193393
      9          6           0       -0.445310    0.047577    0.981651
     10          1           0       -0.015444    2.961280    0.315296
     11          1           0        1.337447    2.620129   -0.776258
     12          1           0       -0.291418    2.039662   -1.163445
     13          1           0        1.421302    1.119028    1.221043
     14          1           0        1.072360   -0.268150   -1.453861
     15          1           0        2.821412   -0.686029    0.697856
     16          1           0        0.611198   -2.059565    0.936872
     17          1           0       -0.976480   -1.621996   -1.570201
     18          1           0       -1.676603   -2.342108   -0.104803
     19          1           0       -0.696400    0.181040    2.035339
 ---------------------------------------------------------------------

 SCF Done:  E(RB3LYP) =  -423.175249772     A.U. after    1 cycles

 The electronic state is 1-A.
 Alpha  occ. eigenvalues --  -19.14584 -19.13811 -10.27034 -10.23790 -10.20117
 Alpha  occ. eigenvalues --  -10.19784 -10.19579 -10.19513 -10.17930  -1.04649
 Alpha  occ. eigenvalues --   -1.02913  -0.87807  -0.77160  -0.70016  -0.67506
 Alpha  occ. eigenvalues --   -0.60516  -0.59275  -0.53408  -0.49621  -0.46599
 Alpha  occ. eigenvalues --   -0.45744  -0.44899  -0.43292  -0.41997  -0.40962
 Alpha  occ. eigenvalues --   -0.39469  -0.37791  -0.36497  -0.35855  -0.34407
 Alpha  occ. eigenvalues --   -0.30818  -0.29484  -0.26241  -0.24128
 Alpha virt. eigenvalues --   -0.02507   0.06946   0.08991   0.09714   0.10083
 Alpha virt. eigenvalues --    0.12888   0.13859   0.14705   0.15741   0.16886
 Alpha virt. eigenvalues --    0.17630   0.18218   0.18668   0.20422   0.23093

 Mulliken charges:
               1
     1  C   -0.416387
     2  C   -0.011727
     3  C    0.142699
     4  O   -0.433406
     5  C   -0.090552
     6  C   -0.358189
     7  C    0.412468
     8  O   -0.301118
     9  C   -0.184782
    10  H    0.124484
    11  H    0.123218
    12  H    0.129024
    13  H    0.072840
    14  H    0.089390
    15  H    0.278301
    16  H    0.073483
    17  H    0.126440
    18  H    0.133470
    19  H    0.090344
 Sum of Mulliken charges =   0.00000

 Dipole moment (field-independent basis, Debye):
    X=              1.5982    Y=             -0.9272    Z=              1.6756  Tot=              2.4943
 Quadrupole moment (field-independent basis, Debye-Ang):
   XX=            -63.9698   YY=            -51.8024   ZZ=            -50.2129
   XY=              4.4252   XZ=              3.1520   YZ=             -0.8080

  Exact polarizability:  82.121   0.130  78.161   3.096   1.425  65.986
 Approx polarizability: 120.500  -6.335 108.962   5.536   2.080 103.321

                      1                      2                      3
                      A                      A                      A
 Frequencies --     49.6660               119.5503               203.5758
 Red. masses --      4.3545                 4.6710                 1.0796
 Frc consts  --      0.0063                 0.0393                 0.0264
 IR Inten    --      3.3171                 3.9767                 0.2186

                      4                      5                      6
                      A                      A                      A
 Frequencies --    233.9306               255.3284               300.8987
 Red. masses --      2.6766                 2.8742                 1.2980
 Frc consts  --      0.0863                 0.1104                 0.0692
 IR Inten    --      2.8416                 1.2734                53.3275

                      7                      8                      9
                      A                      A                      A
 Frequencies --    363.0113               372.4218               432.9314
 Red. masses --      2.3494                 2.8936                 3.7641
 Frc consts  --      0.1824                 0.2365                 0.4157
 IR Inten    --     14.3967                31.0973                 1.8195

                     10                     11                     12
                      A                      A                      A
 Frequencies --    469.9674               567.3971               590.1567
 Red. masses --      3.8404                 2.1913                 3.7744
 Frc consts  --      0.4998                 0.4157                 0.7745
 IR Inten    --      1.1919                 2.7526                 0.3333

                     13                     14                     15
                      A                      A                      A
 Frequencies --    701.2055               801.9047               827.9950
 Red. masses --      3.5970                 2.1949                 2.9813
 Frc consts  --      1.0420                 0.8316                 1.2042
 IR Inten    --      0.6042                 3.7473                12.7895

                     16                     17                     18
                      A                      A                      A
 Frequencies --    846.0113               880.6434               912.7475
 Red. masses --      2.0335                 1.9833                 2.3078
 Frc consts  --      0.8575                 0.9063                 1.1328
 IR Inten    --      9.2402                10.5672                 1.5654

                     19                     20                     21
                      A                      A                      A
 Frequencies --    969.9349               980.7402              1023.9207
 Red. masses --      1.8091                 1.9128                 2.4860
 Frc consts  --      1.0027                 1.0840                 1.5356
 IR Inten    --      1.0902                13.7846                27.7741

                     22                     23                     24
                      A                      A                      A
 Frequencies --   1071.4893              1084.0106              1115.6552
 Red. masses --      1.8656                 1.6152                 1.9668
 Frc consts  --      1.2619                 1.1183                 1.4424
 IR Inten    --      7.9967                23.0650                17.2454

                     25                     26                     27
                      A                      A                      A
 Frequencies --   1118.6374              1127.6838              1133.5714
 Red. masses --      2.0658                 1.8437                 2.6064
 Frc consts  --      1.5230                 1.3814                 1.9733
 IR Inten    --     33.1868                39.3810                73.0397

                     28                     29                     30
                      A                      A                      A
 Frequencies --   1182.2192              1205.6565              1221.4091
 Red. masses --      1.7877                 1.5698                 1.6793
 Frc consts  --      1.4721                 1.3445                 1.4760
 IR Inten    --      4.7545                 3.0308                 7.5162

                     31                     32                     33
                      A                      A                      A
 Frequencies --   1247.1192              1261.8585              1286.0550
 Red. masses --      1.3745                 1.5190                 1.5994
 Frc consts  --      1.2596                 1.4250                 1.5586
 IR Inten    --      6.5935                11.9369                 4.0226

                     34                     35                     36
                      A                      A                      A
 Frequencies --   1320.5134              1371.7165              1412.3815
 Red. masses --      1.4828                 1.5628                 1.2500
 Frc consts  --      1.5234                 1.7325                 1.4692
 IR Inten    --      1.4658                 4.1616                 2.6510

                     37                     38                     39
                      A                      A                      A
 Frequencies --   1430.5762              1440.4994              1492.9860
 Red. masses --      1.1508                 1.1726                 1.0471
 Frc consts  --      1.3876                 1.4336                 1.3752
 IR Inten    --     30.2650                41.8852                 5.2908

                     40                     41                     42
                      A                      A                      A
 Frequencies --   1495.0194              1882.9869              3016.5709
 Red. masses --      1.0470                12.6868                 1.0839
 Frc consts  --      1.3787                26.5030                 5.8111
 IR Inten    --      4.9590               253.3253                20.6607

                     43                     44                     45
                      A                      A                      A
 Frequencies --   3033.9621              3043.8039              3053.3087
 Red. masses --      1.0358                 1.0593                 1.0860
 Frc consts  --      5.6175                 5.7824                 5.9653
 IR Inten    --     18.2732                10.4525                28.8219

                     46                     47                     48
                      A                      A                      A
 Frequencies --   3096.4640              3099.7457              3101.6125
 Red. masses --      1.0956                 1.0962                 1.1014
 Frc consts  --      6.1890                 6.2058                 6.2426
 IR Inten    --     22.3944                 1.5564                18.6779

                     49                     50                     51
                      A                      A                      A
 Frequencies --   3107.7117              3119.5639              3803.5032
 Red. masses --      1.1011                 1.0904                 1.0658
 Frc consts  --      6.2658                 6.2519                 9.0848
 IR Inten    --     24.2341                26.8329                15.2301

 - Thermochemistry -
 -------------------
 Temperature   298.150 Kelvin.  Pressure   1.00000 Atm.
 Atom     1 has atomic number  6 and mass  12.00000

 Molecular mass:   126.06808 amu.
 Principal axes and moments of inertia in atomic units:
                           1         2         3
     Eigenvalues --   699.994531250.025931691.56929
           X            0.99911   0.04135   0.00809
           Y           -0.04130   0.99912  -0.00729
           Z           -0.00839   0.00695   0.99994
 This molecule is an asymmetric top.
 Rotational symmetry number  1.
 Warning -- assumption of classical behavior for rotation
           may cause significant error
 Rotational temperatures (Kelvin)      0.12373     0.06929     0.05120
 Rotational constants (GHZ):           2.57822     1.44376     1.06690
 Zero-point vibrational energy     414399.8 (Joules/Mol)
                                   99.04392 (Kcal/Mol)
 Warning -- explicit consideration of  12 degrees of freedom as
           vibrations may cause significant error
 Vibrational temperatures:     71.46   172.01   292.90   336.57   367.36
          (Kelvin)            432.93   522.29   535.83   622.89   676.18
                              816.36   849.10  1008.88  1153.76  1191.30
                             1217.22  1267.05  1313.24  1395.52  1411.06
                             1473.19  1541.63  1559.65  1605.18  1609.47
                             1622.48  1630.95  1700.95  1734.67  1757.33
                             1794.32  1815.53  1850.34  1899.92  1973.59
                             2032.10  2058.28  2072.55  2148.07  2151.00
                             2709.19  4340.17  4365.19  4379.35  4393.02
                             4455.12  4459.84  4462.52  4471.30  4488.35
                             5472.39

 Zero-point correction=                           0.157837 (Hartree/Particle)
 Thermal correction to Energy=                    0.166554
 Thermal correction to Enthalpy=                  0.167498
 Thermal correction to Gibbs Free Energy=         0.124228
 Sum of electronic and zero-point Energies=           -423.017413
 Sum of electronic and thermal Energies=              -423.008696
 Sum of electronic and thermal Enthalpies=            -423.007751
 Sum of electronic and thermal Free Energies=         -423.051022

                     E (Thermal)             CV                S
                      KCal/Mol        Cal/Mol-Kelvin    Cal/Mol-Kelvin
 Total                  104.514             33.164             91.071
 Electronic               0.000              0.000              0.000
 Translational            0.889              2.981             40.409
 Rotational               0.889              2.981             28.783
 Vibrational            102.737             27.202             21.879
 Vibration     1          0.595              1.978              4.831
 Vibration     2          0.609              1.933              3.108
 Vibration     3          0.639              1.835              2.101
 Vibration     4          0.654              1.789              1.849
 Vibration     5          0.666              1.754              1.694
 Vibration     6          0.693              1.672              1.412
 Vibration     7          0.737              1.548              1.109
 Vibration     8          0.744              1.529              1.070
 Vibration     9          0.794              1.398              0.849
 Vibration    10          0.827              1.317              0.738
 Vibration    11          0.923              1.102              0.509
 Vibration    12          0.947              1.053              0.467

 Optimization completed.
    -- Stationary point found.
 Normal termination of Gaussian 09 at Mon Jan 27 22:48:50 2020.
