 Gaussian 09, Revision D.01,
 Gaussian 09:  ES64L-G09RevD.01 24-Apr-2013

 -----------------------------
 # b3lyp 6-31G(2df,p) opt Freq
 -----------------------------

 -----
 titel
 -----
 Symbolic Z-matrix:
 Charge =  0 Multiplicity = 1

 SCF Done:  E(RB3LYP) =  -423.198334777     A.U. after   14 cycles
 SCF Done:  E(RB3LYP) =  -423.198334489     A.U. after    7 cycles
 Optimization completed.
    -- Stationary point found.
 Normal termination of Gaussian 09 at Tue Jan 28 08:20:15 2020.

 ----------------------------------------------------------------------
 #N Geom=AllCheck Guess=TCheck SCRF=Check GenChk RB3LYP/6-31G(2df,p) Fr
 eq
 ----------------------------------------------------------------------

 Structure from the checkpoint file:  "/scratch/puck/g09_f3494eba-c812-4c65-b86b-cfdf2f727fab/Gau-17859.chk"
 -----
 titel
 -----
 Charge =  0 Multiplicity = 1

                         Standard orientation:
 ---------------------------------------------------------------------
 Center     Atomic      Atomic             Coordinates (Angstroms)
 Number     Number       Type             X           Y           Z
 ---------------------------------------------------------------------
      1          8           0       -2.300686   -0.283032    0.365770
      2          6           0       -1.218353   -0.376666   -0.547839
      3          6           0       -0.695053    1.016477   -0.978202
      4          6           0        0.234173    1.670258    0.075664
      5          6           0        1.155240    0.608894    0.713026
      6          8           0        0.302660   -0.406629    1.270642
      7          6           0       -0.077459   -1.181582    0.120276
      8          6           0        1.195568   -1.208375   -0.705170
      9          6           0        1.930506   -0.159785   -0.347189
     10          1           0       -1.901358   -0.064220    1.217823
     11          1           0       -1.607208   -0.907905   -1.423802
     12          1           0       -0.155390    0.909926   -1.924033
     13          1           0       -1.558768    1.658319   -1.173337
     14          1           0        0.819284    2.476960   -0.380568
     15          1           0       -0.356964    2.120711    0.880527
     16          1           0        1.765884    1.024440    1.519364
     17          1           0       -0.441026   -2.153791    0.463970
     18          1           0        1.402207   -1.931756   -1.482704
     19          1           0        2.869813    0.169288   -0.771935
 ---------------------------------------------------------------------

 SCF Done:  E(RB3LYP) =  -423.198334489     A.U. after    1 cycles

 The electronic state is 1-A.
 Alpha  occ. eigenvalues --  -19.14280 -19.12377 -10.23828 -10.23305 -10.22733
 Alpha  occ. eigenvalues --  -10.19060 -10.18967 -10.18576 -10.17854  -1.04939
 Alpha  occ. eigenvalues --   -1.00390  -0.80550  -0.77061  -0.75371  -0.64033
 Alpha  occ. eigenvalues --   -0.62905  -0.56499  -0.54786  -0.52208  -0.50416
 Alpha  occ. eigenvalues --   -0.45867  -0.44299  -0.42642  -0.41277  -0.40238
 Alpha  occ. eigenvalues --   -0.37920  -0.37502  -0.35702  -0.34386  -0.33145
 Alpha  occ. eigenvalues --   -0.31336  -0.27251  -0.26448  -0.23473
 Alpha virt. eigenvalues --    0.00258   0.08631   0.11805   0.11929   0.12482
 Alpha virt. eigenvalues --    0.14218   0.14582   0.15604   0.15950   0.16277
 Alpha virt. eigenvalues --    0.17881   0.19256   0.20361   0.20939   0.22676

 Mulliken charges:
               1
     1  O   -0.448048
     2  C    0.150923
     3  C   -0.235428
     4  C   -0.217611
     5  C    0.038871
     6  O   -0.274709
     7  C   -0.000608
     8  C   -0.089569
     9  C   -0.080909
    10  H    0.283874
    11  H    0.077694
    12  H    0.100761
    13  H    0.106818
    14  H    0.096995
    15  H    0.107243
    16  H    0.081604
    17  H    0.085951
    18  H    0.108529
    19  H    0.107620
 Sum of Mulliken charges =   0.00000

 Dipole moment (field-independent basis, Debye):
    X=              1.9869    Y=              0.6216    Z=             -1.1418  Tot=              2.3744
 Quadrupole moment (field-independent basis, Debye-Ang):
   XX=            -57.0197   YY=            -50.6039   ZZ=            -52.5670
   XY=              0.5951   XZ=             -1.1402   YZ=              2.6280

  Exact polarizability:  78.296   5.056  76.838  -0.912   5.490  66.134
 Approx polarizability: 114.418  14.058 116.548  -0.994  10.431 103.936

                      1                      2                      3
                      A                      A                      A
 Frequencies --    154.1467               230.2685               305.7595
 Red. masses --      4.1755                 2.8279                 3.1736
 Frc consts  --      0.0585                 0.0883                 0.1748
 IR Inten    --      2.7364                 1.7666                 1.6491

                      4                      5                      6
                      A                      A                      A
 Frequencies --    365.3725               393.8884               462.4743
 Red. masses --      3.2517                 2.2681                 1.6365
 Frc consts  --      0.2558                 0.2073                 0.2062
 IR Inten    --      0.7690                 0.7185                20.0658

                      7                      8                      9
                      A                      A                      A
 Frequencies --    478.7081               496.8535               607.4269
 Red. masses --      2.3741                 2.2972                 3.3738
 Frc consts  --      0.3205                 0.3341                 0.7334
 IR Inten    --      7.2743                64.6516                 2.4939

                     10                     11                     12
                      A                      A                      A
 Frequencies --    700.6884               719.3517               760.7060
 Red. masses --      2.8047                 2.1021                 1.8299
 Frc consts  --      0.8113                 0.6409                 0.6239
 IR Inten    --      0.5729                23.4784                 6.8420

                     13                     14                     15
                      A                      A                      A
 Frequencies --    801.7222               829.6987               863.9995
 Red. masses --      3.8486                 4.3644                 2.9051
 Frc consts  --      1.4575                 1.7702                 1.2777
 IR Inten    --     15.9758                 1.5463                10.6911

                     16                     17                     18
                      A                      A                      A
 Frequencies --    878.1345               912.9310               943.7156
 Red. masses --      2.7804                 2.1279                 1.5671
 Frc consts  --      1.2632                 1.0449                 0.8223
 IR Inten    --     13.7441                 7.1622                 7.8565

                     19                     20                     21
                      A                      A                      A
 Frequencies --    960.7457               989.7572              1006.1548
 Red. masses --      2.0484                 2.4418                 2.0289
 Frc consts  --      1.1140                 1.4094                 1.2102
 IR Inten    --      6.5013                22.6762                16.1940

                     22                     23                     24
                      A                      A                      A
 Frequencies --   1024.4771              1040.0331              1083.4133
 Red. masses --      2.0055                 2.4239                 3.4147
 Frc consts  --      1.2402                 1.5447                 2.3615
 IR Inten    --     26.4518                37.1169                22.7032

                     25                     26                     27
                      A                      A                      A
 Frequencies --   1091.1064              1133.3994              1182.9355
 Red. masses --      2.2489                 1.4208                 1.1400
 Frc consts  --      1.5775                 1.0754                 0.9399
 IR Inten    --     57.3333                 2.3388                24.9889

                     28                     29                     30
                      A                      A                      A
 Frequencies --   1203.6542              1251.9751              1286.0210
 Red. masses --      1.4963                 1.2291                 1.6913
 Frc consts  --      1.2773                 1.1351                 1.6480
 IR Inten    --      5.3263                10.7444                 8.2090

                     31                     32                     33
                      A                      A                      A
 Frequencies --   1299.2909              1316.8566              1326.9023
 Red. masses --      1.2837                 1.3475                 1.3306
 Frc consts  --      1.2768                 1.3768                 1.3803
 IR Inten    --      3.4043                 1.2046                 2.2947

                     34                     35                     36
                      A                      A                      A
 Frequencies --   1344.2572              1362.8534              1373.4075
 Red. masses --      1.7367                 1.4673                 1.4550
 Frc consts  --      1.8490                 1.6058                 1.6170
 IR Inten    --      8.3124                 2.6613                 5.8219

                     37                     38                     39
                      A                      A                      A
 Frequencies --   1386.3397              1431.8483              1474.6605
 Red. masses --      1.3971                 1.2288                 1.0775
 Frc consts  --      1.5821                 1.4843                 1.3805
 IR Inten    --      2.7556                78.9817                 5.4549

                     40                     41                     42
                      A                      A                      A
 Frequencies --   1485.6871              1665.4026              3035.5084
 Red. masses --      1.0974                 6.4445                 1.0602
 Frc consts  --      1.4271                10.5312                 5.7555
 IR Inten    --      5.0308                 0.6812                21.4646

                     43                     44                     45
                      A                      A                      A
 Frequencies --   3045.1266              3059.5478              3073.2887
 Red. masses --      1.0789                 1.0694                 1.0871
 Frc consts  --      5.8945                 5.8980                 6.0494
 IR Inten    --     19.2078                40.2422                65.3613

                     46                     47                     48
                      A                      A                      A
 Frequencies --   3076.0315              3079.9724              3100.0071
 Red. masses --      1.1000                 1.0889                 1.1040
 Frc consts  --      6.1323                 6.0862                 6.2508
 IR Inten    --     25.7648                20.6134                31.6940

                     49                     50                     51
                      A                      A                      A
 Frequencies --   3210.7556              3235.8663              3767.7462
 Red. masses --      1.0857                 1.1075                 1.0649
 Frc consts  --      6.5941                 6.8326                 8.9070
 IR Inten    --      2.6477                 8.1828                25.3887

 - Thermochemistry -
 -------------------
 Temperature   298.150 Kelvin.  Pressure   1.00000 Atm.
 Atom     1 has atomic number  8 and mass  15.99491

 Molecular mass:   126.06808 amu.
 Principal axes and moments of inertia in atomic units:
                           1         2         3
     Eigenvalues --   667.071101011.028211166.63420
           X            0.99997   0.00722  -0.00239
           Y           -0.00712   0.99927   0.03757
           Z            0.00266  -0.03755   0.99929
 This molecule is an asymmetric top.
 Rotational symmetry number  1.
 Warning -- assumption of classical behavior for rotation
           may cause significant error
 Rotational temperatures (Kelvin)      0.12984     0.08567     0.07424
 Rotational constants (GHZ):           2.70547     1.78506     1.54696
 Zero-point vibrational energy     426533.8 (Joules/Mol)
                                  101.94401 (Kcal/Mol)
 Warning -- explicit consideration of   9 degrees of freedom as
           vibrations may cause significant error
 Vibrational temperatures:    221.78   331.30   439.92   525.69   566.72
          (Kelvin)            665.40   688.75   714.86   873.95  1008.13
                             1034.99  1094.48  1153.50  1193.75  1243.10
                             1263.44  1313.50  1357.79  1382.30  1424.04
                             1447.63  1473.99  1496.37  1558.79  1569.86
                             1630.71  1701.98  1731.79  1801.31  1850.30
                             1869.39  1894.66  1909.11  1934.08  1960.84
                             1976.02  1994.63  2060.11  2121.70  2137.57
                             2396.14  4367.41  4381.25  4402.00  4421.77
                             4425.72  4431.39  4460.21  4619.56  4655.68
                             5420.94

 Zero-point correction=                           0.162458 (Hartree/Particle)
 Thermal correction to Energy=                    0.169466
 Thermal correction to Enthalpy=                  0.170411
 Thermal correction to Gibbs Free Energy=         0.131500
 Sum of electronic and zero-point Energies=           -423.035876
 Sum of electronic and thermal Energies=              -423.028868
 Sum of electronic and thermal Enthalpies=            -423.027924
 Sum of electronic and thermal Free Energies=         -423.066834

                     E (Thermal)             CV                S
                      KCal/Mol        Cal/Mol-Kelvin    Cal/Mol-Kelvin
 Total                  106.342             29.490             81.894
 Electronic               0.000              0.000              0.000
 Translational            0.889              2.981             40.409
 Rotational               0.889              2.981             28.155
 Vibrational            104.564             23.529             13.330
 Vibration     1          0.620              1.898              2.620
 Vibration     2          0.652              1.795              1.877
 Vibration     3          0.696              1.663              1.385
 Vibration     4          0.739              1.544              1.099
 Vibration     5          0.761              1.483              0.985
 Vibration     6          0.820              1.333              0.759
 Vibration     7          0.835              1.297              0.714
 Vibration     8          0.852              1.257              0.666
 Vibration     9          0.966              1.016              0.437

 Optimization completed.
    -- Stationary point found.
 Normal termination of Gaussian 09 at Tue Jan 28 09:07:29 2020.
