 Gaussian 09, Revision D.01,
 Gaussian 09:  ES64L-G09RevD.01 24-Apr-2013

 -----------------------------
 # b3lyp 6-31G(2df,p) opt Freq
 -----------------------------

 -----
 titel
 -----
 Symbolic Z-matrix:
 Charge =  0 Multiplicity = 1

 SCF Done:  E(RB3LYP) =  -423.143554672     A.U. after   15 cycles
 Optimization completed.
    -- Stationary point found.
 Normal termination of Gaussian 09 at Tue Jan 28 12:07:32 2020.

 ----------------------------------------------------------------------
 #N Geom=AllCheck Guess=TCheck SCRF=Check GenChk RB3LYP/6-31G(2df,p) Fr
 eq
 ----------------------------------------------------------------------

 Structure from the checkpoint file:  "/scratch/puck/g09_a9c93fb5-bf3e-4984-bd29-acf1df65c7d2/Gau-22506.chk"
 -----
 titel
 -----
 Charge =  0 Multiplicity = 1

                         Standard orientation:
 ---------------------------------------------------------------------
 Center     Atomic      Atomic             Coordinates (Angstroms)
 Number     Number       Type             X           Y           Z
 ---------------------------------------------------------------------
      1          6           0        3.265747   -0.890736    0.014255
      2          8           0        1.886812   -0.864441   -0.273404
      3          6           0        1.287686    0.378236    0.024913
      4          6           0       -0.199338    0.277689   -0.297981
      5          6           0       -0.897999   -0.827114    0.542548
      6          6           0       -2.269865   -1.095117    0.131321
      7          6           0       -3.396905   -1.308178   -0.228739
      8          6           0       -0.896420    1.613006   -0.129726
      9          8           0       -0.333634    2.643273    0.147337
     10          1           0        3.462586   -0.705834    1.081821
     11          1           0        3.635201   -1.884972   -0.247562
     12          1           0        3.817674   -0.139169   -0.571036
     13          1           0        1.429920    0.636880    1.087469
     14          1           0        1.742528    1.188786   -0.562863
     15          1           0       -0.312754   -0.005777   -1.354518
     16          1           0       -0.293870   -1.734752    0.448013
     17          1           0       -0.873726   -0.545567    1.603678
     18          1           0       -4.394067   -1.506275   -0.535481
     19          1           0       -1.996360    1.579301   -0.280539
 ---------------------------------------------------------------------

 SCF Done:  E(RB3LYP) =  -423.143554672     A.U. after    1 cycles

 The electronic state is 1-A.
 Alpha  occ. eigenvalues --  -19.14949 -19.14494 -10.27400 -10.23509 -10.23037
 Alpha  occ. eigenvalues --  -10.21926 -10.20950 -10.18869 -10.17780  -1.05162
 Alpha  occ. eigenvalues --   -1.04180  -0.82909  -0.75910  -0.71063  -0.67958
 Alpha  occ. eigenvalues --   -0.63572  -0.56513  -0.53442  -0.51016  -0.49496
 Alpha  occ. eigenvalues --   -0.47222  -0.45922  -0.45398  -0.44069  -0.42536
 Alpha  occ. eigenvalues --   -0.40459  -0.38855  -0.37138  -0.35667  -0.32797
 Alpha  occ. eigenvalues --   -0.27885  -0.27183  -0.26298  -0.24972
 Alpha virt. eigenvalues --   -0.02668   0.04668   0.05102   0.08393   0.11566
 Alpha virt. eigenvalues --    0.12116   0.12887   0.13259   0.13955   0.15484
 Alpha virt. eigenvalues --    0.15812   0.16625   0.18167   0.19290   0.21061

 Mulliken charges:
               1
     1  C   -0.228963
     2  O   -0.242360
     3  C   -0.070030
     4  C   -0.117476
     5  C   -0.369245
     6  C    0.293787
     7  C   -0.437724
     8  C    0.145927
     9  O   -0.249117
    10  H    0.107733
    11  H    0.129512
    12  H    0.109573
    13  H    0.096949
    14  H    0.108992
    15  H    0.122294
    16  H    0.162259
    17  H    0.135251
    18  H    0.199599
    19  H    0.103039
 Sum of Mulliken charges =   0.00000

 Dipole moment (field-independent basis, Debye):
    X=              0.5499    Y=             -1.5004    Z=             -0.0559  Tot=              1.5990
 Quadrupole moment (field-independent basis, Debye-Ang):
   XX=            -44.6591   YY=            -62.5146   ZZ=            -52.4154
   XY=             -0.2058   XZ=              2.2075   YZ=             -1.5386

  Exact polarizability: 105.306   5.725  74.282   6.458   1.639  58.084
 Approx polarizability: 140.831  13.439 108.770  14.427   6.272  91.023

                      1                      2                      3
                      A                      A                      A
 Frequencies --     61.0433                77.7364                91.5513
 Red. masses --      3.6928                 3.5309                 2.2959
 Frc consts  --      0.0081                 0.0126                 0.0113
 IR Inten    --      0.7327                 0.2007                 9.6182

                      4                      5                      6
                      A                      A                      A
 Frequencies --    114.8972               142.1190               155.8621
 Red. masses --      2.1450                 4.5810                 3.3970
 Frc consts  --      0.0167                 0.0545                 0.0486
 IR Inten    --      0.4073                 1.9572                 5.3729

                      7                      8                      9
                      A                      A                      A
 Frequencies --    229.2112               258.6370               330.0262
 Red. masses --      1.3415                 3.8569                 3.3443
 Frc consts  --      0.0415                 0.1520                 0.2146
 IR Inten    --      3.6708                 2.0977                 1.1570

                     10                     11                     12
                      A                      A                      A
 Frequencies --    345.8942               365.1133               430.7258
 Red. masses --      2.9532                 2.8785                 3.5431
 Frc consts  --      0.2082                 0.2261                 0.3873
 IR Inten    --      3.8528                 0.7050                 3.2625

                     13                     14                     15
                      A                      A                      A
 Frequencies --    550.0908               621.4914               646.8008
 Red. masses --      4.3131                 1.2142                 1.2883
 Frc consts  --      0.7690                 0.2763                 0.3175
 IR Inten    --      8.2885                41.4716                34.6779

                     16                     17                     18
                      A                      A                      A
 Frequencies --    668.2731               815.0688               876.9623
 Red. masses --      3.9165                 2.8885                 1.4984
 Frc consts  --      1.0305                 1.1306                 0.6789
 IR Inten    --     24.1990                11.4542                 7.1544

                     19                     20                     21
                      A                      A                      A
 Frequencies --    908.1919               978.8685               996.3863
 Red. masses --      1.4661                 3.2956                 4.0749
 Frc consts  --      0.7125                 1.8605                 2.3836
 IR Inten    --      1.7664                 9.1893                 9.8941

                     22                     23                     24
                      A                      A                      A
 Frequencies --   1072.7584              1110.3528              1127.6227
 Red. masses --      2.4314                 1.9719                 2.3538
 Frc consts  --      1.6486                 1.4324                 1.7634
 IR Inten    --      6.6071                 0.5714                 6.3047

                     25                     26                     27
                      A                      A                      A
 Frequencies --   1164.7735              1184.5252              1202.2679
 Red. masses --      4.7525                 1.2845                 1.2650
 Frc consts  --      3.7988                 1.0619                 1.0773
 IR Inten    --    171.5282                 3.1227                 1.3989

                     28                     29                     30
                      A                      A                      A
 Frequencies --   1228.7417              1246.6388              1303.6122
 Red. masses --      1.6933                 1.2610                 1.2148
 Frc consts  --      1.5062                 1.1547                 1.2164
 IR Inten    --     26.7193                14.4172                 6.0923

                     31                     32                     33
                      A                      A                      A
 Frequencies --   1323.6672              1350.3342              1414.2602
 Red. masses --      1.3339                 1.5333                 1.3119
 Frc consts  --      1.3770                 1.6472                 1.5460
 IR Inten    --      9.2004                 1.7772                40.2873

                     34                     35                     36
                      A                      A                      A
 Frequencies --   1431.5040              1480.0956              1480.8012
 Red. masses --      1.3240                 1.0895                 1.1519
 Frc consts  --      1.5986                 1.4063                 1.4882
 IR Inten    --      5.0494                 3.2264                 1.2378

                     37                     38                     39
                      A                      A                      A
 Frequencies --   1485.0589              1502.9926              1522.1976
 Red. masses --      1.0521                 1.0655                 1.0857
 Frc consts  --      1.3671                 1.4181                 1.4822
 IR Inten    --      5.0393                 7.8329                 2.1825

                     40                     41                     42
                      A                      A                      A
 Frequencies --   1820.1380              2237.5992              2914.4946
 Red. masses --     10.3324                 5.9310                 1.0841
 Frc consts  --     20.1680                17.4961                 5.4258
 IR Inten    --    155.3534                 2.1315                82.8047

                     43                     44                     45
                      A                      A                      A
 Frequencies --   2967.0286              2978.3485              3010.7207
 Red. masses --      1.0541                 1.0458                 1.0829
 Frc consts  --      5.4672                 5.4656                 5.7836
 IR Inten    --     29.7629                66.1268                13.6617

                     46                     47                     48
                      A                      A                      A
 Frequencies --   3019.2979              3022.3421              3029.5855
 Red. masses --      1.0892                 1.0987                 1.0750
 Frc consts  --      5.8504                 5.9133                 5.8133
 IR Inten    --     47.9425                23.1125                30.7444

                     49                     50                     51
                      A                      A                      A
 Frequencies --   3083.9812              3117.6749              3505.3187
 Red. masses --      1.0941                 1.0965                 1.1622
 Frc consts  --      6.1312                 6.2796                 8.4134
 IR Inten    --      2.2911                26.8275                72.1650

 - Thermochemistry -
 -------------------
 Temperature   298.150 Kelvin.  Pressure   1.00000 Atm.
 Atom     1 has atomic number  6 and mass  12.00000

 Molecular mass:   126.06808 amu.
 Principal axes and moments of inertia in atomic units:
                           1         2         3
     Eigenvalues --   855.110331825.963342572.18191
           X            0.99994  -0.00925   0.00638
           Y            0.00930   0.99993  -0.00714
           Z           -0.00631   0.00720   0.99995
 This molecule is an asymmetric top.
 Rotational symmetry number  1.
 Warning -- assumption of classical behavior for rotation
           may cause significant error
 Rotational temperatures (Kelvin)      0.10129     0.04743     0.03367
 Rotational constants (GHZ):           2.11054     0.98838     0.70164
 Zero-point vibrational energy     406752.4 (Joules/Mol)
                                   97.21615 (Kcal/Mol)
 Warning -- explicit consideration of  13 degrees of freedom as
           vibrations may cause significant error
 Vibrational temperatures:     87.83   111.85   131.72   165.31   204.48
          (Kelvin)            224.25   329.78   372.12   474.83   497.66
                              525.32   619.72   791.46   894.19   930.60
                              961.49  1172.70  1261.75  1306.68  1408.37
                             1433.58  1543.46  1597.55  1622.40  1675.85
                             1704.27  1729.79  1767.88  1793.63  1875.60
                             1904.46  1942.83  2034.80  2059.61  2129.52
                             2130.54  2136.67  2162.47  2190.10  2618.77
                             3219.40  4193.30  4268.89  4285.17  4331.75
                             4344.09  4348.47  4358.89  4437.16  4485.63
                             5043.37

 Zero-point correction=                           0.154924 (Hartree/Particle)
 Thermal correction to Energy=                    0.165550
 Thermal correction to Enthalpy=                  0.166495
 Thermal correction to Gibbs Free Energy=         0.118213
 Sum of electronic and zero-point Energies=           -422.988631
 Sum of electronic and thermal Energies=              -422.978004
 Sum of electronic and thermal Enthalpies=            -422.977060
 Sum of electronic and thermal Free Energies=         -423.025341

                     E (Thermal)             CV                S
                      KCal/Mol        Cal/Mol-Kelvin    Cal/Mol-Kelvin
 Total                  103.884             36.531            101.617
 Electronic               0.000              0.000              0.000
 Translational            0.889              2.981             40.409
 Rotational               0.889              2.981             29.775
 Vibrational            102.107             30.569             31.433
 Vibration     1          0.597              1.973              4.423
 Vibration     2          0.599              1.964              3.947
 Vibration     3          0.602              1.955              3.627
 Vibration     4          0.608              1.937              3.184
 Vibration     5          0.616              1.911              2.775
 Vibration     6          0.620              1.896              2.599
 Vibration     7          0.652              1.796              1.885
 Vibration     8          0.667              1.748              1.671
 Vibration     9          0.713              1.616              1.260
 Vibration    10          0.724              1.584              1.185
 Vibration    11          0.738              1.544              1.100
 Vibration    12          0.792              1.403              0.856
 Vibration    13          0.905              1.139              0.544

 Optimization completed.
    -- Stationary point found.
 Normal termination of Gaussian 09 at Tue Jan 28 12:45:35 2020.
