 Gaussian 09, Revision D.01,
 Gaussian 09:  ES64L-G09RevD.01 24-Apr-2013

 -----------------------------
 # b3lyp 6-31G(2df,p) opt Freq
 -----------------------------

 -----
 titel
 -----
 Symbolic Z-matrix:
 Charge =  0 Multiplicity = 1

 SCF Done:  E(RB3LYP) =  -423.129294176     A.U. after   12 cycles
 Optimization completed.
    -- Stationary point found.
 Normal termination of Gaussian 09 at Mon Jan 27 17:16:53 2020.

 ----------------------------------------------------------------------
 #N Geom=AllCheck Guess=TCheck SCRF=Check GenChk RB3LYP/6-31G(2df,p) Fr
 eq
 ----------------------------------------------------------------------

 Structure from the checkpoint file:  "/scratch/puck/g09_80d7571b-dfb1-44d4-8dae-26a2ab219535/Gau-43490.chk"
 -----
 titel
 -----
 Charge =  0 Multiplicity = 1

                         Standard orientation:
 ---------------------------------------------------------------------
 Center     Atomic      Atomic             Coordinates (Angstroms)
 Number     Number       Type             X           Y           Z
 ---------------------------------------------------------------------
      1          8           0       -2.395927   -0.503369   -0.708072
      2          6           0       -1.222824   -0.448523    0.020008
      3          6           0       -1.084080    0.354255    1.297415
      4          6           0       -0.208811    0.698123    0.124039
      5          8           0       -0.195008    1.987876   -0.363379
      6          6           0        0.926272   -0.299677    0.008284
      7          6           0        2.265925   -0.255894    0.678968
      8          6           0        2.155651   -0.100461   -0.825192
      9          6           0       -0.080710   -1.469389   -0.104802
     10          1           0       -3.077545   -0.912417   -0.163783
     11          1           0       -1.889857    1.069120    1.437405
     12          1           0       -0.675906   -0.073664    2.211372
     13          1           0       -0.069442    1.942767   -1.318386
     14          1           0        2.518419    0.623836    1.262372
     15          1           0        2.678762   -1.183232    1.062907
     16          1           0        2.333016    0.887987   -1.238917
     17          1           0        2.492805   -0.917552   -1.455053
     18          1           0       -0.065642   -1.942832   -1.090492
     19          1           0       -0.025674   -2.240680    0.671854
 ---------------------------------------------------------------------

 SCF Done:  E(RB3LYP) =  -423.129294176     A.U. after    1 cycles

 The electronic state is 1-A.
 Alpha  occ. eigenvalues --  -19.14960 -19.14783 -10.23449 -10.23426 -10.19466
 Alpha  occ. eigenvalues --  -10.18406 -10.18223 -10.18061 -10.18033  -1.04080
 Alpha  occ. eigenvalues --   -1.02697  -0.88825  -0.83105  -0.71029  -0.61532
 Alpha  occ. eigenvalues --   -0.60079  -0.58690  -0.55576  -0.52114  -0.49066
 Alpha  occ. eigenvalues --   -0.46566  -0.44910  -0.42536  -0.41389  -0.40357
 Alpha  occ. eigenvalues --   -0.37958  -0.36195  -0.35656  -0.33615  -0.30323
 Alpha  occ. eigenvalues --   -0.29497  -0.28247  -0.24862  -0.22555
 Alpha virt. eigenvalues --    0.06672   0.08875   0.10418   0.11106   0.12060
 Alpha virt. eigenvalues --    0.12839   0.13716   0.14945   0.15740   0.17717
 Alpha virt. eigenvalues --    0.19054   0.20255   0.21811   0.22730   0.24081

 Mulliken charges:
               1
     1  O   -0.462684
     2  C    0.308453
     3  C   -0.386978
     4  C    0.278884
     5  O   -0.448685
     6  C    0.326828
     7  C   -0.328642
     8  C   -0.346411
     9  C   -0.387579
    10  H    0.286577
    11  H    0.117891
    12  H    0.103287
    13  H    0.289201
    14  H    0.117671
    15  H    0.111042
    16  H    0.110195
    17  H    0.112110
    18  H    0.107381
    19  H    0.091459
 Sum of Mulliken charges =   0.00000

 Dipole moment (field-independent basis, Debye):
    X=             -0.1054    Y=             -1.3038    Z=              0.0879  Tot=              1.3110
 Quadrupole moment (field-independent basis, Debye-Ang):
   XX=            -50.7282   YY=            -54.0476   ZZ=            -51.3508
   XY=              1.9083   XZ=             -3.5153   YZ=             -2.6852

  Exact polarizability:  86.339   0.852  71.669  -3.000  -0.215  71.284
 Approx polarizability: 114.460   3.265 106.685  -2.179  -0.994 109.340

                      1                      2                      3
                      A                      A                      A
 Frequencies --    111.5223               172.6273               212.8712
 Red. masses --      3.5193                 3.9995                 3.5517
 Frc consts  --      0.0258                 0.0702                 0.0948
 IR Inten    --      0.5926                15.4485                 1.9121

                      4                      5                      6
                      A                      A                      A
 Frequencies --    219.4746               249.1168               334.1135
 Red. masses --      2.2476                 1.0666                 1.3375
 Frc consts  --      0.0638                 0.0390                 0.0880
 IR Inten    --      3.1156                88.9570                83.5756

                      7                      8                      9
                      A                      A                      A
 Frequencies --    356.4790               389.5127               420.6330
 Red. masses --      1.9316                 3.4748                 2.4711
 Frc consts  --      0.1446                 0.3106                 0.2576
 IR Inten    --     16.8691                 4.9849                 2.4172

                     10                     11                     12
                      A                      A                      A
 Frequencies --    486.7933               488.5186               598.5988
 Red. masses --      3.6599                 3.1071                 2.9855
 Frc consts  --      0.5110                 0.4369                 0.6303
 IR Inten    --      1.8673                 7.8924                 7.8014

                     13                     14                     15
                      A                      A                      A
 Frequencies --    653.4653               739.8912               774.4230
 Red. masses --      3.7522                 3.6276                 1.4728
 Frc consts  --      0.9440                 1.1701                 0.5204
 IR Inten    --     10.6671                12.5895                 0.6980

                     16                     17                     18
                      A                      A                      A
 Frequencies --    799.9012               839.0407               868.0811
 Red. masses --      1.6079                 3.1097                 2.0786
 Frc consts  --      0.6061                 1.2899                 0.9229
 IR Inten    --      1.7888                 1.1453                11.4910

                     19                     20                     21
                      A                      A                      A
 Frequencies --    919.4513               935.2361               971.7768
 Red. masses --      1.8097                 1.3603                 2.5049
 Frc consts  --      0.9014                 0.7010                 1.3937
 IR Inten    --      4.0193                 0.6011                 1.7827

                     22                     23                     24
                      A                      A                      A
 Frequencies --    999.4429              1034.9534              1051.3761
 Red. masses --      1.6727                 1.8306                 1.4339
 Frc consts  --      0.9844                 1.1553                 0.9339
 IR Inten    --      2.8464                12.8199                 6.9621

                     25                     26                     27
                      A                      A                      A
 Frequencies --   1065.8276              1079.0928              1112.0828
 Red. masses --      1.5284                 1.4172                 1.9260
 Frc consts  --      1.0229                 0.9723                 1.4034
 IR Inten    --      4.4647                 0.4038                30.3404

                     28                     29                     30
                      A                      A                      A
 Frequencies --   1142.5057              1190.2144              1194.2483
 Red. masses --      1.3954                 1.2878                 3.0759
 Frc consts  --      1.0732                 1.0748                 2.5847
 IR Inten    --     13.4973                 0.3544                42.6510

                     31                     32                     33
                      A                      A                      A
 Frequencies --   1212.0153              1219.3187              1287.8008
 Red. masses --      2.4124                 1.5833                 1.5037
 Frc consts  --      2.0880                 1.3869                 1.4693
 IR Inten    --     50.7236                 3.7778               116.2778

                     34                     35                     36
                      A                      A                      A
 Frequencies --   1310.1297              1369.0321              1396.0851
 Red. masses --      2.1201                 2.5522                 2.4188
 Frc consts  --      2.1440                 2.8184                 2.7776
 IR Inten    --     96.4559                30.5999                20.5807

                     37                     38                     39
                      A                      A                      A
 Frequencies --   1419.1943              1459.1218              1479.1425
 Red. masses --      1.5632                 1.0887                 1.1917
 Frc consts  --      1.8550                 1.3657                 1.5362
 IR Inten    --      8.2028                 1.3897                 2.9069

                     40                     41                     42
                      A                      A                      A
 Frequencies --   1501.4810              1522.9342              3033.4974
 Red. masses --      1.5135                 1.9793                 1.0603
 Frc consts  --      2.0103                 2.7047                 5.7487
 IR Inten    --      2.0307                23.8482                45.3518

                     43                     44                     45
                      A                      A                      A
 Frequencies --   3094.6170              3095.5939              3118.7941
 Red. masses --      1.0578                 1.1036                 1.0518
 Frc consts  --      5.9685                 6.2308                 6.0275
 IR Inten    --     14.0346                23.4193                19.3411

                     46                     47                     48
                      A                      A                      A
 Frequencies --   3124.9920              3197.8367              3198.6798
 Red. masses --      1.0558                 1.1131                 1.1171
 Frc consts  --      6.0748                 6.7063                 6.7341
 IR Inten    --     13.0447                 6.8190                 1.9552

                     49                     50                     51
                      A                      A                      A
 Frequencies --   3214.1147              3788.7985              3791.8328
 Red. masses --      1.1157                 1.0657                 1.0664
 Frc consts  --      6.7907                 9.0136                 9.0335
 IR Inten    --     15.2277                21.6778                20.0026

 - Thermochemistry -
 -------------------
 Temperature   298.150 Kelvin.  Pressure   1.00000 Atm.
 Atom     1 has atomic number  8 and mass  15.99491

 Molecular mass:   126.06808 amu.
 Principal axes and moments of inertia in atomic units:
                           1         2         3
     Eigenvalues --   657.464691259.881611480.71868
           X            0.99983  -0.00621  -0.01716
           Y            0.00603   0.99992  -0.01081
           Z            0.01723   0.01071   0.99979
 This molecule is an asymmetric top.
 Rotational symmetry number  1.
 Warning -- assumption of classical behavior for rotation
           may cause significant error
 Rotational temperatures (Kelvin)      0.13174     0.06875     0.05849
 Rotational constants (GHZ):           2.74500     1.43247     1.21883
 Zero-point vibrational energy     414184.8 (Joules/Mol)
                                   98.99253 (Kcal/Mol)
 Warning -- explicit consideration of  12 degrees of freedom as
           vibrations may cause significant error
 Vibrational temperatures:    160.46   248.37   306.27   315.77   358.42
          (Kelvin)            480.71   512.89   560.42   605.20   700.39
                              702.87   861.25   940.19  1064.54  1114.22
                             1150.88  1207.19  1248.97  1322.88  1345.59
                             1398.17  1437.97  1489.07  1512.69  1533.49
                             1552.57  1600.04  1643.81  1712.45  1718.25
                             1743.82  1754.33  1852.86  1884.98  1969.73
                             2008.65  2041.90  2099.35  2128.15  2160.29
                             2191.16  4364.52  4452.46  4453.86  4487.24
                             4496.16  4600.97  4602.18  4624.39  5451.23
                             5455.59

 Zero-point correction=                           0.157755 (Hartree/Particle)
 Thermal correction to Energy=                    0.166429
 Thermal correction to Enthalpy=                  0.167373
 Thermal correction to Gibbs Free Energy=         0.125060
 Sum of electronic and zero-point Energies=           -422.971540
 Sum of electronic and thermal Energies=              -422.962866
 Sum of electronic and thermal Enthalpies=            -422.961921
 Sum of electronic and thermal Free Energies=         -423.004234

                     E (Thermal)             CV                S
                      KCal/Mol        Cal/Mol-Kelvin    Cal/Mol-Kelvin
 Total                  104.436             34.252             89.055
 Electronic               0.000              0.000              0.000
 Translational            0.889              2.981             40.409
 Rotational               0.889              2.981             28.596
 Vibrational            102.658             28.290             20.050
 Vibration     1          0.607              1.940              3.242
 Vibration     2          0.626              1.876              2.407
 Vibration     3          0.644              1.821              2.019
 Vibration     4          0.647              1.811              1.963
 Vibration     5          0.662              1.764              1.737
 Vibration     6          0.716              1.607              1.240
 Vibration     7          0.732              1.562              1.137
 Vibration     8          0.757              1.493              1.002
 Vibration     9          0.783              1.425              0.890
 Vibration    10          0.843              1.279              0.692
 Vibration    11          0.844              1.276              0.687
 Vibration    12          0.957              1.035              0.452

 Normal termination of Gaussian 09 at Mon Jan 27 17:59:36 2020.
