 Gaussian 09, Revision D.01,
 Gaussian 09:  ES64L-G09RevD.01 24-Apr-2013

 -----------------------------
 # b3lyp 6-31G(2df,p) opt Freq
 -----------------------------

 -----
 titel
 -----
 Symbolic Z-matrix:
 Charge =  0 Multiplicity = 1

 SCF Done:  E(RB3LYP) =  -423.185713037     A.U. after   14 cycles
 Optimization completed.
    -- Stationary point found.
 Normal termination of Gaussian 09 at Tue Jan 28 12:09:27 2020.

 ----------------------------------------------------------------------
 #N Geom=AllCheck Guess=TCheck SCRF=Check GenChk RB3LYP/6-31G(2df,p) Fr
 eq
 ----------------------------------------------------------------------

 Structure from the checkpoint file:  "/scratch/puck/g09_64c06495-dbbb-4353-bb67-aa8714220b23/Gau-19192.chk"
 -----
 titel
 -----
 Charge =  0 Multiplicity = 1

                         Standard orientation:
 ---------------------------------------------------------------------
 Center     Atomic      Atomic             Coordinates (Angstroms)
 Number     Number       Type             X           Y           Z
 ---------------------------------------------------------------------
      1          6           0        2.695293   -0.385708    0.253687
      2          6           0        1.755191    0.750841   -0.155955
      3          6           0        0.297284    0.367978   -0.110521
      4          8           0        0.024640   -0.742319   -1.022243
      5          6           0       -1.145065   -1.360502   -0.487437
      6          6           0       -1.472377   -0.425633    0.723268
      7          8           0       -0.125963   -0.147636    1.138656
      8          6           0       -1.902299    0.901840    0.114884
      9          6           0       -0.786901    1.406326   -0.413132
     10          1           0        3.738587   -0.064669    0.186566
     11          1           0        2.497281   -0.700455    1.281417
     12          1           0        2.555437   -1.251266   -0.397902
     13          1           0        1.890188    1.621413    0.495570
     14          1           0        1.974399    1.081547   -1.177525
     15          1           0       -1.944083   -1.396314   -1.235258
     16          1           0       -0.907782   -2.373880   -0.145902
     17          1           0       -2.062353   -0.856631    1.529328
     18          1           0       -2.921405    1.251122    0.023128
     19          1           0       -0.656443    2.277912   -1.039493
 ---------------------------------------------------------------------

 SCF Done:  E(RB3LYP) =  -423.185713037     A.U. after    1 cycles

 The electronic state is 1-A.
 Alpha  occ. eigenvalues --  -19.14416 -19.13606 -10.27873 -10.24291 -10.22867
 Alpha  occ. eigenvalues --  -10.18831 -10.18512 -10.18430 -10.16717  -1.09208
 Alpha  occ. eigenvalues --   -0.98356  -0.79666  -0.79058  -0.72715  -0.64141
 Alpha  occ. eigenvalues --   -0.61896  -0.57427  -0.55719  -0.52222  -0.48870
 Alpha  occ. eigenvalues --   -0.45816  -0.44886  -0.42348  -0.41657  -0.40453
 Alpha  occ. eigenvalues --   -0.37961  -0.36224  -0.34905  -0.34416  -0.33908
 Alpha  occ. eigenvalues --   -0.32214  -0.28202  -0.26229  -0.24256
 Alpha virt. eigenvalues --    0.00296   0.09582   0.11833   0.12422   0.13566
 Alpha virt. eigenvalues --    0.14599   0.14964   0.15618   0.15825   0.16755
 Alpha virt. eigenvalues --    0.17808   0.18261   0.19845   0.20463   0.22741

 Mulliken charges:
               1
     1  C   -0.383352
     2  C   -0.292156
     3  C    0.475467
     4  O   -0.313511
     5  C   -0.086500
     6  C   -0.036857
     7  O   -0.269510
     8  C   -0.102508
     9  C   -0.109947
    10  H    0.106496
    11  H    0.131815
    12  H    0.133413
    13  H    0.112734
    14  H    0.112740
    15  H    0.101908
    16  H    0.108375
    17  H    0.090489
    18  H    0.109814
    19  H    0.111090
 Sum of Mulliken charges =   0.00000

 Dipole moment (field-independent basis, Debye):
    X=             -1.2840    Y=              0.4944    Z=             -0.1598  Tot=              1.3851
 Quadrupole moment (field-independent basis, Debye-Ang):
   XX=            -47.5692   YY=            -50.9701   ZZ=            -56.2970
   XY=              2.3445   XZ=             -0.6739   YZ=             -2.2680

  Exact polarizability:  88.364   2.860  74.765  -2.929  -3.885  60.644
 Approx polarizability: 122.640   8.153 109.507  -9.499  -5.697  99.112

                      1                      2                      3
                      A                      A                      A
 Frequencies --     89.2762               168.7236               195.7204
 Red. masses --      2.1954                 3.0730                 1.1736
 Frc consts  --      0.0103                 0.0515                 0.0265
 IR Inten    --      0.3237                 1.3804                 0.4809

                      4                      5                      6
                      A                      A                      A
 Frequencies --    300.6660               311.9793               369.5062
 Red. masses --      2.3714                 2.3258                 2.9745
 Frc consts  --      0.1263                 0.1334                 0.2393
 IR Inten    --      3.0564                 4.6124                 6.2316

                      7                      8                      9
                      A                      A                      A
 Frequencies --    442.9587               513.2501               620.4650
 Red. masses --      3.2087                 2.9803                 3.7731
 Frc consts  --      0.3709                 0.4626                 0.8558
 IR Inten    --      0.9863                 4.2986                 2.8372

                     10                     11                     12
                      A                      A                      A
 Frequencies --    655.1008               719.7276               728.2945
 Red. masses --      4.5343                 2.0093                 3.2764
 Frc consts  --      1.1465                 0.6133                 1.0239
 IR Inten    --      5.7132                 1.7682                 3.7024

                     13                     14                     15
                      A                      A                      A
 Frequencies --    756.0485               818.4731               852.7954
 Red. masses --      1.9901                 2.9364                 3.6675
 Frc consts  --      0.6702                 1.1590                 1.5715
 IR Inten    --     34.4635                19.0174                 3.6928

                     16                     17                     18
                      A                      A                      A
 Frequencies --    859.3617               887.7502               909.8076
 Red. masses --      2.9840                 2.8456                 1.8933
 Frc consts  --      1.2984                 1.3213                 0.9234
 IR Inten    --      7.4243                66.0806                13.2099

                     19                     20                     21
                      A                      A                      A
 Frequencies --    931.3838               969.5272               996.4515
 Red. masses --      1.5376                 1.7604                 3.7289
 Frc consts  --      0.7859                 0.9749                 2.1815
 IR Inten    --      6.9884                11.6020                18.7290

                     22                     23                     24
                      A                      A                      A
 Frequencies --   1009.3114              1025.3700              1052.6343
 Red. masses --      3.8379                 2.7820                 1.5023
 Frc consts  --      2.3035                 1.7233                 0.9808
 IR Inten    --     75.3926                 5.9413                 2.7620

                     25                     26                     27
                      A                      A                      A
 Frequencies --   1097.0864              1133.6906              1150.3145
 Red. masses --      1.5263                 2.1722                 1.9343
 Frc consts  --      1.0824                 1.6449                 1.5080
 IR Inten    --     20.7223                16.0805                12.7042

                     28                     29                     30
                      A                      A                      A
 Frequencies --   1191.5476              1247.3405              1280.9767
 Red. masses --      1.1331                 1.4447                 1.9786
 Frc consts  --      0.9478                 1.3243                 1.9129
 IR Inten    --      1.1565                 2.4282                19.0712

                     31                     32                     33
                      A                      A                      A
 Frequencies --   1295.9631              1307.8146              1337.1270
 Red. masses --      1.2926                 1.4378                 1.6779
 Frc consts  --      1.2791                 1.4489                 1.7675
 IR Inten    --      4.2370                21.2000                17.2091

                     34                     35                     36
                      A                      A                      A
 Frequencies --   1349.7733              1406.6851              1411.9557
 Red. masses --      1.4041                 1.2578                 2.3857
 Frc consts  --      1.5072                 1.4664                 2.8023
 IR Inten    --      1.5936                 1.8241                20.1217

                     37                     38                     39
                      A                      A                      A
 Frequencies --   1473.1328              1492.8265              1510.2977
 Red. masses --      1.0798                 1.0393                 1.0886
 Frc consts  --      1.3806                 1.3646                 1.4630
 IR Inten    --      2.1202                 4.5452                 0.8194

                     40                     41                     42
                      A                      A                      A
 Frequencies --   1512.8081              1638.4429              3033.9860
 Red. masses --      1.0747                 6.3764                 1.0551
 Frc consts  --      1.4492                10.0853                 5.7225
 IR Inten    --      7.8611                 4.6708                53.9046

                     43                     44                     45
                      A                      A                      A
 Frequencies --   3043.2939              3051.3790              3080.4313
 Red. masses --      1.0600                 1.0352                 1.1020
 Frc consts  --      5.7844                 5.6789                 6.1610
 IR Inten    --     16.5543                23.9373                 9.4466

                     46                     47                     48
                      A                      A                      A
 Frequencies --   3083.3701              3121.2448              3134.4431
 Red. masses --      1.1111                 1.1013                 1.1022
 Frc consts  --      6.2237                 6.3213                 6.3804
 IR Inten    --     31.3231                26.0366                19.3957

                     49                     50                     51
                      A                      A                      A
 Frequencies --   3148.9246              3219.0204              3244.5098
 Red. masses --      1.0910                 1.0864                 1.1092
 Frc consts  --      6.3738                 6.6325                 6.8792
 IR Inten    --     27.5937                 3.2812                 6.5632

 - Thermochemistry -
 -------------------
 Temperature   298.150 Kelvin.  Pressure   1.00000 Atm.
 Atom     1 has atomic number  6 and mass  12.00000

 Molecular mass:   126.06808 amu.
 Principal axes and moments of inertia in atomic units:
                           1         2         3
     Eigenvalues --   559.887841173.963541317.18329
           X            0.99994   0.00906   0.00645
           Y           -0.00865   0.99813  -0.06059
           Z           -0.00698   0.06053   0.99814
 This molecule is an asymmetric top.
 Rotational symmetry number  1.
 Warning -- assumption of classical behavior for rotation
           may cause significant error
 Rotational temperatures (Kelvin)      0.15470     0.07378     0.06576
 Rotational constants (GHZ):           3.22340     1.53731     1.37015
 Zero-point vibrational energy     419787.4 (Joules/Mol)
                                  100.33159 (Kcal/Mol)
 Warning -- explicit consideration of   9 degrees of freedom as
           vibrations may cause significant error
 Vibrational temperatures:    128.45   242.76   281.60   432.59   448.87
          (Kelvin)            531.64   637.32   738.45   892.71   942.54
                             1035.53  1047.85  1087.78  1177.60  1226.98
                             1236.43  1277.27  1309.01  1340.05  1394.93
                             1433.67  1452.17  1475.28  1514.50  1578.46
                             1631.13  1655.04  1714.37  1794.64  1843.04
                             1864.60  1881.65  1923.83  1942.02  2023.90
                             2031.49  2119.51  2147.84  2172.98  2176.59
                             2357.35  4365.22  4378.62  4390.25  4432.05
                             4436.28  4490.77  4509.76  4530.59  4631.45
                             4668.12

 Zero-point correction=                           0.159889 (Hartree/Particle)
 Thermal correction to Energy=                    0.167608
 Thermal correction to Enthalpy=                  0.168552
 Thermal correction to Gibbs Free Energy=         0.127846
 Sum of electronic and zero-point Energies=           -423.025824
 Sum of electronic and thermal Energies=              -423.018105
 Sum of electronic and thermal Enthalpies=            -423.017161
 Sum of electronic and thermal Free Energies=         -423.057867

                     E (Thermal)             CV                S
                      KCal/Mol        Cal/Mol-Kelvin    Cal/Mol-Kelvin
 Total                  105.176             30.767             85.675
 Electronic               0.000              0.000              0.000
 Translational            0.889              2.981             40.409
 Rotational               0.889              2.981             28.250
 Vibrational            103.398             24.805             17.016
 Vibration     1          0.602              1.957              3.676
 Vibration     2          0.625              1.881              2.450
 Vibration     3          0.636              1.846              2.173
 Vibration     4          0.693              1.672              1.413
 Vibration     5          0.700              1.651              1.352
 Vibration     6          0.742              1.535              1.082
 Vibration     7          0.803              1.376              0.817
 Vibration     8          0.868              1.221              0.626
 Vibration     9          0.981              0.989              0.416

 Optimization completed.
    -- Stationary point found.
 Normal termination of Gaussian 09 at Tue Jan 28 12:56:47 2020.
