 Gaussian 09, Revision D.01,
 Gaussian 09:  ES64L-G09RevD.01 24-Apr-2013

 -----------------------------
 # b3lyp 6-31G(2df,p) opt Freq
 -----------------------------

 -----
 titel
 -----
 Symbolic Z-matrix:
 Charge =  0 Multiplicity = 1

 SCF Done:  E(RB3LYP) =  -423.181154222     A.U. after   14 cycles
 Optimization completed.
    -- Stationary point found.
 Normal termination of Gaussian 09 at Mon Jan 27 17:58:48 2020.

 ----------------------------------------------------------------------
 #N Geom=AllCheck Guess=TCheck SCRF=Check GenChk RB3LYP/6-31G(2df,p) Fr
 eq
 ----------------------------------------------------------------------

 Structure from the checkpoint file:  "/scratch/puck/g09_fca8773d-9834-49f8-869f-1a81414329d2/Gau-51927.chk"
 -----
 titel
 -----
 Charge =  0 Multiplicity = 1

                         Standard orientation:
 ---------------------------------------------------------------------
 Center     Atomic      Atomic             Coordinates (Angstroms)
 Number     Number       Type             X           Y           Z
 ---------------------------------------------------------------------
      1          6           0       -0.051483    2.132776   -0.244463
      2          6           0       -0.485840    0.736248    0.136807
      3          6           0       -1.871342    0.511306    0.732511
      4          6           0       -1.512769   -0.067582   -0.612489
      5          8           0       -1.140310   -1.419222   -0.679972
      6          6           0       -0.153480   -1.648324    0.319208
      7          6           0        0.570107   -0.294527    0.566907
      8          6           0        1.803449   -0.204295   -0.308692
      9          8           0        2.911351    0.051549    0.087109
     10          1           0        0.371594    2.663681    0.615742
     11          1           0        0.707757    2.127578   -1.034152
     12          1           0       -0.902374    2.717197   -0.607148
     13          1           0       -1.998685   -0.153992    1.579632
     14          1           0       -2.534428    1.370337    0.741900
     15          1           0       -2.001039    0.264989   -1.520986
     16          1           0       -0.612212   -2.002457    1.251375
     17          1           0        0.513066   -2.436931   -0.044672
     18          1           0        0.884821   -0.182400    1.608421
     19          1           0        1.611315   -0.420229   -1.385942
 ---------------------------------------------------------------------

 SCF Done:  E(RB3LYP) =  -423.181154222     A.U. after    1 cycles

 The electronic state is 1-A.
 Alpha  occ. eigenvalues --  -19.15336 -19.14146 -10.27158 -10.24431 -10.24218
 Alpha  occ. eigenvalues --  -10.21198 -10.20551 -10.19296 -10.19053  -1.05666
 Alpha  occ. eigenvalues --   -1.04770  -0.86735  -0.78593  -0.72057  -0.67334
 Alpha  occ. eigenvalues --   -0.59845  -0.58489  -0.56732  -0.51499  -0.47830
 Alpha  occ. eigenvalues --   -0.47479  -0.44811  -0.43405  -0.42787  -0.42005
 Alpha  occ. eigenvalues --   -0.40966  -0.39366  -0.38612  -0.35393  -0.34346
 Alpha  occ. eigenvalues --   -0.33703  -0.28998  -0.25123  -0.23934
 Alpha virt. eigenvalues --   -0.02508   0.08534   0.09171   0.10688   0.11595
 Alpha virt. eigenvalues --    0.11992   0.13706   0.14226   0.14957   0.15512
 Alpha virt. eigenvalues --    0.16753   0.18844   0.19123   0.20727   0.22520

 Mulliken charges:
               1
     1  C   -0.487065
     2  C    0.293119
     3  C   -0.383742
     4  C    0.088509
     5  O   -0.252532
     6  C   -0.131159
     7  C   -0.161829
     8  C    0.156239
     9  O   -0.258137
    10  H    0.130838
    11  H    0.128087
    12  H    0.119265
    13  H    0.119029
    14  H    0.117097
    15  H    0.105865
    16  H    0.111998
    17  H    0.121732
    18  H    0.096729
    19  H    0.085958
 Sum of Mulliken charges =   0.00000

 Dipole moment (field-independent basis, Debye):
    X=             -2.0834    Y=              0.6248    Z=              0.3768  Tot=              2.2074
 Quadrupole moment (field-independent basis, Debye-Ang):
   XX=            -63.4407   YY=            -51.9276   ZZ=            -51.9770
   XY=             -4.1305   XZ=             -1.7668   YZ=             -2.6640

  Exact polarizability:  84.849  -1.198  74.312  -0.783  -0.978  66.530
 Approx polarizability: 124.543   2.178 103.518   3.673   2.324 104.924

                      1                      2                      3
                      A                      A                      A
 Frequencies --     71.4165                97.0830               196.5626
 Red. masses --      5.0132                 3.4629                 1.1029
 Frc consts  --      0.0151                 0.0192                 0.0251
 IR Inten    --      6.1403                 2.6544                 0.5366

                      4                      5                      6
                      A                      A                      A
 Frequencies --    227.7812               252.8353               313.5004
 Red. masses --      2.7841                 2.7853                 2.3974
 Frc consts  --      0.0851                 0.1049                 0.1388
 IR Inten    --      3.9571                 1.5256                 0.8913

                      7                      8                      9
                      A                      A                      A
 Frequencies --    337.5289               394.6304               453.2299
 Red. masses --      2.1144                 3.5683                 4.2796
 Frc consts  --      0.1419                 0.3274                 0.5179
 IR Inten    --      0.3426                 0.3734                17.2075

                     10                     11                     12
                      A                      A                      A
 Frequencies --    469.5915               582.4750               702.2630
 Red. masses --      2.2753                 3.4149                 4.6283
 Frc consts  --      0.2956                 0.6826                 1.3448
 IR Inten    --      1.4320                 0.8650                 4.7414

                     13                     14                     15
                      A                      A                      A
 Frequencies --    778.3018               842.7723               877.2268
 Red. masses --      2.9730                 2.0233                 2.3202
 Frc consts  --      1.0611                 0.8467                 1.0519
 IR Inten    --     12.3196                11.2343                 7.7070

                     16                     17                     18
                      A                      A                      A
 Frequencies --    896.0831               927.3823               952.5657
 Red. masses --      2.3191                 1.8398                 2.1937
 Frc consts  --      1.0972                 0.9323                 1.1728
 IR Inten    --     13.9063                 4.2230                13.7304

                     19                     20                     21
                      A                      A                      A
 Frequencies --    970.1426              1000.1750              1031.3086
 Red. masses --      1.5774                 2.2775                 1.3917
 Frc consts  --      0.8747                 1.3423                 0.8721
 IR Inten    --      7.6221                10.5265                15.0954

                     22                     23                     24
                      A                      A                      A
 Frequencies --   1047.4612              1061.2935              1095.9698
 Red. masses --      1.8579                 1.9332                 1.7375
 Frc consts  --      1.2010                 1.2829                 1.2296
 IR Inten    --      8.3187                 7.2042                 9.9486

                     25                     26                     27
                      A                      A                      A
 Frequencies --   1127.5344              1139.2191              1166.4923
 Red. masses --      1.9881                 2.3096                 3.3471
 Frc consts  --      1.4892                 1.7661                 2.6834
 IR Inten    --      1.2481                43.5617                55.8937

                     28                     29                     30
                      A                      A                      A
 Frequencies --   1231.4437              1245.3191              1272.9742
 Red. masses --      1.2516                 1.3432                 1.7308
 Frc consts  --      1.1182                 1.2273                 1.6525
 IR Inten    --      2.2328                 1.6793                 7.6880

                     31                     32                     33
                      A                      A                      A
 Frequencies --   1283.7242              1307.0727              1364.2523
 Red. masses --      2.3609                 1.4996                 1.5440
 Frc consts  --      2.2923                 1.5095                 1.6931
 IR Inten    --      8.7981                 1.7650                 3.5355

                     34                     35                     36
                      A                      A                      A
 Frequencies --   1407.7566              1424.4498              1426.0231
 Red. masses --      1.5058                 1.2969                 1.2453
 Frc consts  --      1.7583                 1.5505                 1.4921
 IR Inten    --      6.3828                 0.9274                 5.0621

                     37                     38                     39
                      A                      A                      A
 Frequencies --   1487.2869              1491.3011              1497.7084
 Red. masses --      1.2585                 1.0682                 1.0928
 Frc consts  --      1.6402                 1.3997                 1.4443
 IR Inten    --      9.9091                 6.9079                 1.7450

                     40                     41                     42
                      A                      A                      A
 Frequencies --   1525.7206              1831.6537              2859.7914
 Red. masses --      1.0881                10.1281                 1.0819
 Frc consts  --      1.4923                20.0201                 5.2134
 IR Inten    --      2.8414               185.1204                77.3183

                     43                     44                     45
                      A                      A                      A
 Frequencies --   3016.4505              3028.6443              3073.6970
 Red. masses --      1.0663                 1.0358                 1.0933
 Frc consts  --      5.7163                 5.5980                 6.0855
 IR Inten    --     40.0861                25.1363                22.4879

                     46                     47                     48
                      A                      A                      A
 Frequencies --   3078.3084              3089.5828              3103.3727
 Red. masses --      1.0911                 1.1009                 1.1008
 Frc consts  --      6.0915                 6.1915                 6.2463
 IR Inten    --     17.9373                20.7283                18.6833

                     49                     50                     51
                      A                      A                      A
 Frequencies --   3131.7027              3185.1805              3216.7203
 Red. masses --      1.0545                 1.0931                 1.1157
 Frc consts  --      6.0936                 6.5338                 6.8019
 IR Inten    --     10.2948                12.1360                 8.3756

 - Thermochemistry -
 -------------------
 Temperature   298.150 Kelvin.  Pressure   1.00000 Atm.
 Atom     1 has atomic number  6 and mass  12.00000

 Molecular mass:   126.06808 amu.
 Principal axes and moments of inertia in atomic units:
                           1         2         3
     Eigenvalues --   716.692511181.567901621.15559
           X            0.99926  -0.03613  -0.01347
           Y            0.03569   0.99888  -0.03094
           Z            0.01457   0.03044   0.99943
 This molecule is an asymmetric top.
 Rotational symmetry number  1.
 Warning -- assumption of classical behavior for rotation
           may cause significant error
 Rotational temperatures (Kelvin)      0.12085     0.07330     0.05343
 Rotational constants (GHZ):           2.51815     1.52741     1.11324
 Zero-point vibrational energy     416258.4 (Joules/Mol)
                                   99.48813 (Kcal/Mol)
 Warning -- explicit consideration of  11 degrees of freedom as
           vibrations may cause significant error
 Vibrational temperatures:    102.75   139.68   282.81   327.73   363.77
          (Kelvin)            451.06   485.63   567.78   652.10   675.64
                              838.05  1010.40  1119.80  1212.56  1262.13
                             1289.26  1334.29  1370.53  1395.82  1439.03
                             1483.82  1507.06  1526.96  1576.85  1622.27
                             1639.08  1678.32  1771.77  1791.73  1831.52
                             1846.99  1880.58  1962.85  2025.45  2049.46
                             2051.73  2139.87  2145.65  2154.87  2195.17
                             2635.34  4114.60  4339.99  4357.54  4422.36
                             4428.99  4445.21  4465.06  4505.82  4582.76
                             4628.14

 Zero-point correction=                           0.158544 (Hartree/Particle)
 Thermal correction to Energy=                    0.167090
 Thermal correction to Enthalpy=                  0.168034
 Thermal correction to Gibbs Free Energy=         0.125160
 Sum of electronic and zero-point Energies=           -423.022610
 Sum of electronic and thermal Energies=              -423.014064
 Sum of electronic and thermal Enthalpies=            -423.013120
 Sum of electronic and thermal Free Energies=         -423.055994

                     E (Thermal)             CV                S
                      KCal/Mol        Cal/Mol-Kelvin    Cal/Mol-Kelvin
 Total                  104.851             32.137             90.237
 Electronic               0.000              0.000              0.000
 Translational            0.889              2.981             40.409
 Rotational               0.889              2.981             28.708
 Vibrational            103.073             26.176             21.120
 Vibration     1          0.598              1.968              4.114
 Vibration     2          0.603              1.951              3.512
 Vibration     3          0.636              1.845              2.165
 Vibration     4          0.651              1.799              1.896
 Vibration     5          0.664              1.758              1.711
 Vibration     6          0.701              1.648              1.344
 Vibration     7          0.718              1.601              1.224
 Vibration     8          0.762              1.482              0.983
 Vibration     9          0.812              1.354              0.786
 Vibration    10          0.827              1.318              0.739
 Vibration    11          0.939              1.069              0.481

 Normal termination of Gaussian 09 at Mon Jan 27 18:42:26 2020.
