 Gaussian 09, Revision D.01,
 Gaussian 09:  ES64L-G09RevD.01 24-Apr-2013

 -----------------------------
 # b3lyp 6-31G(2df,p) opt Freq
 -----------------------------

 -----
 titel
 -----
 Symbolic Z-matrix:
 Charge =  0 Multiplicity = 1

 SCF Done:  E(RB3LYP) =  -423.128923958     A.U. after   14 cycles
 Optimization completed.
    -- Stationary point found.
 Normal termination of Gaussian 09 at Tue Jan 28 02:47:09 2020.

 ----------------------------------------------------------------------
 #N Geom=AllCheck Guess=TCheck SCRF=Check GenChk RB3LYP/6-31G(2df,p) Fr
 eq
 ----------------------------------------------------------------------

 Structure from the checkpoint file:  "/scratch/puck/g09_375bce14-43a6-4a73-8dc7-dd6cc0442dde/Gau-77665.chk"
 -----
 titel
 -----
 Charge =  0 Multiplicity = 1

                         Standard orientation:
 ---------------------------------------------------------------------
 Center     Atomic      Atomic             Coordinates (Angstroms)
 Number     Number       Type             X           Y           Z
 ---------------------------------------------------------------------
      1          6           0        2.211777   -1.104735    0.417144
      2          6           0        1.136078   -0.661686   -0.552433
      3          8           0       -0.081207   -1.460878   -0.459525
      4          6           0       -0.862908   -0.325177   -0.080282
      5          6           0       -2.285314   -0.136568   -0.491418
      6          6           0       -1.922659   -0.372691    0.968571
      7          6           0        0.329901    0.586450   -0.178450
      8          6           0        0.480953    1.993186   -0.531507
      9          8           0        0.710772    1.521367    0.809731
     10          1           0        2.521135   -2.129363    0.190894
     11          1           0        3.087885   -0.453108    0.335699
     12          1           0        1.847450   -1.065394    1.446789
     13          1           0        1.506664   -0.661988   -1.585536
     14          1           0       -2.614424    0.851016   -0.799016
     15          1           0       -2.749055   -0.957817   -1.027239
     16          1           0       -1.977484    0.458089    1.664235
     17          1           0       -2.154352   -1.345034    1.389224
     18          1           0        1.369011    2.326632   -1.067344
     19          1           0       -0.400320    2.620385   -0.659103
 ---------------------------------------------------------------------

 SCF Done:  E(RB3LYP) =  -423.128923958     A.U. after    1 cycles

 The electronic state is 1-A.
 Alpha  occ. eigenvalues --  -19.15965 -19.13770 -10.24710 -10.24070 -10.24067
 Alpha  occ. eigenvalues --  -10.23813 -10.18826 -10.18568 -10.17764  -1.08300
 Alpha  occ. eigenvalues --   -1.04061  -0.85041  -0.75443  -0.69684  -0.66217
 Alpha  occ. eigenvalues --   -0.60843  -0.60369  -0.52901  -0.52027  -0.50972
 Alpha  occ. eigenvalues --   -0.47320  -0.45802  -0.43039  -0.41344  -0.40745
 Alpha  occ. eigenvalues --   -0.37881  -0.37174  -0.35924  -0.34756  -0.33236
 Alpha  occ. eigenvalues --   -0.30587  -0.30072  -0.26533  -0.23178
 Alpha virt. eigenvalues --    0.07756   0.07957   0.09191   0.10174   0.11928
 Alpha virt. eigenvalues --    0.13020   0.14348   0.14395   0.15753   0.15896
 Alpha virt. eigenvalues --    0.17643   0.18723   0.19594   0.20279   0.22565

 Mulliken charges:
               1
     1  C   -0.396556
     2  C    0.059717
     3  O   -0.342618
     4  C    0.396943
     5  C   -0.344255
     6  C   -0.327138
     7  C    0.276635
     8  C   -0.265726
     9  O   -0.261733
    10  H    0.126549
    11  H    0.122195
    12  H    0.132822
    13  H    0.085931
    14  H    0.114751
    15  H    0.128134
    16  H    0.127700
    17  H    0.127093
    18  H    0.119812
    19  H    0.119744
 Sum of Mulliken charges =   0.00000

 Dipole moment (field-independent basis, Debye):
    X=              0.0470    Y=              0.9637    Z=             -1.1639  Tot=              1.5118
 Quadrupole moment (field-independent basis, Debye-Ang):
   XX=            -49.9495   YY=            -53.8485   ZZ=            -53.6513
   XY=             -1.4504   XZ=             -1.9415   YZ=             -3.9447

  Exact polarizability:  85.687  -0.584  76.300  -1.927  -3.807  65.728
 Approx polarizability: 109.961   0.741 109.303  -1.549  -2.004 102.773

                      1                      2                      3
                      A                      A                      A
 Frequencies --     64.3358               175.3633               191.8086
 Red. masses --      3.5484                 3.0570                 2.4086
 Frc consts  --      0.0087                 0.0554                 0.0522
 IR Inten    --      1.6647                 2.1088                 1.4133

                      4                      5                      6
                      A                      A                      A
 Frequencies --    196.8693               214.6006               249.6347
 Red. masses --      1.3129                 2.4029                 2.3143
 Frc consts  --      0.0300                 0.0652                 0.0850
 IR Inten    --      0.2827                 1.7000                 1.3643

                      7                      8                      9
                      A                      A                      A
 Frequencies --    370.4627               425.1200               468.2633
 Red. masses --      3.1654                 2.9320                 3.2513
 Frc consts  --      0.2560                 0.3122                 0.4200
 IR Inten    --      2.6067                 1.9053                 6.3487

                     10                     11                     12
                      A                      A                      A
 Frequencies --    549.9685               571.9224               624.3501
 Red. masses --      4.3441                 4.2289                 3.2868
 Frc consts  --      0.7742                 0.8150                 0.7549
 IR Inten    --      2.5469                 1.7867                 4.8142

                     13                     14                     15
                      A                      A                      A
 Frequencies --    759.5834               810.6413               857.8304
 Red. masses --      1.0639                 1.9781                 2.0144
 Frc consts  --      0.3617                 0.7659                 0.8734
 IR Inten    --      1.0436                 2.5356                 5.7272

                     16                     17                     18
                      A                      A                      A
 Frequencies --    873.3586               892.8667               905.3911
 Red. masses --      1.9663                 2.0078                 2.5603
 Frc consts  --      0.8837                 0.9431                 1.2365
 IR Inten    --     12.7888                46.9034                21.1484

                     19                     20                     21
                      A                      A                      A
 Frequencies --    953.5702               969.5077               993.4776
 Red. masses --      3.8942                 2.8575                 3.1791
 Frc consts  --      2.0863                 1.5825                 1.8487
 IR Inten    --     45.5433                14.2565                11.9215

                     22                     23                     24
                      A                      A                      A
 Frequencies --   1046.0775              1052.7945              1064.9359
 Red. masses --      2.0341                 1.5664                 1.4620
 Frc consts  --      1.3114                 1.0229                 0.9769
 IR Inten    --      6.4315                46.8861                 0.4222

                     25                     26                     27
                      A                      A                      A
 Frequencies --   1078.1460              1115.7648              1137.4823
 Red. masses --      2.1756                 1.3405                 1.9314
 Frc consts  --      1.4900                 0.9833                 1.4723
 IR Inten    --     59.5986                 2.5755                 1.5823

                     28                     29                     30
                      A                      A                      A
 Frequencies --   1151.2226              1169.2043              1188.5380
 Red. masses --      2.0403                 1.4953                 1.2706
 Frc consts  --      1.5932                 1.2043                 1.0575
 IR Inten    --      3.3392                 0.7823                 0.0907

                     31                     32                     33
                      A                      A                      A
 Frequencies --   1237.2446              1291.6629              1358.1040
 Red. masses --      2.3892                 1.6664                 2.2676
 Frc consts  --      2.1548                 1.6381                 2.4643
 IR Inten    --     40.5543                18.5030                20.8919

                     34                     35                     36
                      A                      A                      A
 Frequencies --   1376.0804              1406.8039              1448.5610
 Red. masses --      1.5197                 1.2967                 1.0898
 Frc consts  --      1.6955                 1.5120                 1.3473
 IR Inten    --      1.1773                 7.1801                 2.2818

                     37                     38                     39
                      A                      A                      A
 Frequencies --   1463.7463              1483.5604              1489.5313
 Red. masses --      1.4390                 1.1079                 1.0568
 Frc consts  --      1.8165                 1.4367                 1.3815
 IR Inten    --      8.1698                 3.8912                 3.3322

                     40                     41                     42
                      A                      A                      A
 Frequencies --   1501.1198              1553.7004              3022.1029
 Red. masses --      1.6123                 2.4813                 1.0847
 Frc consts  --      2.1405                 3.5292                 5.8367
 IR Inten    --     10.8438                14.8663                41.1066

                     43                     44                     45
                      A                      A                      A
 Frequencies --   3042.4686              3080.9469              3113.4343
 Red. masses --      1.0354                 1.0505                 1.1009
 Frc consts  --      5.6470                 5.8750                 6.2872
 IR Inten    --     14.0525                23.6315                15.9353

                     46                     47                     48
                      A                      A                      A
 Frequencies --   3127.1702              3128.7304              3133.6218
 Red. masses --      1.0534                 1.1023                 1.0548
 Frc consts  --      6.0692                 6.3577                 6.1027
 IR Inten    --      9.9962                18.3875                 5.1285

                     49                     50                     51
                      A                      A                      A
 Frequencies --   3167.2925              3212.7888              3228.9218
 Red. masses --      1.1192                 1.1178                 1.1157
 Frc consts  --      6.6153                 6.7982                 6.8536
 IR Inten    --     19.3074                 1.1503                 6.3663

 - Thermochemistry -
 -------------------
 Temperature   298.150 Kelvin.  Pressure   1.00000 Atm.
 Atom     1 has atomic number  6 and mass  12.00000

 Molecular mass:   126.06808 amu.
 Principal axes and moments of inertia in atomic units:
                           1         2         3
     Eigenvalues --   780.462781070.646471493.02723
           X            0.99795  -0.06392  -0.00249
           Y            0.06371   0.99669  -0.05059
           Z            0.00572   0.05033   0.99872
 This molecule is an asymmetric top.
 Rotational symmetry number  1.
 Warning -- assumption of classical behavior for rotation
           may cause significant error
 Rotational temperatures (Kelvin)      0.11098     0.08090     0.05801
 Rotational constants (GHZ):           2.31240     1.68566     1.20878
 Zero-point vibrational energy     412655.9 (Joules/Mol)
                                   98.62713 (Kcal/Mol)
 Warning -- explicit consideration of  11 degrees of freedom as
           vibrations may cause significant error
 Vibrational temperatures:     92.56   252.31   275.97   283.25   308.76
          (Kelvin)            359.17   533.01   611.65   673.73   791.28
                              822.87   898.30  1092.87  1166.33  1234.23
                             1256.57  1284.63  1302.65  1371.97  1394.90
                             1429.39  1505.07  1514.73  1532.20  1551.21
                             1605.33  1636.58  1656.35  1682.22  1710.04
                             1780.12  1858.41  1954.01  1979.87  2024.07
                             2084.15  2106.00  2134.51  2143.10  2159.77
                             2235.43  4348.13  4377.43  4432.79  4479.53
                             4499.29  4501.54  4508.58  4557.02  4622.48
                             4645.69

 Zero-point correction=                           0.157172 (Hartree/Particle)
 Thermal correction to Energy=                    0.165782
 Thermal correction to Enthalpy=                  0.166726
 Thermal correction to Gibbs Free Energy=         0.123927
 Sum of electronic and zero-point Energies=           -422.971752
 Sum of electronic and thermal Energies=              -422.963142
 Sum of electronic and thermal Enthalpies=            -422.962198
 Sum of electronic and thermal Free Energies=         -423.004997

                     E (Thermal)             CV                S
                      KCal/Mol        Cal/Mol-Kelvin    Cal/Mol-Kelvin
 Total                  104.030             32.845             90.078
 Electronic               0.000              0.000              0.000
 Translational            0.889              2.981             40.409
 Rotational               0.889              2.981             28.613
 Vibrational            102.252             26.883             21.056
 Vibration     1          0.597              1.971              4.320
 Vibration     2          0.627              1.873              2.377
 Vibration     3          0.634              1.851              2.210
 Vibration     4          0.636              1.844              2.162
 Vibration     5          0.645              1.819              2.004
 Vibration     6          0.662              1.763              1.733
 Vibration     7          0.742              1.533              1.078
 Vibration     8          0.787              1.416              0.875
 Vibration     9          0.825              1.320              0.742
 Vibration    10          0.905              1.140              0.544
 Vibration    11          0.928              1.092              0.501

 Normal termination of Gaussian 09 at Tue Jan 28 03:29:40 2020.
