 Gaussian 09, Revision D.01,
 Gaussian 09:  ES64L-G09RevD.01 24-Apr-2013

 -----------------------------
 # b3lyp 6-31G(2df,p) opt Freq
 -----------------------------

 -----
 titel
 -----
 Symbolic Z-matrix:
 Charge =  0 Multiplicity = 1

 SCF Done:  E(RB3LYP) =  -423.161523622     A.U. after   14 cycles
 Optimization completed.
    -- Stationary point found.
 Normal termination of Gaussian 09 at Tue Jan 28 08:59:29 2020.

 ----------------------------------------------------------------------
 #N Geom=AllCheck Guess=TCheck SCRF=Check GenChk RB3LYP/6-31G(2df,p) Fr
 eq
 ----------------------------------------------------------------------

 Structure from the checkpoint file:  "/scratch/puck/g09_89060b90-8cd7-46b7-abcf-9edb0f9abdab/Gau-93598.chk"
 -----
 titel
 -----
 Charge =  0 Multiplicity = 1

                         Standard orientation:
 ---------------------------------------------------------------------
 Center     Atomic      Atomic             Coordinates (Angstroms)
 Number     Number       Type             X           Y           Z
 ---------------------------------------------------------------------
      1          8           0        1.512781    1.758347    0.303627
      2          6           0        0.644268    1.113680   -0.607070
      3          6           0        0.202438   -0.254210   -0.112096
      4          6           0        1.323504   -1.203833    0.089780
      5          8           0        2.494619   -0.914728   -0.028423
      6          6           0       -1.082569   -0.964355   -0.526076
      7          6           0       -2.231576    0.035508   -0.726118
      8          6           0       -2.039988    0.517566    0.748806
      9          6           0       -0.907661   -0.504561    0.908452
     10          1           0        2.300464    1.200953    0.345761
     11          1           0       -0.211247    1.777714   -0.744507
     12          1           0        1.117845    0.987414   -1.592963
     13          1           0        1.023163   -2.237083    0.378160
     14          1           0       -1.048595   -1.967306   -0.936787
     15          1           0       -2.114623    0.773261   -1.524265
     16          1           0       -3.187496   -0.473277   -0.865599
     17          1           0       -1.774267    1.564999    0.911333
     18          1           0       -2.901704    0.276546    1.374266
     19          1           0       -0.713218   -1.090939    1.798900
 ---------------------------------------------------------------------

 SCF Done:  E(RB3LYP) =  -423.161523622     A.U. after    1 cycles

 The electronic state is 1-A.
 Alpha  occ. eigenvalues --  -19.14494 -19.12206 -10.27654 -10.22773 -10.21482
 Alpha  occ. eigenvalues --  -10.21422 -10.21136 -10.20153 -10.19956  -1.05266
 Alpha  occ. eigenvalues --   -1.00573  -0.91677  -0.76884  -0.69247  -0.66984
 Alpha  occ. eigenvalues --   -0.63493  -0.56043  -0.55084  -0.52517  -0.49155
 Alpha  occ. eigenvalues --   -0.47924  -0.45629  -0.43608  -0.42329  -0.40715
 Alpha  occ. eigenvalues --   -0.40291  -0.38069  -0.36082  -0.34256  -0.33470
 Alpha  occ. eigenvalues --   -0.29354  -0.28947  -0.26051  -0.25348
 Alpha virt. eigenvalues --   -0.02863   0.08430   0.09123   0.09890   0.10497
 Alpha virt. eigenvalues --    0.11867   0.13906   0.14633   0.15351   0.16485
 Alpha virt. eigenvalues --    0.17122   0.18587   0.19861   0.21319   0.22132

 Mulliken charges:
               1
     1  O   -0.427283
     2  C   -0.157134
     3  C    0.214509
     4  C    0.122566
     5  O   -0.298238
     6  C   -0.112255
     7  C   -0.246804
     8  C   -0.250466
     9  C   -0.080158
    10  H    0.296221
    11  H    0.107196
    12  H    0.096645
    13  H    0.080774
    14  H    0.095381
    15  H    0.111014
    16  H    0.113916
    17  H    0.121971
    18  H    0.113767
    19  H    0.098379
 Sum of Mulliken charges =   0.00000

 Dipole moment (field-independent basis, Debye):
    X=             -3.1673    Y=             -1.5786    Z=             -0.3237  Tot=              3.5536
 Quadrupole moment (field-independent basis, Debye-Ang):
   XX=            -56.9044   YY=            -55.3488   ZZ=            -52.0849
   XY=              0.0475   XZ=             -0.2055   YZ=             -1.7479

  Exact polarizability:  93.843  -1.424  72.131  -0.392  -0.935  64.481
 Approx polarizability: 137.900   0.714 105.439  -1.126   0.965 101.120

                      1                      2                      3
                      A                      A                      A
 Frequencies --     91.5165               121.1212               195.4567
 Red. masses --      3.5597                 5.0319                 3.4502
 Frc consts  --      0.0176                 0.0435                 0.0777
 IR Inten    --      2.4180                 4.3940                 2.2353

                      4                      5                      6
                      A                      A                      A
 Frequencies --    217.8752               281.9664               318.0511
 Red. masses --      4.4328                 2.4054                 2.0168
 Frc consts  --      0.1240                 0.1127                 0.1202
 IR Inten    --      4.0986                 2.0726                 4.5826

                      7                      8                      9
                      A                      A                      A
 Frequencies --    320.3562               408.2692               489.3972
 Red. masses --      2.4606                 4.7747                 2.8117
 Frc consts  --      0.1488                 0.4689                 0.3968
 IR Inten    --      4.4005                 0.0601                 3.1805

                     10                     11                     12
                      A                      A                      A
 Frequencies --    542.1634               565.9886               712.9968
 Red. masses --      1.9580                 1.5977                 3.7280
 Frc consts  --      0.3391                 0.3015                 1.1166
 IR Inten    --     52.5762                97.0502                 1.5375

                     13                     14                     15
                      A                      A                      A
 Frequencies --    787.3505               816.1624               845.4044
 Red. masses --      1.1997                 3.6586                 2.6008
 Frc consts  --      0.4382                 1.4359                 1.0952
 IR Inten    --      7.3637                 0.8077                 1.7093

                     16                     17                     18
                      A                      A                      A
 Frequencies --    860.6404               935.0799               937.4056
 Red. masses --      2.0675                 2.2691                 1.7534
 Frc consts  --      0.9023                 1.1690                 0.9078
 IR Inten    --     23.2161                 3.2566                31.8712

                     19                     20                     21
                      A                      A                      A
 Frequencies --    982.2522              1003.8517              1013.8764
 Red. masses --      2.0064                 1.4027                 1.8412
 Frc consts  --      1.1406                 0.8328                 1.1151
 IR Inten    --      3.5741                 0.0963                 5.6931

                     22                     23                     24
                      A                      A                      A
 Frequencies --   1036.2351              1058.7047              1080.0205
 Red. masses --      2.0186                 1.8858                 4.3863
 Frc consts  --      1.2771                 1.2453                 3.0145
 IR Inten    --     27.5210                18.0980                76.0264

                     25                     26                     27
                      A                      A                      A
 Frequencies --   1099.4198              1101.9620              1161.2620
 Red. masses --      1.8994                 2.0143                 1.4472
 Frc consts  --      1.3527                 1.4412                 1.1498
 IR Inten    --      6.1024                12.1708                21.9701

                     28                     29                     30
                      A                      A                      A
 Frequencies --   1217.7210              1227.0300              1258.7844
 Red. masses --      1.1680                 1.3543                 1.3234
 Frc consts  --      1.0204                 1.2014                 1.2355
 IR Inten    --      0.0983                11.5559                 0.4823

                     31                     32                     33
                      A                      A                      A
 Frequencies --   1262.2413              1288.9466              1328.3430
 Red. masses --      1.3797                 1.7104                 2.7644
 Frc consts  --      1.2952                 1.6743                 2.8739
 IR Inten    --     12.0749                 3.3537                31.0778

                     34                     35                     36
                      A                      A                      A
 Frequencies --   1381.7226              1384.6597              1436.5711
 Red. masses --      2.5463                 1.2422                 1.2883
 Frc consts  --      2.8641                 1.4033                 1.5665
 IR Inten    --      4.8266                 1.5207                35.9793

                     37                     38                     39
                      A                      A                      A
 Frequencies --   1451.2632              1479.9766              1497.4815
 Red. masses --      1.3343                 1.0876                 1.0934
 Frc consts  --      1.6558                 1.4036                 1.4446
 IR Inten    --     41.4375                 2.1257                 3.0562

                     40                     41                     42
                      A                      A                      A
 Frequencies --   1510.1557              1791.4449              2872.1812
 Red. masses --      1.1010                 9.9087                 1.0830
 Frc consts  --      1.4794                18.7358                 5.2636
 IR Inten    --      1.2191               249.0986                95.0739

                     43                     44                     45
                      A                      A                      A
 Frequencies --   2987.5379              3062.3422              3070.6540
 Red. masses --      1.0724                 1.0590                 1.0602
 Frc consts  --      5.6392                 5.8512                 5.8898
 IR Inten    --     47.2158                34.0427                32.4221

                     46                     47                     48
                      A                      A                      A
 Frequencies --   3107.0447              3108.9278              3126.1297
 Red. masses --      1.1006                 1.0963                 1.1060
 Frc consts  --      6.2598                 6.2431                 6.3682
 IR Inten    --     12.6564                15.6842                28.6212

                     49                     50                     51
                      A                      A                      A
 Frequencies --   3168.5743              3181.1649              3770.2998
 Red. masses --      1.0880                 1.0960                 1.0653
 Frc consts  --      6.4359                 6.5350                 8.9219
 IR Inten    --     16.6834                13.2913                52.4513

 - Thermochemistry -
 -------------------
 Temperature   298.150 Kelvin.  Pressure   1.00000 Atm.
 Atom     1 has atomic number  8 and mass  15.99491

 Molecular mass:   126.06808 amu.
 Principal axes and moments of inertia in atomic units:
                           1         2         3
     Eigenvalues --   636.570811347.337521657.30727
           X            1.00000   0.00141  -0.00111
           Y           -0.00144   0.99962  -0.02758
           Z            0.00107   0.02759   0.99962
 This molecule is an asymmetric top.
 Rotational symmetry number  1.
 Warning -- assumption of classical behavior for rotation
           may cause significant error
 Rotational temperatures (Kelvin)      0.13606     0.06429     0.05226
 Rotational constants (GHZ):           2.83510     1.33949     1.08896
 Zero-point vibrational energy     418429.7 (Joules/Mol)
                                  100.00710 (Kcal/Mol)
 Warning -- explicit consideration of  11 degrees of freedom as
           vibrations may cause significant error
 Vibrational temperatures:    131.67   174.27   281.22   313.47   405.69
          (Kelvin)            457.60   460.92   587.41   704.13   780.05
                              814.33  1025.84  1132.82  1174.27  1216.35
                             1238.27  1345.37  1348.72  1413.24  1444.32
                             1458.74  1490.91  1523.24  1553.91  1581.82
                             1585.48  1670.79  1752.03  1765.42  1811.11
                             1816.08  1854.50  1911.19  1987.99  1992.21
                             2066.90  2088.04  2129.35  2154.54  2172.77
                             2577.49  4132.42  4298.40  4406.02  4417.98
                             4470.34  4473.05  4497.80  4558.87  4576.98
                             5424.61

 Zero-point correction=                           0.159371 (Hartree/Particle)
 Thermal correction to Energy=                    0.167774
 Thermal correction to Enthalpy=                  0.168718
 Thermal correction to Gibbs Free Energy=         0.126378
 Sum of electronic and zero-point Energies=           -423.002152
 Sum of electronic and thermal Energies=              -422.993750
 Sum of electronic and thermal Enthalpies=            -422.992806
 Sum of electronic and thermal Free Energies=         -423.035146

                     E (Thermal)             CV                S
                      KCal/Mol        Cal/Mol-Kelvin    Cal/Mol-Kelvin
 Total                  105.280             32.163             89.113
 Electronic               0.000              0.000              0.000
 Translational            0.889              2.981             40.409
 Rotational               0.889              2.981             28.743
 Vibrational            103.502             26.201             19.961
 Vibration     1          0.602              1.955              3.627
 Vibration     2          0.609              1.932              3.082
 Vibration     3          0.636              1.846              2.175
 Vibration     4          0.646              1.814              1.977
 Vibration     5          0.681              1.707              1.522
 Vibration     6          0.704              1.639              1.320
 Vibration     7          0.706              1.635              1.308
 Vibration     8          0.773              1.452              0.933
 Vibration     9          0.845              1.274              0.685
 Vibration    10          0.897              1.157              0.561
 Vibration    11          0.922              1.105              0.512

 Normal termination of Gaussian 09 at Tue Jan 28 09:43:23 2020.
