 Gaussian 09, Revision D.01,
 Gaussian 09:  ES64L-G09RevD.01 24-Apr-2013

 -----------------------------
 # b3lyp 6-31G(2df,p) opt Freq
 -----------------------------

 -----
 titel
 -----
 Symbolic Z-matrix:
 Charge =  0 Multiplicity = 1

 SCF Done:  E(RB3LYP) =  -423.209834808     A.U. after   14 cycles
 Optimization completed.
    -- Stationary point found.
 Normal termination of Gaussian 09 at Tue Jan 28 14:15:02 2020.

 ----------------------------------------------------------------------
 #N Geom=AllCheck Guess=TCheck SCRF=Check GenChk RB3LYP/6-31G(2df,p) Fr
 eq
 ----------------------------------------------------------------------

 Structure from the checkpoint file:  "/scratch/puck/g09_540c6d9e-9b80-4694-b735-bb64d9abc117/Gau-33759.chk"
 -----
 titel
 -----
 Charge =  0 Multiplicity = 1

                         Standard orientation:
 ---------------------------------------------------------------------
 Center     Atomic      Atomic             Coordinates (Angstroms)
 Number     Number       Type             X           Y           Z
 ---------------------------------------------------------------------
      1          6           0        3.498520   -0.451953   -0.373667
      2          8           0        2.276371   -0.379237    0.322758
      3          6           0        1.377334    0.550164   -0.235940
      4          6           0        0.081545    0.506485    0.576057
      5          6           0       -0.675114   -0.833422    0.468602
      6          6           0       -2.063764   -0.484865   -0.089772
      7          8           0       -2.956908   -1.265470   -0.321158
      8          6           0       -2.091450    0.987184   -0.280541
      9          6           0       -0.924428    1.525435    0.087910
     10          1           0        4.027593    0.514090   -0.371546
     11          1           0        4.118707   -1.195360    0.132488
     12          1           0        3.354184   -0.761409   -1.420713
     13          1           0        1.807916    1.566684   -0.216508
     14          1           0        1.168131    0.305030   -1.292069
     15          1           0        0.356261    0.724227    1.616402
     16          1           0       -0.172524   -1.542599   -0.195307
     17          1           0       -0.788024   -1.338008    1.432035
     18          1           0       -2.960867    1.507457   -0.661727
     19          1           0       -0.682940    2.583383    0.048253
 ---------------------------------------------------------------------

 SCF Done:  E(RB3LYP) =  -423.209834808     A.U. after    1 cycles

 The electronic state is 1-A.
 Alpha  occ. eigenvalues --  -19.14932 -19.11728 -10.25963 -10.23943 -10.23128
 Alpha  occ. eigenvalues --  -10.21413 -10.20584 -10.19341 -10.18614  -1.04294
 Alpha  occ. eigenvalues --   -1.02761  -0.85745  -0.75823  -0.71561  -0.68060
 Alpha  occ. eigenvalues --   -0.62602  -0.56941  -0.53669  -0.50223  -0.49043
 Alpha  occ. eigenvalues --   -0.47614  -0.46378  -0.43802  -0.41493  -0.40966
 Alpha  occ. eigenvalues --   -0.39778  -0.37729  -0.36518  -0.35920  -0.35345
 Alpha  occ. eigenvalues --   -0.32629  -0.27482  -0.26499  -0.23623
 Alpha virt. eigenvalues --   -0.04493   0.05587   0.08066   0.10259   0.12952
 Alpha virt. eigenvalues --    0.12986   0.13175   0.14272   0.15633   0.15956
 Alpha virt. eigenvalues --    0.16985   0.18006   0.18779   0.19799   0.22878

 Mulliken charges:
               1
     1  C   -0.230335
     2  O   -0.230748
     3  C   -0.064240
     4  C   -0.060564
     5  C   -0.338195
     6  C    0.377032
     7  O   -0.328643
     8  C   -0.186498
     9  C   -0.064731
    10  H    0.105445
    11  H    0.131358
    12  H    0.107467
    13  H    0.085682
    14  H    0.090972
    15  H    0.101061
    16  H    0.137732
    17  H    0.135314
    18  H    0.117144
    19  H    0.114749
 Sum of Mulliken charges =   0.00000

 Dipole moment (field-independent basis, Debye):
    X=              3.0549    Y=              2.6534    Z=             -0.1303  Tot=              4.0484
 Quadrupole moment (field-independent basis, Debye-Ang):
   XX=            -58.7882   YY=            -52.9503   ZZ=            -52.7981
   XY=             -6.4166   XZ=             -3.3915   YZ=             -0.5993

  Exact polarizability: 101.544   4.840  79.398   5.761  -0.347  57.885
 Approx polarizability: 138.489  20.815 124.133  13.830   3.038  91.847

                      1                      2                      3
                      A                      A                      A
 Frequencies --     45.2611                89.8265               102.9069
 Red. masses --      3.5603                 2.6192                 2.2360
 Frc consts  --      0.0043                 0.0125                 0.0140
 IR Inten    --      1.9546                 0.8433                 3.7411

                      4                      5                      6
                      A                      A                      A
 Frequencies --    143.9945               228.7868               266.7829
 Red. masses --      3.6059                 1.3676                 3.0084
 Frc consts  --      0.0441                 0.0422                 0.1262
 IR Inten    --      1.1801                 1.8627                 2.2561

                      7                      8                      9
                      A                      A                      A
 Frequencies --    329.0066               388.2145               448.4113
 Red. masses --      2.6255                 4.1288                 2.0244
 Frc consts  --      0.1674                 0.3666                 0.2398
 IR Inten    --      2.6196                 5.8771                 0.9840

                     10                     11                     12
                      A                      A                      A
 Frequencies --    480.0523               590.1796               637.6953
 Red. masses --      3.5757                 2.9029                 4.3134
 Frc consts  --      0.4855                 0.5957                 1.0335
 IR Inten    --      2.9444                 3.2394                 3.2666

                     13                     14                     15
                      A                      A                      A
 Frequencies --    757.0301               808.0978               830.1396
 Red. masses --      5.2828                 1.3574                 3.4486
 Frc consts  --      1.7838                 0.5223                 1.4002
 IR Inten    --      4.5513                23.6799                 8.6754

                     16                     17                     18
                      A                      A                      A
 Frequencies --    875.7126               915.5196               976.6163
 Red. masses --      2.6196                 1.7179                 3.1103
 Frc consts  --      1.1836                 0.8484                 1.7479
 IR Inten    --      0.8424                11.3896                18.5973

                     19                     20                     21
                      A                      A                      A
 Frequencies --    998.4221              1021.4162              1075.7403
 Red. masses --      1.5831                 1.8559                 1.6841
 Frc consts  --      0.9298                 1.1408                 1.1483
 IR Inten    --      2.8020                 9.1383                 5.0089

                     22                     23                     24
                      A                      A                      A
 Frequencies --   1079.2243              1129.6721              1160.8756
 Red. masses --      1.7963                 1.3768                 3.4052
 Frc consts  --      1.2327                 1.0352                 2.7038
 IR Inten    --      3.8763                12.6230               139.6464

                     25                     26                     27
                      A                      A                      A
 Frequencies --   1172.3431              1180.5507              1201.8136
 Red. masses --      1.9692                 1.6717                 1.5309
 Frc consts  --      1.5946                 1.3727                 1.3027
 IR Inten    --     47.1219                18.3909                 3.7127

                     28                     29                     30
                      A                      A                      A
 Frequencies --   1221.6491              1248.6844              1265.4156
 Red. masses --      1.5735                 1.6362                 1.1994
 Frc consts  --      1.3836                 1.5032                 1.1315
 IR Inten    --     42.9173                11.7647                 3.1743

                     31                     32                     33
                      A                      A                      A
 Frequencies --   1289.6116              1343.2199              1369.6345
 Red. masses --      1.6447                 1.4431                 1.7040
 Frc consts  --      1.6116                 1.5341                 1.8834
 IR Inten    --      5.3284                 0.5946                11.1668

                     34                     35                     36
                      A                      A                      A
 Frequencies --   1414.9906              1452.2514              1480.9840
 Red. masses --      1.3614                 1.0858                 1.1557
 Frc consts  --      1.6060                 1.3493                 1.4935
 IR Inten    --     32.8030                 6.8549                 1.3661

                     37                     38                     39
                      A                      A                      A
 Frequencies --   1486.1051              1502.8761              1527.3943
 Red. masses --      1.0465                 1.0603                 1.0924
 Frc consts  --      1.3617                 1.4110                 1.5015
 IR Inten    --      5.4259                10.9184                 1.2656

                     40                     41                     42
                      A                      A                      A
 Frequencies --   1651.8596              1817.0560              2942.9655
 Red. masses --      6.5802                12.4381                 1.0528
 Frc consts  --     10.5787                24.1959                 5.3723
 IR Inten    --     20.0684               296.0981                35.1612

                     43                     44                     45
                      A                      A                      A
 Frequencies --   2972.2690              2973.3139              3017.3990
 Red. masses --      1.1037                 1.0384                 1.1032
 Frc consts  --      5.7451                 5.4088                 5.9177
 IR Inten    --     52.0628                71.7787                55.8915

                     46                     47                     48
                      A                      A                      A
 Frequencies --   3026.2671              3070.7310              3109.5570
 Red. masses --      1.0841                 1.0612                 1.1023
 Frc consts  --      5.8496                 5.8956                 6.2800
 IR Inten    --     20.4684                 5.6348                 5.6118

                     49                     50                     51
                      A                      A                      A
 Frequencies --   3117.8304              3179.2672              3226.3589
 Red. masses --      1.0961                 1.0893                 1.1011
 Frc consts  --      6.2776                 6.4872                 6.7533
 IR Inten    --     27.1148                 8.5499                 5.6345

 - Thermochemistry -
 -------------------
 Temperature   298.150 Kelvin.  Pressure   1.00000 Atm.
 Atom     1 has atomic number  6 and mass  12.00000

 Molecular mass:   126.06808 amu.
 Principal axes and moments of inertia in atomic units:
                           1         2         3
     Eigenvalues --   459.789702117.940992417.62285
           X            0.99983  -0.01444  -0.01118
           Y            0.01427   0.99979  -0.01487
           Z            0.01139   0.01471   0.99983
 This molecule is an asymmetric top.
 Rotational symmetry number  1.
 Warning -- assumption of classical behavior for rotation
           may cause significant error
 Rotational temperatures (Kelvin)      0.18838     0.04090     0.03583
 Rotational constants (GHZ):           3.92514     0.85212     0.74649
 Zero-point vibrational energy     416551.6 (Joules/Mol)
                                   99.55821 (Kcal/Mol)
 Warning -- explicit consideration of  11 degrees of freedom as
           vibrations may cause significant error
 Vibrational temperatures:     65.12   129.24   148.06   207.18   329.17
          (Kelvin)            383.84   473.37   558.55   645.16   690.69
                              849.14   917.50  1089.20  1162.67  1194.38
                             1259.95  1317.23  1405.13  1436.50  1469.59
                             1547.75  1552.76  1625.34  1670.24  1686.74
                             1698.55  1729.14  1757.68  1796.58  1820.65
                             1855.46  1932.59  1970.60  2035.85  2089.46
                             2130.80  2138.17  2162.30  2197.58  2376.65
                             2614.34  4234.27  4276.43  4277.93  4341.36
                             4354.12  4418.09  4473.95  4485.86  4574.25
                             4642.01

 Zero-point correction=                           0.158656 (Hartree/Particle)
 Thermal correction to Energy=                    0.167685
 Thermal correction to Enthalpy=                  0.168629
 Thermal correction to Gibbs Free Energy=         0.123749
 Sum of electronic and zero-point Energies=           -423.051179
 Sum of electronic and thermal Energies=              -423.042150
 Sum of electronic and thermal Enthalpies=            -423.041206
 Sum of electronic and thermal Free Energies=         -423.086086

                     E (Thermal)             CV                S
                      KCal/Mol        Cal/Mol-Kelvin    Cal/Mol-Kelvin
 Total                  105.224             32.398             94.457
 Electronic               0.000              0.000              0.000
 Translational            0.889              2.981             40.409
 Rotational               0.889              2.981             29.244
 Vibrational            103.446             26.436             24.804
 Vibration     1          0.595              1.979              5.014
 Vibration     2          0.602              1.956              3.664
 Vibration     3          0.605              1.947              3.399
 Vibration     4          0.616              1.909              2.750
 Vibration     5          0.651              1.797              1.888
 Vibration     6          0.672              1.734              1.617
 Vibration     7          0.712              1.618              1.265
 Vibration     8          0.756              1.495              1.007
 Vibration     9          0.807              1.364              0.801
 Vibration    10          0.836              1.294              0.710
 Vibration    11          0.948              1.053              0.467

 Optimization completed.
    -- Stationary point found.
 Normal termination of Gaussian 09 at Tue Jan 28 14:51:15 2020.
