 Gaussian 09, Revision D.01,
 Gaussian 09:  ES64L-G09RevD.01 24-Apr-2013

 -----------------------------
 # b3lyp 6-31G(2df,p) opt Freq
 -----------------------------

 -----
 titel
 -----
 Symbolic Z-matrix:
 Charge =  0 Multiplicity = 1

 SCF Done:  E(RB3LYP) =  -423.115511023     A.U. after   13 cycles
 Optimization completed.
    -- Stationary point found.
 Normal termination of Gaussian 09 at Mon Jan 27 23:46:31 2020.

 ----------------------------------------------------------------------
 #N Geom=AllCheck Guess=TCheck SCRF=Check GenChk RB3LYP/6-31G(2df,p) Fr
 eq
 ----------------------------------------------------------------------

 Structure from the checkpoint file:  "/scratch/puck/g09_bfb8d313-d52d-46c2-8dfd-2ffa3d1a4091/Gau-68053.chk"
 -----
 titel
 -----
 Charge =  0 Multiplicity = 1

                         Standard orientation:
 ---------------------------------------------------------------------
 Center     Atomic      Atomic             Coordinates (Angstroms)
 Number     Number       Type             X           Y           Z
 ---------------------------------------------------------------------
      1          6           0        2.157837   -0.649008    0.687646
      2          6           0        1.047031   -0.688442   -0.354119
      3          6           0       -0.276626   -1.324533    0.152759
      4          8           0       -1.149247   -1.293714   -1.006428
      5          6           0       -1.189972    0.122502   -0.860294
      6          6           0        0.240895    0.613348   -0.459936
      7          6           0        0.725072    2.003501   -0.740822
      8          6           0       -0.763349    0.142253    0.571963
      9          8           0       -1.182864    0.755314    1.720430
     10          1           0        2.983613   -0.006831    0.363982
     11          1           0        1.789871   -0.261034    1.644251
     12          1           0        2.566563   -1.650239    0.862237
     13          1           0        1.399761   -1.121154   -1.298163
     14          1           0       -0.310583   -2.261065    0.707807
     15          1           0       -1.888662    0.703993   -1.448092
     16          1           0       -0.085188    2.732347   -0.631846
     17          1           0        1.521560    2.297453   -0.048181
     18          1           0        1.117731    2.089178   -1.760411
     19          1           0       -2.083110    0.466823    1.913218
 ---------------------------------------------------------------------

 SCF Done:  E(RB3LYP) =  -423.115511023     A.U. after    1 cycles

 The electronic state is 1-A.
 Alpha  occ. eigenvalues --  -19.16382 -19.13397 -10.23823 -10.23371 -10.23047
 Alpha  occ. eigenvalues --  -10.19390 -10.18741 -10.18166 -10.17549  -1.06459
 Alpha  occ. eigenvalues --   -1.03792  -0.85712  -0.75653  -0.71921  -0.67143
 Alpha  occ. eigenvalues --   -0.61541  -0.57124  -0.54348  -0.51016  -0.48263
 Alpha  occ. eigenvalues --   -0.45770  -0.43398  -0.41334  -0.40688  -0.39364
 Alpha  occ. eigenvalues --   -0.39186  -0.38198  -0.37549  -0.35145  -0.33585
 Alpha  occ. eigenvalues --   -0.31664  -0.25921  -0.25031  -0.22141
 Alpha virt. eigenvalues --    0.06579   0.08377   0.10228   0.11681   0.12545
 Alpha virt. eigenvalues --    0.14098   0.15114   0.15503   0.16427   0.16637
 Alpha virt. eigenvalues --    0.17243   0.19105   0.20006   0.21167   0.22204

 Mulliken charges:
               1
     1  C   -0.418543
     2  C   -0.043090
     3  C   -0.020446
     4  O   -0.288299
     5  C   -0.074633
     6  C    0.261102
     7  C   -0.515512
     8  C    0.265791
     9  O   -0.452103
    10  H    0.118373
    11  H    0.126686
    12  H    0.113816
    13  H    0.069249
    14  H    0.082342
    15  H    0.107694
    16  H    0.123852
    17  H    0.126371
    18  H    0.122828
    19  H    0.294523
 Sum of Mulliken charges =   0.00000

 Dipole moment (field-independent basis, Debye):
    X=             -0.1875    Y=              0.6262    Z=              0.6784  Tot=              0.9421
 Quadrupole moment (field-independent basis, Debye-Ang):
   XX=            -48.9742   YY=            -54.0159   ZZ=            -54.6411
   XY=             -2.3648   XZ=             -3.2848   YZ=             -4.7219

  Exact polarizability:  79.071  -1.038  76.069  -0.147  -3.259  69.148
 Approx polarizability: 111.484   0.624 109.904  -0.072  -0.333 108.264

                      1                      2                      3
                      A                      A                      A
 Frequencies --    153.2484               178.4973               189.8212
 Red. masses --      3.3341                 3.3490                 1.0348
 Frc consts  --      0.0461                 0.0629                 0.0220
 IR Inten    --      1.5732                 2.4928                 0.1820

                      4                      5                      6
                      A                      A                      A
 Frequencies --    204.2942               233.1500               315.1666
 Red. masses --      2.4939                 1.0385                 2.8740
 Frc consts  --      0.0613                 0.0333                 0.1682
 IR Inten    --      0.3974                 0.0696                 0.7192

                      7                      8                      9
                      A                      A                      A
 Frequencies --    335.6085               364.3492               409.9147
 Red. masses --      1.4771                 3.7991                 1.9640
 Frc consts  --      0.0980                 0.2971                 0.1944
 IR Inten    --     42.3695                 5.8282                55.5875

                     10                     11                     12
                      A                      A                      A
 Frequencies --    505.7275               577.0270               611.6724
 Red. masses --      4.2989                 3.2617                 3.9265
 Frc consts  --      0.6478                 0.6399                 0.8656
 IR Inten    --      2.0112                10.0728                 6.4791

                     13                     14                     15
                      A                      A                      A
 Frequencies --    658.5326               740.8264               798.0095
 Red. masses --      4.6141                 3.4050                 3.9883
 Frc consts  --      1.1789                 1.1010                 1.4964
 IR Inten    --      7.5408                 1.9080                 4.5487

                     16                     17                     18
                      A                      A                      A
 Frequencies --    818.2204               882.9299               910.4651
 Red. masses --      2.5456                 2.4402                 2.3780
 Frc consts  --      1.0041                 1.1208                 1.1614
 IR Inten    --      7.5743                13.0612                29.1677

                     19                     20                     21
                      A                      A                      A
 Frequencies --    936.2993               976.6221              1008.5500
 Red. masses --      1.4847                 2.9708                 1.7218
 Frc consts  --      0.7669                 1.6695                 1.0319
 IR Inten    --      8.5577                15.1840                29.0481

                     22                     23                     24
                      A                      A                      A
 Frequencies --   1027.7756              1046.3064              1086.6188
 Red. masses --      1.7933                 2.3172                 1.9612
 Frc consts  --      1.1161                 1.4946                 1.3644
 IR Inten    --      7.8977                 5.3340                 3.8958

                     25                     26                     27
                      A                      A                      A
 Frequencies --   1113.9243              1133.8564              1154.0365
 Red. masses --      2.1531                 2.3595                 2.0280
 Frc consts  --      1.5741                 1.7873                 1.5913
 IR Inten    --      4.3762                 1.9552                 4.3486

                     28                     29                     30
                      A                      A                      A
 Frequencies --   1190.1137              1222.1308              1242.4629
 Red. masses --      1.5092                 2.1855                 1.7483
 Frc consts  --      1.2594                 1.9232                 1.5901
 IR Inten    --      1.4362                46.6974                 0.5070

                     31                     32                     33
                      A                      A                      A
 Frequencies --   1275.0678              1303.1705              1335.4505
 Red. masses --      1.4929                 1.5246                 2.1684
 Frc consts  --      1.4301                 1.5255                 2.2785
 IR Inten    --     47.4305                16.5028                38.4742

                     34                     35                     36
                      A                      A                      A
 Frequencies --   1370.8944              1411.2361              1417.8342
 Red. masses --      2.2634                 1.2670                 1.3041
 Frc consts  --      2.5062                 1.4867                 1.5446
 IR Inten    --     36.3956                 3.5580                 0.1636

                     37                     38                     39
                      A                      A                      A
 Frequencies --   1482.6409              1487.4232              1496.6571
 Red. masses --      1.2553                 1.2429                 1.0716
 Frc consts  --      1.6258                 1.6202                 1.4143
 IR Inten    --      2.0914                 7.3025                 7.7301

                     40                     41                     42
                      A                      A                      A
 Frequencies --   1502.4936              1510.7877              3024.5461
 Red. masses --      1.0530                 1.8464                 1.0353
 Frc consts  --      1.4005                 2.4830                 5.5801
 IR Inten    --      0.4902                35.4976                31.6358

                     43                     44                     45
                      A                      A                      A
 Frequencies --   3027.0017              3034.8918              3086.1199
 Red. masses --      1.0356                 1.0831                 1.1010
 Frc consts  --      5.5908                 5.8775                 6.1783
 IR Inten    --     27.8594                33.1889                21.1753

                     46                     47                     48
                      A                      A                      A
 Frequencies --   3093.3103              3094.2678              3097.3570
 Red. masses --      1.1005                 1.1011                 1.1009
 Frc consts  --      6.2039                 6.2113                 6.2228
 IR Inten    --     23.6707                15.5499                34.7849

                     49                     50                     51
                      A                      A                      A
 Frequencies --   3131.6744              3204.1972              3776.4945
 Red. masses --      1.0924                 1.0948                 1.0660
 Frc consts  --      6.3120                 6.6227                 8.9574
 IR Inten    --     34.9904                10.9706                26.6372

 - Thermochemistry -
 -------------------
 Temperature   298.150 Kelvin.  Pressure   1.00000 Atm.
 Atom     1 has atomic number  6 and mass  12.00000

 Molecular mass:   126.06808 amu.
 Principal axes and moments of inertia in atomic units:
                           1         2         3
     Eigenvalues --   913.614321011.898681163.71120
           X            0.99742  -0.06916   0.01915
           Y            0.07149   0.98085  -0.18117
           Z           -0.00625   0.18207   0.98327
 This molecule is an asymmetric top.
 Rotational symmetry number  1.
 Warning -- assumption of classical behavior for rotation
           may cause significant error
 Rotational temperatures (Kelvin)      0.09480     0.08560     0.07443
 Rotational constants (GHZ):           1.97539     1.78352     1.55085
 Zero-point vibrational energy     413846.2 (Joules/Mol)
                                   98.91160 (Kcal/Mol)
 Warning -- explicit consideration of  12 degrees of freedom as
           vibrations may cause significant error
 Vibrational temperatures:    220.49   256.82   273.11   293.93   335.45
          (Kelvin)            453.45   482.87   524.22   589.78   727.63
                              830.21   880.06   947.48  1065.88  1148.16
                             1177.24  1270.34  1309.95  1347.12  1405.14
                             1451.08  1478.74  1505.40  1563.40  1602.69
                             1631.36  1660.40  1712.31  1758.37  1787.62
                             1834.54  1874.97  1921.41  1972.41  2030.45
                             2039.94  2133.19  2140.07  2153.35  2161.75
                             2173.68  4351.64  4355.17  4366.53  4440.23
                             4450.58  4451.96  4456.40  4505.78  4610.12
                             5433.53

 Zero-point correction=                           0.157626 (Hartree/Particle)
 Thermal correction to Energy=                    0.166199
 Thermal correction to Enthalpy=                  0.167144
 Thermal correction to Gibbs Free Energy=         0.125089
 Sum of electronic and zero-point Energies=           -422.957885
 Sum of electronic and thermal Energies=              -422.949312
 Sum of electronic and thermal Enthalpies=            -422.948367
 Sum of electronic and thermal Free Energies=         -422.990422

                     E (Thermal)             CV                S
                      KCal/Mol        Cal/Mol-Kelvin    Cal/Mol-Kelvin
 Total                  104.292             33.394             88.512
 Electronic               0.000              0.000              0.000
 Translational            0.889              2.981             40.409
 Rotational               0.889              2.981             28.466
 Vibrational            102.514             27.432             19.637
 Vibration     1          0.619              1.899              2.632
 Vibration     2          0.629              1.869              2.344
 Vibration     3          0.633              1.854              2.230
 Vibration     4          0.640              1.834              2.094
 Vibration     5          0.654              1.790              1.855
 Vibration     6          0.703              1.645              1.335
 Vibration     7          0.717              1.604              1.233
 Vibration     8          0.738              1.546              1.103
 Vibration     9          0.774              1.449              0.927
 Vibration    10          0.861              1.237              0.644
 Vibration    11          0.933              1.081              0.491
 Vibration    12          0.971              1.007              0.430

 Normal termination of Gaussian 09 at Tue Jan 28 00:31:00 2020.
