 Gaussian 09, Revision D.01,
 Gaussian 09:  ES64L-G09RevD.01 24-Apr-2013

 -----------------------------
 # b3lyp 6-31G(2df,p) opt Freq
 -----------------------------

 -----
 titel
 -----
 Symbolic Z-matrix:
 Charge =  0 Multiplicity = 1

 SCF Done:  E(RB3LYP) =  -423.178816749     A.U. after   14 cycles
 Optimization completed.
    -- Stationary point found.
 Normal termination of Gaussian 09 at Tue Jan 28 08:13:44 2020.

 ----------------------------------------------------------------------
 #N Geom=AllCheck Guess=TCheck SCRF=Check GenChk RB3LYP/6-31G(2df,p) Fr
 eq
 ----------------------------------------------------------------------

 Structure from the checkpoint file:  "/scratch/puck/g09_8291fea1-bf07-4873-82c0-6211d717248e/Gau-81112.chk"
 -----
 titel
 -----
 Charge =  0 Multiplicity = 1

                         Standard orientation:
 ---------------------------------------------------------------------
 Center     Atomic      Atomic             Coordinates (Angstroms)
 Number     Number       Type             X           Y           Z
 ---------------------------------------------------------------------
      1          8           0        2.635470   -0.036406    0.762720
      2          6           0        1.795054    0.088799   -0.392186
      3          6           0        0.944077   -1.166461   -0.636171
      4          6           0       -0.268873   -1.210205    0.299767
      5          6           0       -1.122784    0.031615    0.130350
      6          6           0       -2.490720    0.066890    0.674410
      7          8           0       -2.287424   -0.102441   -0.723963
      8          6           0       -0.372155    1.297572   -0.059522
      9          6           0        0.941843    1.329829   -0.295728
     10          1           0        2.091889    0.143864    1.536709
     11          1           0        2.500281    0.202194   -1.223458
     12          1           0        0.599481   -1.161677   -1.677248
     13          1           0        1.575225   -2.049066   -0.499064
     14          1           0       -0.883924   -2.095110    0.114785
     15          1           0        0.073752   -1.266820    1.341941
     16          1           0       -2.870793   -0.806463    1.205053
     17          1           0       -2.932440    1.016857    0.975673
     18          1           0       -0.951474    2.216175   -0.013527
     19          1           0        1.454979    2.282591   -0.396434
 ---------------------------------------------------------------------

 SCF Done:  E(RB3LYP) =  -423.178816749     A.U. after    1 cycles

 The electronic state is 1-A.
 Alpha  occ. eigenvalues --  -19.15140 -19.13579 -10.24627 -10.23566 -10.23527
 Alpha  occ. eigenvalues --  -10.19458 -10.19069 -10.19001 -10.18135  -1.06962
 Alpha  occ. eigenvalues --   -1.01612  -0.82741  -0.75586  -0.72310  -0.66118
 Alpha  occ. eigenvalues --   -0.61998  -0.60594  -0.53442  -0.51439  -0.48989
 Alpha  occ. eigenvalues --   -0.47162  -0.45188  -0.42649  -0.42367  -0.40372
 Alpha  occ. eigenvalues --   -0.40291  -0.37839  -0.35668  -0.34122  -0.32785
 Alpha  occ. eigenvalues --   -0.30727  -0.27307  -0.27152  -0.25093
 Alpha virt. eigenvalues --   -0.00713   0.07666   0.09880   0.10340   0.11687
 Alpha virt. eigenvalues --    0.12941   0.13499   0.14802   0.15897   0.17476
 Alpha virt. eigenvalues --    0.17658   0.18872   0.19738   0.22043   0.22823

 Mulliken charges:
               1
     1  O   -0.438608
     2  C    0.091040
     3  C   -0.233534
     4  C   -0.306743
     5  C    0.414308
     6  C   -0.245720
     7  O   -0.277794
     8  C   -0.094923
     9  C   -0.122071
    10  H    0.278230
    11  H    0.090577
    12  H    0.110342
    13  H    0.104859
    14  H    0.112092
    15  H    0.097071
    16  H    0.112344
    17  H    0.111604
    18  H    0.096917
    19  H    0.100010
 Sum of Mulliken charges =   0.00000

 Dipole moment (field-independent basis, Debye):
    X=             -0.5740    Y=              0.3875    Z=              1.4928  Tot=              1.6456
 Quadrupole moment (field-independent basis, Debye-Ang):
   XX=            -60.4395   YY=            -50.5444   ZZ=            -52.0722
   XY=              0.2448   XZ=             -5.9888   YZ=              0.1125

  Exact polarizability: 100.215   0.566  73.029  -7.592  -0.806  61.148
 Approx polarizability: 148.234   2.248 101.390  -6.188  -0.770  99.329

                      1                      2                      3
                      A                      A                      A
 Frequencies --     71.7947               169.4956               200.9436
 Red. masses --      4.4852                 4.0162                 3.0014
 Frc consts  --      0.0136                 0.0680                 0.0714
 IR Inten    --      2.1948                 7.5830                 0.1199

                      4                      5                      6
                      A                      A                      A
 Frequencies --    263.9635               311.6466               375.1783
 Red. masses --      1.1861                 2.4965                 2.3821
 Frc consts  --      0.0487                 0.1429                 0.1976
 IR Inten    --     81.9352                 0.3679                 5.1159

                      7                      8                      9
                      A                      A                      A
 Frequencies --    387.2250               404.5774               445.1000
 Red. masses --      2.7438                 2.6305                 3.0890
 Frc consts  --      0.2424                 0.2537                 0.3606
 IR Inten    --      1.2751                 3.4993                 4.8168

                     10                     11                     12
                      A                      A                      A
 Frequencies --    543.7580               607.7939               688.9094
 Red. masses --      4.4803                 3.4024                 4.7370
 Frc consts  --      0.7805                 0.7405                 1.3246
 IR Inten    --      1.2937                 6.0720                 3.7661

                     13                     14                     15
                      A                      A                      A
 Frequencies --    725.1391               780.4701               817.9768
 Red. masses --      2.1858                 2.1591                 3.1615
 Frc consts  --      0.6772                 0.7749                 1.2463
 IR Inten    --      5.3207                11.1433                 0.4770

                     16                     17                     18
                      A                      A                      A
 Frequencies --    844.8591               901.0252               949.6779
 Red. masses --      2.1921                 1.4576                 2.8367
 Frc consts  --      0.9219                 0.6972                 1.5073
 IR Inten    --     32.3287                 3.5874                 1.0377

                     19                     20                     21
                      A                      A                      A
 Frequencies --    974.3453               989.0765               998.2641
 Red. masses --      2.4939                 2.0145                 3.5769
 Frc consts  --      1.3950                 1.1611                 2.1001
 IR Inten    --     73.0026                12.0438                20.2820

                     22                     23                     24
                      A                      A                      A
 Frequencies --   1007.7496              1077.6265              1101.1688
 Red. masses --      1.3003                 2.5177                 1.9611
 Frc consts  --      0.7780                 1.7226                 1.4011
 IR Inten    --      0.6721                53.5162                 4.2061

                     25                     26                     27
                      A                      A                      A
 Frequencies --   1132.0972              1151.1613              1161.9647
 Red. masses --      1.2868                 1.2491                 1.3094
 Frc consts  --      0.9717                 0.9753                 1.0416
 IR Inten    --      5.9631                 4.2187                 0.4232

                     28                     29                     30
                      A                      A                      A
 Frequencies --   1195.7387              1238.9156              1265.8396
 Red. masses --      1.1412                 1.3617                 1.3459
 Frc consts  --      0.9613                 1.2314                 1.2706
 IR Inten    --     20.1194                10.2131                 7.9627

                     31                     32                     33
                      A                      A                      A
 Frequencies --   1299.4297              1337.9057              1359.0699
 Red. masses --      1.7738                 1.8560                 1.5351
 Frc consts  --      1.7647                 1.9574                 1.6706
 IR Inten    --      1.8338                10.5626                 1.2986

                     34                     35                     36
                      A                      A                      A
 Frequencies --   1380.2287              1391.5476              1415.1198
 Red. masses --      1.6074                 1.9118                 1.2573
 Frc consts  --      1.8042                 2.1812                 1.4835
 IR Inten    --      3.8227                 2.5043                46.0853

                     37                     38                     39
                      A                      A                      A
 Frequencies --   1445.4646              1473.8529              1479.6516
 Red. masses --      1.7751                 1.0943                 1.1046
 Frc consts  --      2.1851                 1.4005                 1.4249
 IR Inten    --     16.3813                 8.8979                 4.0792

                     40                     41                     42
                      A                      A                      A
 Frequencies --   1525.4868              1704.5512              3018.6881
 Red. masses --      1.2866                 7.1276                 1.0683
 Frc consts  --      1.7640                12.2015                 5.7355
 IR Inten    --      1.7194                 1.0185                18.4519

                     43                     44                     45
                      A                      A                      A
 Frequencies --   3035.0463              3048.7634              3070.0116
 Red. masses --      1.0694                 1.0770                 1.0501
 Frc consts  --      5.8038                 5.8979                 5.8315
 IR Inten    --      6.8544                50.3429                33.7985

                     46                     47                     48
                      A                      A                      A
 Frequencies --   3092.2229              3094.7947              3152.5979
 Red. masses --      1.0935                 1.1025                 1.0921
 Frc consts  --      6.1603                 6.2214                 6.3951
 IR Inten    --     18.1932                23.6951                 8.4408

                     49                     50                     51
                      A                      A                      A
 Frequencies --   3155.5357              3175.0812              3813.8543
 Red. masses --      1.1109                 1.0973                 1.0662
 Frc consts  --      6.5172                 6.5174                 9.1373
 IR Inten    --     17.7470                23.4086                12.5011

 - Thermochemistry -
 -------------------
 Temperature   298.150 Kelvin.  Pressure   1.00000 Atm.
 Atom     1 has atomic number  8 and mass  15.99491

 Molecular mass:   126.06808 amu.
 Principal axes and moments of inertia in atomic units:
                           1         2         3
     Eigenvalues --   509.350881517.240111716.75161
           X            0.99968  -0.00283  -0.02495
           Y            0.00288   0.99999   0.00167
           Z            0.02494  -0.00174   0.99969
 This molecule is an asymmetric top.
 Rotational symmetry number  1.
 Warning -- assumption of classical behavior for rotation
           may cause significant error
 Rotational temperatures (Kelvin)      0.17005     0.05709     0.05045
 Rotational constants (GHZ):           3.54322     1.18949     1.05125
 Zero-point vibrational energy     420202.6 (Joules/Mol)
                                  100.43083 (Kcal/Mol)
 Warning -- explicit consideration of  11 degrees of freedom as
           vibrations may cause significant error
 Vibrational temperatures:    103.30   243.87   289.11   379.78   448.39
          (Kelvin)            539.80   557.13   582.10   640.40   782.35
                              874.48   991.19  1043.31  1122.92  1176.88
                             1215.56  1296.37  1366.37  1401.86  1423.06
                             1436.28  1449.93  1550.46  1584.33  1628.83
                             1656.26  1671.81  1720.40  1782.52  1821.26
                             1869.59  1924.95  1955.40  1985.84  2002.12
                             2036.04  2079.70  2120.54  2128.89  2194.83
                             2452.47  4343.21  4366.75  4386.49  4417.06
                             4449.01  4452.71  4535.88  4540.11  4568.23
                             5487.28

 Zero-point correction=                           0.160047 (Hartree/Particle)
 Thermal correction to Energy=                    0.168219
 Thermal correction to Enthalpy=                  0.169163
 Thermal correction to Gibbs Free Energy=         0.127368
 Sum of electronic and zero-point Energies=           -423.018770
 Sum of electronic and thermal Energies=              -423.010598
 Sum of electronic and thermal Enthalpies=            -423.009654
 Sum of electronic and thermal Free Energies=         -423.051449

                     E (Thermal)             CV                S
                      KCal/Mol        Cal/Mol-Kelvin    Cal/Mol-Kelvin
 Total                  105.559             31.992             87.965
 Electronic               0.000              0.000              0.000
 Translational            0.889              2.981             40.409
 Rotational               0.889              2.981             28.675
 Vibrational            103.781             26.031             18.882
 Vibration     1          0.598              1.967              4.104
 Vibration     2          0.625              1.880              2.441
 Vibration     3          0.638              1.839              2.124
 Vibration     4          0.671              1.739              1.635
 Vibration     5          0.700              1.651              1.354
 Vibration     6          0.746              1.523              1.059
 Vibration     7          0.756              1.497              1.011
 Vibration     8          0.770              1.460              0.946
 Vibration     9          0.804              1.372              0.811
 Vibration    10          0.899              1.153              0.557
 Vibration    11          0.967              1.015              0.436

 Optimization completed.
    -- Stationary point found.
 Normal termination of Gaussian 09 at Tue Jan 28 09:01:42 2020.
