 Gaussian 09, Revision D.01,
 Gaussian 09:  ES64L-G09RevD.01 24-Apr-2013

 -----------------------------
 # b3lyp 6-31G(2df,p) opt Freq
 -----------------------------

 -----
 titel
 -----
 Symbolic Z-matrix:
 Charge =  0 Multiplicity = 1

 SCF Done:  E(RB3LYP) =  -423.149751780     A.U. after   14 cycles
 Optimization completed.
    -- Stationary point found.
 Normal termination of Gaussian 09 at Tue Jan 28 00:04:02 2020.

 ----------------------------------------------------------------------
 #N Geom=AllCheck Guess=TCheck SCRF=Check GenChk RB3LYP/6-31G(2df,p) Fr
 eq
 ----------------------------------------------------------------------

 Structure from the checkpoint file:  "/scratch/puck/g09_4a537303-aca1-4b3a-bfff-63aed34d013b/Gau-82507.chk"
 -----
 titel
 -----
 Charge =  0 Multiplicity = 1

                         Standard orientation:
 ---------------------------------------------------------------------
 Center     Atomic      Atomic             Coordinates (Angstroms)
 Number     Number       Type             X           Y           Z
 ---------------------------------------------------------------------
      1          6           0        0.394589    2.347340   -0.110325
      2          6           0        0.902107    0.975318   -0.499184
      3          6           0        1.691925    0.202137    0.548452
      4          6           0        2.160618   -1.113692   -0.054546
      5          8           0        0.814841   -1.427897   -0.510240
      6          6           0        0.304369   -0.248125    0.135598
      7          6           0       -1.025613   -0.384652    0.820605
      8          6           0       -2.144088   -0.620737   -0.182159
      9          8           0       -3.181900   -0.010629   -0.194062
     10          1           0        0.141990    2.398854    0.953654
     11          1           0        1.157004    3.109810   -0.301238
     12          1           0       -0.502014    2.616371   -0.678042
     13          1           0        1.211273    0.873025   -1.538718
     14          1           0        2.044223    0.655131    1.466085
     15          1           0        2.878744   -1.066182   -0.881830
     16          1           0        2.495237   -1.850935    0.684091
     17          1           0       -0.989814   -1.253434    1.492883
     18          1           0       -1.269461    0.501131    1.411263
     19          1           0       -1.934147   -1.421092   -0.924372
 ---------------------------------------------------------------------

 SCF Done:  E(RB3LYP) =  -423.149751780     A.U. after    1 cycles

 The electronic state is 1-A.
 Alpha  occ. eigenvalues --  -19.14350 -19.13971 -10.27199 -10.25243 -10.24103
 Alpha  occ. eigenvalues --  -10.20218 -10.20140 -10.20103 -10.18851  -1.05724
 Alpha  occ. eigenvalues --   -1.04610  -0.84887  -0.77503  -0.72344  -0.68326
 Alpha  occ. eigenvalues --   -0.59452  -0.57385  -0.53537  -0.50675  -0.49995
 Alpha  occ. eigenvalues --   -0.46973  -0.45958  -0.43363  -0.42815  -0.41503
 Alpha  occ. eigenvalues --   -0.40044  -0.38944  -0.37177  -0.36758  -0.33912
 Alpha  occ. eigenvalues --   -0.32091  -0.28446  -0.24967  -0.23486
 Alpha virt. eigenvalues --   -0.02273   0.07458   0.08926   0.10291   0.11259
 Alpha virt. eigenvalues --    0.12819   0.13697   0.14210   0.14810   0.15901
 Alpha virt. eigenvalues --    0.16771   0.17897   0.18440   0.19807   0.21981

 Mulliken charges:
               1
     1  C   -0.430267
     2  C   -0.060959
     3  C   -0.212104
     4  C   -0.098484
     5  O   -0.328211
     6  C    0.454146
     7  C   -0.390477
     8  C    0.159578
     9  O   -0.239926
    10  H    0.119331
    11  H    0.125073
    12  H    0.134261
    13  H    0.089351
    14  H    0.100981
    15  H    0.107510
    16  H    0.110508
    17  H    0.130080
    18  H    0.129092
    19  H    0.100518
 Sum of Mulliken charges =   0.00000

 Dipole moment (field-independent basis, Debye):
    X=              2.9164    Y=              0.4064    Z=              1.2513  Tot=              3.1995
 Quadrupole moment (field-independent basis, Debye-Ang):
   XX=            -60.8355   YY=            -52.8427   ZZ=            -51.7574
   XY=              1.7877   XZ=             -0.4666   YZ=             -1.4764

  Exact polarizability:  87.630  -5.540  77.759   1.001  -0.218  64.068
 Approx polarizability: 123.224  -8.878 110.551   3.255   0.746  98.681

                      1                      2                      3
                      A                      A                      A
 Frequencies --     37.7780                55.7717               149.7643
 Red. masses --      5.1697                 3.2843                 2.5918
 Frc consts  --      0.0043                 0.0060                 0.0343
 IR Inten    --      2.9740                 3.9466                 4.8484

                      4                      5                      6
                      A                      A                      A
 Frequencies --    200.9618               239.4832               253.3117
 Red. masses --      1.4640                 1.6358                 2.8436
 Frc consts  --      0.0348                 0.0553                 0.1075
 IR Inten    --      0.3820                 0.3033                 0.8341

                      7                      8                      9
                      A                      A                      A
 Frequencies --    263.8376               379.5613               406.8505
 Red. masses --      2.2835                 3.0414                 3.7821
 Frc consts  --      0.0937                 0.2582                 0.3689
 IR Inten    --      0.1755                 6.5223                 3.9008

                     10                     11                     12
                      A                      A                      A
 Frequencies --    470.5566               492.4051               686.7797
 Red. masses --      2.5054                 3.6662                 2.3748
 Frc consts  --      0.3269                 0.5237                 0.6600
 IR Inten    --     16.3717                 3.0663                 1.5709

                     13                     14                     15
                      A                      A                      A
 Frequencies --    735.8437               813.5587               833.5881
 Red. masses --      3.3024                 2.0234                 2.7049
 Frc consts  --      1.0535                 0.7891                 1.1074
 IR Inten    --      3.4560                 4.6882                 7.5261

                     16                     17                     18
                      A                      A                      A
 Frequencies --    917.7911               944.8089               950.5806
 Red. masses --      1.2612                 2.1615                 2.7578
 Frc consts  --      0.6259                 1.1368                 1.4682
 IR Inten    --     10.1659                 0.4319                 8.0099

                     19                     20                     21
                      A                      A                      A
 Frequencies --    981.7228               987.8649              1018.1247
 Red. masses --      2.3550                 2.4606                 1.8013
 Frc consts  --      1.3373                 1.4148                 1.1001
 IR Inten    --     51.6046                39.4509                 5.4603

                     22                     23                     24
                      A                      A                      A
 Frequencies --   1056.9005              1076.8980              1097.8347
 Red. masses --      1.6959                 2.3057                 2.8066
 Frc consts  --      1.1161                 1.5755                 1.9930
 IR Inten    --      2.0599                20.5647                17.6750

                     25                     26                     27
                      A                      A                      A
 Frequencies --   1133.3626              1136.9036              1157.4270
 Red. masses --      1.8244                 1.7063                 1.6469
 Frc consts  --      1.3807                 1.2994                 1.2999
 IR Inten    --      6.3350                 2.5734                13.3929

                     28                     29                     30
                      A                      A                      A
 Frequencies --   1173.0770              1238.2636              1251.4098
 Red. masses --      1.3924                 1.4759                 1.6386
 Frc consts  --      1.1289                 1.3333                 1.5119
 IR Inten    --      6.0263                24.0959                 0.9592

                     31                     32                     33
                      A                      A                      A
 Frequencies --   1290.0268              1337.9378              1345.4287
 Red. masses --      1.3714                 1.5342                 1.8522
 Frc consts  --      1.3447                 1.6181                 1.9755
 IR Inten    --      5.2180                 7.7924                 6.3910

                     34                     35                     36
                      A                      A                      A
 Frequencies --   1417.9781              1422.3884              1440.7796
 Red. masses --      1.2735                 1.2078                 1.2543
 Frc consts  --      1.5086                 1.4398                 1.5340
 IR Inten    --      2.6973                 4.0671                 9.5353

                     37                     38                     39
                      A                      A                      A
 Frequencies --   1454.6395              1497.1744              1504.0614
 Red. masses --      2.1520                 1.0537                 1.1305
 Frc consts  --      2.6829                 1.3916                 1.5068
 IR Inten    --      7.6968                 4.4583                 7.7363

                     40                     41                     42
                      A                      A                      A
 Frequencies --   1518.6736              1832.0939              2903.4625
 Red. masses --      1.1274                 9.9277                 1.0838
 Frc consts  --      1.5320                19.6334                 5.3833
 IR Inten    --      0.8557               174.2448                73.6062

                     43                     44                     45
                      A                      A                      A
 Frequencies --   3019.4750              3022.6908              3033.6356
 Red. masses --      1.0660                 1.0548                 1.0354
 Frc consts  --      5.7264                 5.6782                 5.6142
 IR Inten    --     13.6665                84.5520                20.5741

                     46                     47                     48
                      A                      A                      A
 Frequencies --   3070.9946              3096.1222              3100.3758
 Red. masses --      1.1115                 1.0985                 1.1003
 Frc consts  --      6.1761                 6.2040                 6.2317
 IR Inten    --     35.5697                13.6121                12.7228

                     49                     50                     51
                      A                      A                      A
 Frequencies --   3115.1349              3118.8980              3196.7219
 Red. masses --      1.0918                 1.0939                 1.0937
 Frc consts  --      6.2423                 6.2695                 6.5853
 IR Inten    --     18.5498                19.7060                 9.2681

 - Thermochemistry -
 -------------------
 Temperature   298.150 Kelvin.  Pressure   1.00000 Atm.
 Atom     1 has atomic number  6 and mass  12.00000

 Molecular mass:   126.06808 amu.
 Principal axes and moments of inertia in atomic units:
                           1         2         3
     Eigenvalues --   704.312531443.390351914.79694
           X            0.99999   0.00413  -0.00289
           Y           -0.00415   0.99997  -0.00692
           Z            0.00286   0.00693   0.99997
 This molecule is an asymmetric top.
 Rotational symmetry number  1.
 Warning -- assumption of classical behavior for rotation
           may cause significant error
 Rotational temperatures (Kelvin)      0.12298     0.06001     0.04523
 Rotational constants (GHZ):           2.56242     1.25035     0.94252
 Zero-point vibrational energy     412004.1 (Joules/Mol)
                                   98.47135 (Kcal/Mol)
 Warning -- explicit consideration of  11 degrees of freedom as
           vibrations may cause significant error
 Vibrational temperatures:     54.35    80.24   215.48   289.14   344.56
          (Kelvin)            364.46   379.60   546.10   585.37   677.03
                              708.46   988.12  1058.71  1170.53  1199.35
                             1320.49  1359.37  1367.67  1412.48  1421.32
                             1464.85  1520.64  1549.41  1579.54  1630.65
                             1635.75  1665.28  1687.79  1781.58  1800.50
                             1856.06  1924.99  1935.77  2040.15  2046.50
                             2072.96  2092.90  2154.10  2164.01  2185.03
                             2635.97  4177.43  4344.35  4348.97  4364.72
                             4418.47  4454.62  4460.74  4481.98  4487.39
                             4599.36

 Zero-point correction=                           0.156924 (Hartree/Particle)
 Thermal correction to Energy=                    0.166081
 Thermal correction to Enthalpy=                  0.167025
 Thermal correction to Gibbs Free Energy=         0.121866
 Sum of electronic and zero-point Energies=           -422.992828
 Sum of electronic and thermal Energies=              -422.983671
 Sum of electronic and thermal Enthalpies=            -422.982727
 Sum of electronic and thermal Free Energies=         -423.027886

                     E (Thermal)             CV                S
                      KCal/Mol        Cal/Mol-Kelvin    Cal/Mol-Kelvin
 Total                  104.217             33.077             95.045
 Electronic               0.000              0.000              0.000
 Translational            0.889              2.981             40.409
 Rotational               0.889              2.981             29.055
 Vibrational            102.440             27.115             25.581
 Vibration     1          0.594              1.982              5.372
 Vibration     2          0.596              1.975              4.601
 Vibration     3          0.618              1.903              2.675
 Vibration     4          0.638              1.839              2.124
 Vibration     5          0.657              1.780              1.807
 Vibration     6          0.664              1.757              1.707
 Vibration     7          0.670              1.739              1.636
 Vibration     8          0.750              1.514              1.041
 Vibration     9          0.772              1.455              0.938
 Vibration    10          0.828              1.315              0.736
 Vibration    11          0.848              1.267              0.677

 Optimization completed.
    -- Stationary point found.
 Normal termination of Gaussian 09 at Tue Jan 28 00:42:33 2020.
