 Gaussian 09, Revision D.01,
 Gaussian 09:  ES64L-G09RevD.01 24-Apr-2013

 -----------------------------
 # b3lyp 6-31G(2df,p) opt Freq
 -----------------------------

 -----
 titel
 -----
 Symbolic Z-matrix:
 Charge =  0 Multiplicity = 1

 SCF Done:  E(RB3LYP) =  -423.210453997     A.U. after   14 cycles
 Optimization completed.
    -- Stationary point found.
 Normal termination of Gaussian 09 at Mon Jan 27 14:09:52 2020.

 ----------------------------------------------------------------------
 #N Geom=AllCheck Guess=TCheck SCRF=Check GenChk RB3LYP/6-31G(2df,p) Fr
 eq
 ----------------------------------------------------------------------

 Structure from the checkpoint file:  "/scratch/puck/g09_a6fe81bc-1668-4808-b1ac-4d11928f5016/Gau-31512.chk"
 -----
 titel
 -----
 Charge =  0 Multiplicity = 1

                         Standard orientation:
 ---------------------------------------------------------------------
 Center     Atomic      Atomic             Coordinates (Angstroms)
 Number     Number       Type             X           Y           Z
 ---------------------------------------------------------------------
      1          6           0       -2.449338   -1.113870   -0.187904
      2          6           0       -1.732263    0.188185    0.087234
      3          8           0       -2.300849    1.254396    0.144237
      4          6           0       -0.221037    0.119542    0.334290
      5          6           0        0.523492    1.347434   -0.199860
      6          6           0        2.007733    1.105772   -0.137987
      7          6           0        2.512178   -0.113156    0.036509
      8          6           0        1.635964   -1.331034    0.132392
      9          8           0        0.288911   -1.076892   -0.230357
     10          1           0       -2.241504   -1.840094    0.604795
     11          1           0       -3.521201   -0.929582   -0.266194
     12          1           0       -2.067448   -1.556907   -1.112712
     13          1           0       -0.098014    0.086771    1.433987
     14          1           0        0.204854    1.558668   -1.229286
     15          1           0        0.239077    2.225471    0.387915
     16          1           0        2.664394    1.966153   -0.233990
     17          1           0        3.583197   -0.279063    0.114561
     18          1           0        1.987605   -2.113347   -0.550668
     19          1           0        1.684172   -1.755339    1.152510
 ---------------------------------------------------------------------

 SCF Done:  E(RB3LYP) =  -423.210453997     A.U. after    1 cycles

 The electronic state is 1-A.
 Alpha  occ. eigenvalues --  -19.14954 -19.12882 -10.26886 -10.24081 -10.23906
 Alpha  occ. eigenvalues --  -10.18877 -10.18852 -10.18651 -10.18277  -1.04981
 Alpha  occ. eigenvalues --   -1.03570  -0.80398  -0.78251  -0.73491  -0.65809
 Alpha  occ. eigenvalues --   -0.65012  -0.54697  -0.53287  -0.49740  -0.48718
 Alpha  occ. eigenvalues --   -0.46589  -0.44015  -0.43704  -0.42310  -0.41230
 Alpha  occ. eigenvalues --   -0.40029  -0.38731  -0.38371  -0.35946  -0.34874
 Alpha  occ. eigenvalues --   -0.32034  -0.26376  -0.25082  -0.24328
 Alpha virt. eigenvalues --   -0.01348   0.01787   0.08842   0.11796   0.12653
 Alpha virt. eigenvalues --    0.13187   0.13641   0.14738   0.15937   0.16514
 Alpha virt. eigenvalues --    0.17806   0.18577   0.19256   0.19755   0.22898

 Mulliken charges:
               1
     1  C   -0.472112
     2  C    0.355275
     3  O   -0.304003
     4  C    0.016918
     5  C   -0.247146
     6  C   -0.075842
     7  C   -0.065563
     8  C   -0.118640
     9  O   -0.265511
    10  H    0.140266
    11  H    0.134161
    12  H    0.155206
    13  H    0.093385
    14  H    0.119864
    15  H    0.126811
    16  H    0.094028
    17  H    0.093912
    18  H    0.120125
    19  H    0.098867
 Sum of Mulliken charges =   0.00000

 Dipole moment (field-independent basis, Debye):
    X=              1.9981    Y=             -1.5244    Z=              0.4225  Tot=              2.5484
 Quadrupole moment (field-independent basis, Debye-Ang):
   XX=            -53.8077   YY=            -53.7138   ZZ=            -52.6179
   XY=              4.4248   XZ=              0.6581   YZ=             -1.0536

  Exact polarizability:  90.184  -4.755  86.429   1.549  -2.049  55.200
 Approx polarizability: 113.951 -16.862 137.654   2.995  -2.896  88.085

                      1                      2                      3
                      A                      A                      A
 Frequencies --     29.4046               114.3281               152.3942
 Red. masses --      3.9293                 2.9620                 1.1172
 Frc consts  --      0.0020                 0.0228                 0.0153
 IR Inten    --      4.1352                 0.2563                 0.2525

                      4                      5                      6
                      A                      A                      A
 Frequencies --    183.4294               200.1048               316.6745
 Red. masses --      2.7364                 2.6439                 4.4147
 Frc consts  --      0.0542                 0.0624                 0.2608
 IR Inten    --      2.4292                 6.4115                 1.4240

                      7                      8                      9
                      A                      A                      A
 Frequencies --    387.7789               412.0812               443.6954
 Red. masses --      2.4125                 2.6622                 4.3124
 Frc consts  --      0.2137                 0.2664                 0.5002
 IR Inten    --      0.0476                 3.9088                 0.4238

                     10                     11                     12
                      A                      A                      A
 Frequencies --    520.6334               550.7075               600.9892
 Red. masses --      5.5246                 3.6763                 2.5190
 Frc consts  --      0.8823                 0.6569                 0.5361
 IR Inten    --      8.1840                10.6328                 5.8617

                     13                     14                     15
                      A                      A                      A
 Frequencies --    671.2230               744.7375               870.0809
 Red. masses --      1.2263                 3.1113                 3.7917
 Frc consts  --      0.3255                 1.0167                 1.6912
 IR Inten    --     20.8333                 8.1553                12.0687

                     16                     17                     18
                      A                      A                      A
 Frequencies --    879.3930               927.1701               940.5446
 Red. masses --      2.3165                 2.8992                 1.9329
 Frc consts  --      1.0555                 1.4684                 1.0075
 IR Inten    --      5.7962                 5.3939                14.4945

                     19                     20                     21
                      A                      A                      A
 Frequencies --    978.5262               994.8235              1020.3352
 Red. masses --      1.9947                 1.1876                 2.0840
 Frc consts  --      1.1253                 0.6925                 1.2783
 IR Inten    --      1.0186                 1.8089                10.5441

                     22                     23                     24
                      A                      A                      A
 Frequencies --   1045.5456              1066.9310              1099.2248
 Red. masses --      1.9182                 2.2090                 2.7686
 Frc consts  --      1.2355                 1.4816                 1.9710
 IR Inten    --      6.7104                 3.1786                11.9985

                     25                     26                     27
                      A                      A                      A
 Frequencies --   1120.4161              1193.3215              1209.0611
 Red. masses --      2.6842                 1.4618                 1.3527
 Frc consts  --      1.9853                 1.2265                 1.1651
 IR Inten    --     89.8043                40.8052                28.3057

                     28                     29                     30
                      A                      A                      A
 Frequencies --   1232.6853              1260.4001              1302.9631
 Red. masses --      1.7438                 1.1288                 1.5680
 Frc consts  --      1.5612                 1.0565                 1.5684
 IR Inten    --     31.6810                 6.3803                14.1148

                     31                     32                     33
                      A                      A                      A
 Frequencies --   1355.9339              1368.6284              1382.2419
 Red. masses --      1.2251                 1.6284                 1.4212
 Frc consts  --      1.3271                 1.7971                 1.5999
 IR Inten    --      6.3472                 7.1518                38.2624

                     34                     35                     36
                      A                      A                      A
 Frequencies --   1398.2330              1411.0766              1454.7883
 Red. masses --      1.3450                 1.6973                 1.0556
 Frc consts  --      1.5493                 1.9912                 1.3163
 IR Inten    --      2.7387                 4.6921                16.5888

                     37                     38                     39
                      A                      A                      A
 Frequencies --   1465.8588              1468.6798              1489.3796
 Red. masses --      1.0533                 1.0893                 1.0914
 Frc consts  --      1.3335                 1.3844                 1.4264
 IR Inten    --      6.1467                 4.8793                 2.1277

                     40                     41                     42
                      A                      A                      A
 Frequencies --   1726.4918              1812.1576              2923.2801
 Red. masses --      6.6038                11.2768                 1.0793
 Frc consts  --     11.5978                21.8187                 5.4340
 IR Inten    --      4.4773               134.3472                26.9280

                     43                     44                     45
                      A                      A                      A
 Frequencies --   2934.8116              3026.1334              3047.5264
 Red. masses --      1.0729                 1.0683                 1.0353
 Frc consts  --      5.4445                 5.7642                 5.6653
 IR Inten    --     70.4711                18.1963                 1.4861

                     46                     47                     48
                      A                      A                      A
 Frequencies --   3051.4252              3083.9718              3110.8498
 Red. masses --      1.0869                 1.0924                 1.0967
 Frc consts  --      5.9629                 6.1216                 6.2532
 IR Inten    --     29.4047                10.0336                 4.3605

                     49                     50                     51
                      A                      A                      A
 Frequencies --   3155.1658              3157.9937              3177.7580
 Red. masses --      1.0837                 1.1046                 1.0981
 Frc consts  --      6.3565                 6.4908                 6.5331
 IR Inten    --      6.4922                12.3704                28.0207

 - Thermochemistry -
 -------------------
 Temperature   298.150 Kelvin.  Pressure   1.00000 Atm.
 Atom     1 has atomic number  6 and mass  12.00000

 Molecular mass:   126.06808 amu.
 Principal axes and moments of inertia in atomic units:
                           1         2         3
     Eigenvalues --   548.552321479.664141948.99490
           X            0.99946   0.03235   0.00540
           Y           -0.03229   0.99943  -0.01033
           Z           -0.00573   0.01015   0.99993
 This molecule is an asymmetric top.
 Rotational symmetry number  1.
 Warning -- assumption of classical behavior for rotation
           may cause significant error
 Rotational temperatures (Kelvin)      0.15790     0.05854     0.04444
 Rotational constants (GHZ):           3.29001     1.21970     0.92599
 Zero-point vibrational energy     415534.8 (Joules/Mol)
                                   99.31519 (Kcal/Mol)
 Warning -- explicit consideration of  12 degrees of freedom as
           vibrations may cause significant error
 Vibrational temperatures:     42.31   164.49   219.26   263.91   287.91
          (Kelvin)            455.62   557.93   592.89   638.38   749.07
                              792.34   864.69   965.74  1071.51  1251.85
                             1265.25  1333.99  1353.23  1407.88  1431.33
                             1468.03  1504.30  1535.07  1581.54  1612.03
                             1716.92  1739.57  1773.56  1813.43  1874.67
                             1950.88  1969.15  1988.74  2011.74  2030.22
                             2093.11  2109.04  2113.10  2142.88  2484.03
                             2607.29  4205.94  4222.53  4353.93  4384.71
                             4390.31  4437.14  4475.81  4539.57  4543.64
                             4572.08

 Zero-point correction=                           0.158269 (Hartree/Particle)
 Thermal correction to Energy=                    0.167112
 Thermal correction to Enthalpy=                  0.168056
 Thermal correction to Gibbs Free Energy=         0.123822
 Sum of electronic and zero-point Energies=           -423.052185
 Sum of electronic and thermal Energies=              -423.043342
 Sum of electronic and thermal Enthalpies=            -423.042398
 Sum of electronic and thermal Free Energies=         -423.086632

                     E (Thermal)             CV                S
                      KCal/Mol        Cal/Mol-Kelvin    Cal/Mol-Kelvin
 Total                  104.864             32.612             93.099
 Electronic               0.000              0.000              0.000
 Translational            0.889              2.981             40.409
 Rotational               0.889              2.981             28.849
 Vibrational            103.087             26.650             23.841
 Vibration     1          0.593              1.984              5.869
 Vibration     2          0.607              1.938              3.194
 Vibration     3          0.619              1.900              2.642
 Vibration     4          0.631              1.862              2.293
 Vibration     5          0.638              1.840              2.132
 Vibration     6          0.704              1.642              1.327
 Vibration     7          0.756              1.496              1.009
 Vibration     8          0.776              1.444              0.919
 Vibration     9          0.803              1.375              0.815
 Vibration    10          0.876              1.204              0.608
 Vibration    11          0.906              1.138              0.543
 Vibration    12          0.959              1.030              0.448

 Optimization completed.
    -- Stationary point found.
 Normal termination of Gaussian 09 at Mon Jan 27 14:58:40 2020.
