 Gaussian 09, Revision D.01,
 Gaussian 09:  ES64L-G09RevD.01 24-Apr-2013

 -----------------------------
 # b3lyp 6-31G(2df,p) opt Freq
 -----------------------------

 -----
 titel
 -----
 Symbolic Z-matrix:
 Charge =  0 Multiplicity = 1

 SCF Done:  E(RB3LYP) =  -423.174440866     A.U. after   14 cycles
 Optimization completed.
    -- Stationary point found.
 Normal termination of Gaussian 09 at Mon Jan 27 16:01:35 2020.

 ----------------------------------------------------------------------
 #N Geom=AllCheck Guess=TCheck SCRF=Check GenChk RB3LYP/6-31G(2df,p) Fr
 eq
 ----------------------------------------------------------------------

 Structure from the checkpoint file:  "/scratch/puck/g09_a68440d3-2073-4008-872d-a17408f93a0e/Gau-62244.chk"
 -----
 titel
 -----
 Charge =  0 Multiplicity = 1

                         Standard orientation:
 ---------------------------------------------------------------------
 Center     Atomic      Atomic             Coordinates (Angstroms)
 Number     Number       Type             X           Y           Z
 ---------------------------------------------------------------------
      1          6           0        1.082741   -1.473484   -1.026327
      2          6           0        1.014543   -0.313863   -0.045072
      3          6           0        2.354433    0.388512    0.130662
      4          6           0        0.151131   -0.317084    1.183872
      5          6           0       -1.160127   -1.079361    0.963403
      6          6           0       -1.486341   -0.062417   -0.166406
      7          8           0       -2.484521    0.186600   -0.780614
      8          6           0       -0.174674    0.658516    0.009475
      9          8           0       -0.022746    2.025596   -0.053031
     10          1           0        1.453836   -1.127417   -1.997528
     11          1           0        1.777218   -2.240637   -0.664602
     12          1           0        0.116409   -1.950891   -1.198441
     13          1           0        2.295762    1.207727    0.849875
     14          1           0        3.106819   -0.327016    0.479212
     15          1           0        2.711719    0.800194   -0.820636
     16          1           0        0.541815   -0.035848    2.153611
     17          1           0       -1.102466   -2.138342    0.701087
     18          1           0       -1.875981   -0.953116    1.781393
     19          1           0        0.342761    2.262862   -0.912454
 ---------------------------------------------------------------------

 SCF Done:  E(RB3LYP) =  -423.174440866     A.U. after    1 cycles

 The electronic state is 1-A.
 Alpha  occ. eigenvalues --  -19.16227 -19.12820 -10.26411 -10.24763 -10.21951
 Alpha  occ. eigenvalues --  -10.20757 -10.19412 -10.18927 -10.18712  -1.05267
 Alpha  occ. eigenvalues --   -1.03379  -0.90242  -0.77654  -0.70691  -0.68543
 Alpha  occ. eigenvalues --   -0.63375  -0.57100  -0.54596  -0.48612  -0.46857
 Alpha  occ. eigenvalues --   -0.46409  -0.45827  -0.42765  -0.40640  -0.40090
 Alpha  occ. eigenvalues --   -0.40048  -0.39385  -0.37534  -0.36622  -0.35057
 Alpha  occ. eigenvalues --   -0.33388  -0.28510  -0.26395  -0.23208
 Alpha virt. eigenvalues --   -0.01177   0.06072   0.09672   0.09938   0.11435
 Alpha virt. eigenvalues --    0.12487   0.13943   0.14271   0.16375   0.17434
 Alpha virt. eigenvalues --    0.18041   0.18304   0.20331   0.20471   0.21520

 Mulliken charges:
               1
     1  C   -0.460400
     2  C    0.229826
     3  C   -0.456439
     4  C   -0.152687
     5  C   -0.374735
     6  C    0.345033
     7  O   -0.319370
     8  C    0.235986
     9  O   -0.445539
    10  H    0.119445
    11  H    0.120547
    12  H    0.130763
    13  H    0.135324
    14  H    0.123227
    15  H    0.112835
    16  H    0.105886
    17  H    0.119876
    18  H    0.133587
    19  H    0.296835
 Sum of Mulliken charges =   0.00000

 Dipole moment (field-independent basis, Debye):
    X=              3.3372    Y=             -0.9350    Z=              0.3917  Tot=              3.4877
 Quadrupole moment (field-independent basis, Debye-Ang):
   XX=            -59.7402   YY=            -52.9924   ZZ=            -50.8915
   XY=              2.6922   XZ=             -4.6114   YZ=             -2.6254

  Exact polarizability:  87.675   1.324  72.880  -0.226  -3.636  69.615
 Approx polarizability: 125.354  -2.167 108.608   7.150  -8.823 110.396

                      1                      2                      3
                      A                      A                      A
 Frequencies --     99.7148               160.5341               176.2453
 Red. masses --      5.2368                 1.4107                 1.1136
 Frc consts  --      0.0307                 0.0214                 0.0204
 IR Inten    --     13.0458                57.4251                 2.4108

                      4                      5                      6
                      A                      A                      A
 Frequencies --    191.1239               214.9196               277.2817
 Red. masses --      1.4672                 1.3211                 2.4407
 Frc consts  --      0.0316                 0.0360                 0.1106
 IR Inten    --      0.2001                32.4785                 7.1493

                      7                      8                      9
                      A                      A                      A
 Frequencies --    281.7548               291.9060               367.7134
 Red. masses --      6.1249                 2.7956                 2.2850
 Frc consts  --      0.2865                 0.1403                 0.1820
 IR Inten    --      2.2872                 3.1299                 0.5914

                     10                     11                     12
                      A                      A                      A
 Frequencies --    393.4183               478.5456               529.1569
 Red. masses --      3.0644                 2.8811                 3.7630
 Frc consts  --      0.2795                 0.3887                 0.6208
 IR Inten    --      3.4674                 0.4378                 5.6993

                     13                     14                     15
                      A                      A                      A
 Frequencies --    566.0261               652.6993               681.4684
 Red. masses --      2.8932                 3.2154                 4.2725
 Frc consts  --      0.5461                 0.8071                 1.1690
 IR Inten    --      2.9043                 3.7181                16.5043

                     16                     17                     18
                      A                      A                      A
 Frequencies --    705.2232               838.9986               893.8928
 Red. masses --      4.1775                 2.8153                 2.9895
 Frc consts  --      1.2241                 1.1676                 1.4074
 IR Inten    --      0.2304                 8.4977                18.4423

                     19                     20                     21
                      A                      A                      A
 Frequencies --    943.9609               965.0766               970.5614
 Red. masses --      1.6729                 1.8732                 1.8613
 Frc consts  --      0.8783                 1.0279                 1.0330
 IR Inten    --      2.0313                 6.5684                19.1042

                     22                     23                     24
                      A                      A                      A
 Frequencies --   1007.5362              1018.3079              1030.8421
 Red. masses --      1.7806                 1.9658                 1.5508
 Frc consts  --      1.0650                 1.2010                 0.9709
 IR Inten    --     10.1978                17.2873                 4.2730

                     25                     26                     27
                      A                      A                      A
 Frequencies --   1066.9990              1128.6380              1142.5952
 Red. masses --      1.8369                 1.7862                 1.8262
 Frc consts  --      1.2321                 1.3406                 1.4047
 IR Inten    --      6.1674                18.9745                26.3552

                     28                     29                     30
                      A                      A                      A
 Frequencies --   1202.8848              1225.6038              1264.3904
 Red. masses --      1.9632                 1.6516                 1.8218
 Frc consts  --      1.6737                 1.4617                 1.7160
 IR Inten    --     21.1539                10.4514                53.2225

                     31                     32                     33
                      A                      A                      A
 Frequencies --   1279.5638              1346.8091              1402.1241
 Red. masses --      2.3023                 2.6164                 1.4986
 Frc consts  --      2.2210                 2.7962                 1.7358
 IR Inten    --     45.1684                 2.8632                 6.7051

                     34                     35                     36
                      A                      A                      A
 Frequencies --   1423.4703              1430.2534              1466.3042
 Red. masses --      1.6696                 1.4602                 1.1654
 Frc consts  --      1.9933                 1.7599                 1.4763
 IR Inten    --      4.1374                 1.8867                 8.7188

                     37                     38                     39
                      A                      A                      A
 Frequencies --   1482.3424              1493.5956              1502.6741
 Red. masses --      1.0502                 1.0657                 1.0559
 Frc consts  --      1.3597                 1.4007                 1.4047
 IR Inten    --      1.6765                 7.1903                 5.2258

                     40                     41                     42
                      A                      A                      A
 Frequencies --   1512.7756              1875.9194              3028.3945
 Red. masses --      1.1170                12.8478                 1.0389
 Frc consts  --      1.5061                26.6383                 5.6135
 IR Inten    --      1.8619               344.0040                14.1042

                     43                     44                     45
                      A                      A                      A
 Frequencies --   3032.9410              3061.2522              3085.0465
 Red. masses --      1.0390                 1.0580                 1.1004
 Frc consts  --      5.6312                 5.8418                 6.1705
 IR Inten    --     43.7837                16.5985                 0.6468

                     46                     47                     48
                      A                      A                      A
 Frequencies --   3089.1773              3112.3568              3127.8113
 Red. masses --      1.0996                 1.1064                 1.0973
 Frc consts  --      6.1827                 6.3146                 6.3252
 IR Inten    --     38.8925                13.3041                17.4971

                     49                     50                     51
                      A                      A                      A
 Frequencies --   3130.8451              3198.5392              3797.6750
 Red. masses --      1.0994                 1.0930                 1.0664
 Frc consts  --      6.3492                 6.5882                 9.0616
 IR Inten    --     13.1074                 5.2874                30.7009

 - Thermochemistry -
 -------------------
 Temperature   298.150 Kelvin.  Pressure   1.00000 Atm.
 Atom     1 has atomic number  6 and mass  12.00000

 Molecular mass:   126.06808 amu.
 Principal axes and moments of inertia in atomic units:
                           1         2         3
     Eigenvalues --   735.852531196.368221450.07619
           X            0.99931   0.02094  -0.03079
           Y           -0.02058   0.99972   0.01196
           Z            0.03103  -0.01132   0.99945
 This molecule is an asymmetric top.
 Rotational symmetry number  1.
 Warning -- assumption of classical behavior for rotation
           may cause significant error
 Rotational temperatures (Kelvin)      0.11771     0.07240     0.05973
 Rotational constants (GHZ):           2.45259     1.50852     1.24458
 Zero-point vibrational energy     410605.6 (Joules/Mol)
                                   98.13708 (Kcal/Mol)
 Warning -- explicit consideration of  13 degrees of freedom as
           vibrations may cause significant error
 Vibrational temperatures:    143.47   230.97   253.58   274.98   309.22
          (Kelvin)            398.95   405.38   419.99   529.06   566.04
                              688.52   761.34   814.38   939.09   980.48
                             1014.66  1207.13  1286.11  1358.15  1388.53
                             1396.42  1449.62  1465.12  1483.15  1535.17
                             1623.86  1643.94  1730.68  1763.37  1819.17
                             1841.00  1937.76  2017.34  2048.05  2057.81
                             2109.68  2132.76  2148.95  2162.01  2176.54
                             2699.03  4357.18  4363.72  4404.45  4438.69
                             4444.63  4477.98  4500.22  4504.58  4601.98
                             5464.00

 Zero-point correction=                           0.156391 (Hartree/Particle)
 Thermal correction to Energy=                    0.165804
 Thermal correction to Enthalpy=                  0.166749
 Thermal correction to Gibbs Free Energy=         0.122835
 Sum of electronic and zero-point Energies=           -423.018049
 Sum of electronic and thermal Energies=              -423.008636
 Sum of electronic and thermal Enthalpies=            -423.007692
 Sum of electronic and thermal Free Energies=         -423.051606

                     E (Thermal)             CV                S
                      KCal/Mol        Cal/Mol-Kelvin    Cal/Mol-Kelvin
 Total                  104.044             35.471             92.424
 Electronic               0.000              0.000              0.000
 Translational            0.889              2.981             40.409
 Rotational               0.889              2.981             28.636
 Vibrational            102.266             29.509             23.379
 Vibration     1          0.604              1.949              3.460
 Vibration     2          0.622              1.891              2.543
 Vibration     3          0.628              1.872              2.368
 Vibration     4          0.634              1.852              2.217
 Vibration     5          0.645              1.818              2.001
 Vibration     6          0.678              1.715              1.550
 Vibration     7          0.681              1.707              1.523
 Vibration     8          0.687              1.689              1.463
 Vibration     9          0.740              1.539              1.089
 Vibration    10          0.761              1.484              0.987
 Vibration    11          0.835              1.298              0.714
 Vibration    12          0.884              1.185              0.589
 Vibration    13          0.922              1.105              0.512

 Optimization completed.
    -- Stationary point found.
 Normal termination of Gaussian 09 at Mon Jan 27 16:48:33 2020.
