 Gaussian 09, Revision D.01,
 Gaussian 09:  ES64L-G09RevD.01 24-Apr-2013

 -----------------------------
 # b3lyp 6-31G(2df,p) opt Freq
 -----------------------------

 -----
 titel
 -----
 Symbolic Z-matrix:
 Charge =  0 Multiplicity = 1

 SCF Done:  E(RB3LYP) =  -423.122007495     A.U. after   14 cycles
 Optimization completed.
    -- Stationary point found.
 Normal termination of Gaussian 09 at Tue Jan 28 14:25:01 2020.

 ----------------------------------------------------------------------
 #N Geom=AllCheck Guess=TCheck SCRF=Check GenChk RB3LYP/6-31G(2df,p) Fr
 eq
 ----------------------------------------------------------------------

 Structure from the checkpoint file:  "/scratch/puck/g09_7d6ba704-9568-4f45-8318-1f27b559729b/Gau-163940.chk"
 -----
 titel
 -----
 Charge =  0 Multiplicity = 1

                         Standard orientation:
 ---------------------------------------------------------------------
 Center     Atomic      Atomic             Coordinates (Angstroms)
 Number     Number       Type             X           Y           Z
 ---------------------------------------------------------------------
      1          8           0        3.557010   -0.698738    0.261423
      2          6           0        2.453307   -0.138098   -0.433729
      3          6           0        1.195028   -0.456897    0.365987
      4          6           0       -0.057396    0.089936   -0.285269
      5          8           0       -0.082296    1.536845   -0.344003
      6          6           0       -1.423471    1.584619    0.172749
      7          6           0       -1.384546    0.073763    0.532118
      8          6           0       -2.466008   -0.779431    0.093063
      9          6           0       -3.360575   -1.484529   -0.292453
     10          1           0        4.361721   -0.442015   -0.197932
     11          1           0        2.550853    0.952336   -0.536447
     12          1           0        2.364657   -0.559505   -1.448902
     13          1           0        1.098707   -1.545104    0.468405
     14          1           0        1.299809   -0.038341    1.373377
     15          1           0       -0.196126   -0.335913   -1.289518
     16          1           0       -1.522453    2.284500    1.008672
     17          1           0       -2.159434    1.829937   -0.602658
     18          1           0       -1.181431   -0.077868    1.596592
     19          1           0       -4.152053   -2.109055   -0.625752
 ---------------------------------------------------------------------

 SCF Done:  E(RB3LYP) =  -423.122007496     A.U. after    1 cycles

 The electronic state is 1-A.
 Alpha  occ. eigenvalues --  -19.13709 -19.13259 -10.24262 -10.23853 -10.22641
 Alpha  occ. eigenvalues --  -10.21827 -10.18566 -10.18281 -10.17721  -1.04446
 Alpha  occ. eigenvalues --   -1.01344  -0.79680  -0.77517  -0.71874  -0.67844
 Alpha  occ. eigenvalues --   -0.61434  -0.57430  -0.54154  -0.51687  -0.49851
 Alpha  occ. eigenvalues --   -0.47649  -0.47351  -0.44482  -0.41134  -0.40360
 Alpha  occ. eigenvalues --   -0.38564  -0.36452  -0.34706  -0.33431  -0.32037
 Alpha  occ. eigenvalues --   -0.26765  -0.26521  -0.26489  -0.25313
 Alpha virt. eigenvalues --    0.03705   0.04477   0.08010   0.08604   0.11028
 Alpha virt. eigenvalues --    0.11503   0.12548   0.13316   0.14879   0.16023
 Alpha virt. eigenvalues --    0.16784   0.18757   0.19273   0.19951   0.20844

 Mulliken charges:
               1
     1  O   -0.421818
     2  C   -0.077776
     3  C   -0.201865
     4  C    0.146317
     5  O   -0.295537
     6  C   -0.078319
     7  C   -0.253582
     8  C    0.320675
     9  C   -0.454992
    10  H    0.286438
    11  H    0.109414
    12  H    0.084570
    13  H    0.113682
    14  H    0.108151
    15  H    0.081353
    16  H    0.112442
    17  H    0.109805
    18  H    0.111334
    19  H    0.199707
 Sum of Mulliken charges =   0.00000

 Dipole moment (field-independent basis, Debye):
    X=             -0.2326    Y=             -0.0406    Z=             -0.5067  Tot=              0.5590
 Quadrupole moment (field-independent basis, Debye-Ang):
   XX=            -46.4260   YY=            -54.8594   ZZ=            -52.7348
   XY=              2.4218   XZ=             -3.5581   YZ=              3.0333

  Exact polarizability:  99.588   8.976  74.839   3.820   4.572  61.700
 Approx polarizability: 127.871  20.080 112.344   9.895   8.826  95.406

                      1                      2                      3
                      A                      A                      A
 Frequencies --     56.3745                88.8760               110.6987
 Red. masses --      4.6134                 2.0836                 3.6631
 Frc consts  --      0.0086                 0.0097                 0.0264
 IR Inten    --      0.2087                 3.9592                 6.4359

                      4                      5                      6
                      A                      A                      A
 Frequencies --    124.0693               154.4174               226.8927
 Red. masses --      3.6255                 3.4692                 3.2690
 Frc consts  --      0.0329                 0.0487                 0.0992
 IR Inten    --      3.7059                 1.9041                 1.4834

                      7                      8                      9
                      A                      A                      A
 Frequencies --    261.0985               330.7485               355.4236
 Red. masses --      1.0954                 5.3536                 3.6972
 Frc consts  --      0.0440                 0.3451                 0.2752
 IR Inten    --    101.7209                 0.3477                 5.9230

                     10                     11                     12
                      A                      A                      A
 Frequencies --    442.0431               513.3656               576.3008
 Red. masses --      3.8751                 4.4823                 3.6963
 Frc consts  --      0.4461                 0.6960                 0.7233
 IR Inten    --      7.6456                 3.8589                14.5972

                     13                     14                     15
                      A                      A                      A
 Frequencies --    622.3028               637.1844               675.0227
 Red. masses --      1.2577                 1.2158                 3.0018
 Frc consts  --      0.2870                 0.2908                 0.8059
 IR Inten    --     40.0689                43.6656                 6.2463

                     16                     17                     18
                      A                      A                      A
 Frequencies --    795.2149               875.4315               913.4315
 Red. masses --      1.3440                 1.9186                 2.3739
 Frc consts  --      0.5008                 0.8663                 1.1670
 IR Inten    --      4.4982                 7.8744                21.7739

                     19                     20                     21
                      A                      A                      A
 Frequencies --    982.9657              1011.6120              1018.7640
 Red. masses --      3.5002                 3.3894                 4.7102
 Frc consts  --      1.9926                 2.0436                 2.8803
 IR Inten    --      2.2894                 7.1891               103.4638

                     22                     23                     24
                      A                      A                      A
 Frequencies --   1057.3567              1076.6463              1085.2125
 Red. masses --      2.3534                 2.9074                 4.1838
 Frc consts  --      1.5502                 1.9857                 2.9031
 IR Inten    --     28.1827                26.8157                61.7142

                     25                     26                     27
                      A                      A                      A
 Frequencies --   1121.4118              1139.5766              1168.8548
 Red. masses --      2.6674                 1.9667                 1.1516
 Frc consts  --      1.9764                 1.5048                 0.9270
 IR Inten    --      7.7823                 2.9367                 2.5174

                     28                     29                     30
                      A                      A                      A
 Frequencies --   1205.9861              1221.3034              1252.3169
 Red. masses --      1.2800                 1.1955                 1.2503
 Frc consts  --      1.0968                 1.0506                 1.1553
 IR Inten    --      1.5915                 4.0729                25.9655

                     31                     32                     33
                      A                      A                      A
 Frequencies --   1277.9892              1313.1659              1316.3772
 Red. masses --      1.2526                 1.1248                 1.2987
 Frc consts  --      1.2054                 1.1428                 1.3259
 IR Inten    --     17.0092                 0.2266                 7.5077

                     34                     35                     36
                      A                      A                      A
 Frequencies --   1340.4145              1370.2185              1409.7866
 Red. masses --      1.4183                 1.4154                 1.5952
 Frc consts  --      1.5014                 1.5657                 1.8680
 IR Inten    --     16.0492                 2.3795                23.2439

                     37                     38                     39
                      A                      A                      A
 Frequencies --   1462.2267              1478.3870              1525.0645
 Red. masses --      1.4529                 1.1021                 1.1038
 Frc consts  --      1.8303                 1.4193                 1.5125
 IR Inten    --      8.4400                 2.6210                 0.8457

                     40                     41                     42
                      A                      A                      A
 Frequencies --   1529.9776              2237.0011              2964.0346
 Red. masses --      1.0858                 5.9712                 1.0641
 Frc consts  --      1.4975                17.6053                 5.5082
 IR Inten    --      3.3569                 3.2627                48.2344

                     43                     44                     45
                      A                      A                      A
 Frequencies --   3000.2895              3013.7870              3024.0298
 Red. masses --      1.0828                 1.0953                 1.0583
 Frc consts  --      5.7430                 5.8618                 5.7020
 IR Inten    --     41.2971                30.7348                59.7652

                     46                     47                     48
                      A                      A                      A
 Frequencies --   3033.7742              3059.7036              3081.3472
 Red. masses --      1.0593                 1.0869                 1.1066
 Frc consts  --      5.7441                 5.9949                 6.1906
 IR Inten    --     17.0172                 4.6593                12.9599

                     49                     50                     51
                      A                      A                      A
 Frequencies --   3083.8424              3503.6919              3831.4990
 Red. masses --      1.1039                 1.1615                 1.0664
 Frc consts  --      6.1854                 8.4006                 9.2235
 IR Inten    --     66.3028                73.8969                21.5014

 - Thermochemistry -
 -------------------
 Temperature   298.150 Kelvin.  Pressure   1.00000 Atm.
 Atom     1 has atomic number  8 and mass  15.99491

 Molecular mass:   126.06808 amu.
 Principal axes and moments of inertia in atomic units:
                           1         2         3
     Eigenvalues --   545.374942253.516322632.87760
           X            0.99999  -0.00215  -0.00450
           Y            0.00226   0.99974   0.02282
           Z            0.00445  -0.02283   0.99973
 This molecule is an asymmetric top.
 Rotational symmetry number  1.
 Warning -- assumption of classical behavior for rotation
           may cause significant error
 Rotational temperatures (Kelvin)      0.15882     0.03843     0.03290
 Rotational constants (GHZ):           3.30918     0.80086     0.68546
 Zero-point vibrational energy     412457.5 (Joules/Mol)
                                   98.57971 (Kcal/Mol)
 Warning -- explicit consideration of  12 degrees of freedom as
           vibrations may cause significant error
 Vibrational temperatures:     81.11   127.87   159.27   178.51   222.17
          (Kelvin)            326.45   375.66   475.87   511.37   636.00
                              738.62   829.17   895.35   916.77   971.21
                             1144.14  1259.55  1314.22  1414.27  1455.48
                             1465.77  1521.30  1549.05  1561.38  1613.46
                             1639.59  1681.72  1735.14  1757.18  1801.80
                             1838.74  1889.35  1893.97  1928.56  1971.44
                             2028.37  2103.82  2127.07  2194.22  2201.29
                             3218.54  4264.58  4316.74  4336.16  4350.90
                             4364.92  4402.23  4433.37  4436.96  5041.02
                             5512.67

 Zero-point correction=                           0.157097 (Hartree/Particle)
 Thermal correction to Energy=                    0.166916
 Thermal correction to Enthalpy=                  0.167860
 Thermal correction to Gibbs Free Energy=         0.121478
 Sum of electronic and zero-point Energies=           -422.964911
 Sum of electronic and thermal Energies=              -422.955092
 Sum of electronic and thermal Enthalpies=            -422.954148
 Sum of electronic and thermal Free Energies=         -423.000530

                     E (Thermal)             CV                S
                      KCal/Mol        Cal/Mol-Kelvin    Cal/Mol-Kelvin
 Total                  104.741             34.986             97.619
 Electronic               0.000              0.000              0.000
 Translational            0.889              2.981             40.409
 Rotational               0.889              2.981             29.560
 Vibrational            102.964             29.025             27.650
 Vibration     1          0.596              1.975              4.580
 Vibration     2          0.602              1.957              3.685
 Vibration     3          0.607              1.941              3.257
 Vibration     4          0.610              1.929              3.036
 Vibration     5          0.620              1.898              2.617
 Vibration     6          0.651              1.800              1.903
 Vibration     7          0.669              1.744              1.654
 Vibration     8          0.713              1.614              1.256
 Vibration     9          0.731              1.564              1.142
 Vibration    10          0.802              1.378              0.820
 Vibration    11          0.868              1.220              0.626
 Vibration    12          0.933              1.083              0.492

 Normal termination of Gaussian 09 at Tue Jan 28 15:06:13 2020.
