 Gaussian 09, Revision D.01,
 Gaussian 09:  ES64L-G09RevD.01 24-Apr-2013

 -----------------------------
 # b3lyp 6-31G(2df,p) opt Freq
 -----------------------------

 -----
 titel
 -----
 Symbolic Z-matrix:
 Charge =  0 Multiplicity = 1

 SCF Done:  E(RB3LYP) =  -423.123234445     A.U. after   13 cycles
 Optimization completed.
    -- Stationary point found.
 Normal termination of Gaussian 09 at Mon Jan 27 12:07:30 2020.

 ----------------------------------------------------------------------
 #N Geom=AllCheck Guess=TCheck SCRF=Check GenChk RB3LYP/6-31G(2df,p) Fr
 eq
 ----------------------------------------------------------------------

 Structure from the checkpoint file:  "/scratch/puck/g09_3c626ced-4a17-48a4-a62a-50e374d5585e/Gau-18769.chk"
 -----
 titel
 -----
 Charge =  0 Multiplicity = 1

                         Standard orientation:
 ---------------------------------------------------------------------
 Center     Atomic      Atomic             Coordinates (Angstroms)
 Number     Number       Type             X           Y           Z
 ---------------------------------------------------------------------
      1          6           0       -2.851988    0.154612    0.398270
      2          8           0       -2.032660    1.026877   -0.383013
      3          6           0       -1.792974   -0.378132   -0.465719
      4          6           0       -0.498491   -0.906688    0.091145
      5          6           0        0.254124   -0.043065    1.127662
      6          6           0        1.355264   -0.020156    0.074717
      7          6           0        2.262107    1.077775   -0.360202
      8          6           0        2.827848   -0.215184    0.220511
      9          8           0        0.587175   -0.780183   -0.863548
     10          1           0       -2.693108    0.208723    1.474930
     11          1           0       -3.892410    0.080631    0.086583
     12          1           0       -2.077180   -0.822607   -1.420654
     13          1           0       -0.634622   -1.958708    0.377710
     14          1           0       -0.215565    0.924063    1.312980
     15          1           0        0.499949   -0.538543    2.067942
     16          1           0        2.369780    1.232224   -1.428432
     17          1           0        2.305632    1.982821    0.237213
     18          1           0        3.305209   -0.902475   -0.469838
     19          1           0        3.260858   -0.194649    1.215754
 ---------------------------------------------------------------------

 SCF Done:  E(RB3LYP) =  -423.123234445     A.U. after    1 cycles

 The electronic state is 1-A.
 Alpha  occ. eigenvalues --  -19.15536 -19.13344 -10.24070 -10.24000 -10.23913
 Alpha  occ. eigenvalues --  -10.23839 -10.18895 -10.18046 -10.17956  -1.07647
 Alpha  occ. eigenvalues --   -1.04056  -0.84346  -0.75376  -0.70036  -0.65842
 Alpha  occ. eigenvalues --   -0.60281  -0.58528  -0.52746  -0.51885  -0.49426
 Alpha  occ. eigenvalues --   -0.49385  -0.47829  -0.43662  -0.41514  -0.40094
 Alpha  occ. eigenvalues --   -0.38021  -0.36451  -0.36341  -0.33724  -0.31504
 Alpha  occ. eigenvalues --   -0.30943  -0.28256  -0.27287  -0.22737
 Alpha virt. eigenvalues --    0.07290   0.09849   0.10051   0.10757   0.11571
 Alpha virt. eigenvalues --    0.11882   0.12949   0.14723   0.15285   0.16562
 Alpha virt. eigenvalues --    0.17076   0.17544   0.18825   0.20407   0.23032

 Mulliken charges:
               1
     1  C   -0.183429
     2  O   -0.222709
     3  C    0.063105
     4  C    0.109440
     5  C   -0.394381
     6  C    0.473236
     7  C   -0.325584
     8  C   -0.335449
     9  O   -0.323223
    10  H    0.115306
    11  H    0.120772
    12  H    0.104883
    13  H    0.081880
    14  H    0.130823
    15  H    0.108415
    16  H    0.125905
    17  H    0.115438
    18  H    0.123559
    19  H    0.112015
 Sum of Mulliken charges =   0.00000

 Dipole moment (field-independent basis, Debye):
    X=             -0.6879    Y=             -0.9833    Z=              1.8819  Tot=              2.2320
 Quadrupole moment (field-independent basis, Debye-Ang):
   XX=            -48.6538   YY=            -54.6988   ZZ=            -52.1910
   XY=              3.6964   XZ=             -0.3437   YZ=              0.3019

  Exact polarizability:  93.852   1.119  66.335  -1.776   0.271  67.553
 Approx polarizability: 113.752   0.544 103.937  -3.612   0.648 102.858

                      1                      2                      3
                      A                      A                      A
 Frequencies --     42.5005                93.0383               168.5187
 Red. masses --      4.2640                 3.4458                 2.8156
 Frc consts  --      0.0045                 0.0176                 0.0471
 IR Inten    --      0.9522                 3.0988                 0.5843

                      4                      5                      6
                      A                      A                      A
 Frequencies --    236.5534               292.6835               297.9784
 Red. masses --      5.0570                 2.0684                 2.6839
 Frc consts  --      0.1667                 0.1044                 0.1404
 IR Inten    --      2.5076                 1.7773                 0.4806

                      7                      8                      9
                      A                      A                      A
 Frequencies --    419.4867               451.0932               538.7282
 Red. masses --      2.8623                 3.4780                 3.4533
 Frc consts  --      0.2968                 0.4170                 0.5905
 IR Inten    --      5.2573                 1.6237                 3.2491

                     10                     11                     12
                      A                      A                      A
 Frequencies --    621.4928               739.2026               753.7822
 Red. masses --      3.1561                 2.2420                 1.0740
 Frc consts  --      0.7183                 0.7218                 0.3595
 IR Inten    --     11.9451                 5.3119                 0.4531

                     13                     14                     15
                      A                      A                      A
 Frequencies --    826.4349               853.5465               884.1203
 Red. masses --      2.0371                 2.5932                 2.7571
 Frc consts  --      0.8198                 1.1131                 1.2698
 IR Inten    --      3.6700                14.2750                24.0753

                     16                     17                     18
                      A                      A                      A
 Frequencies --    891.7834               916.1443               924.6577
 Red. masses --      2.0048                 1.8419                 2.5950
 Frc consts  --      0.9394                 0.9108                 1.3072
 IR Inten    --      6.4021                13.6235                10.2019

                     19                     20                     21
                      A                      A                      A
 Frequencies --    958.1166               993.9484              1027.6450
 Red. masses --      2.7860                 2.6589                 4.3690
 Frc consts  --      1.5068                 1.5477                 2.7184
 IR Inten    --     39.7068                26.6952                75.9385

                     22                     23                     24
                      A                      A                      A
 Frequencies --   1047.2398              1050.2448              1065.8900
 Red. masses --      1.5957                 1.7994                 1.4933
 Frc consts  --      1.0311                 1.1694                 0.9996
 IR Inten    --     27.5880                12.0296                 0.2186

                     25                     26                     27
                      A                      A                      A
 Frequencies --   1096.2831              1107.1911              1164.1597
 Red. masses --      1.4741                 1.6426                 1.3974
 Frc consts  --      1.0438                 1.1864                 1.1158
 IR Inten    --      2.3827                 4.5142                 1.6898

                     28                     29                     30
                      A                      A                      A
 Frequencies --   1165.4027              1175.6696              1185.6888
 Red. masses --      1.3368                 1.3559                 1.2851
 Frc consts  --      1.0697                 1.1042                 1.0645
 IR Inten    --      0.8874                 1.2403                 0.4545

                     31                     32                     33
                      A                      A                      A
 Frequencies --   1220.4791              1250.1064              1282.7056
 Red. masses --      2.0365                 1.3991                 1.5598
 Frc consts  --      1.7873                 1.2882                 1.5121
 IR Inten    --     32.8500                 0.6341                 1.8135

                     34                     35                     36
                      A                      A                      A
 Frequencies --   1313.0627              1361.5141              1398.9195
 Red. masses --      1.6099                 1.8030                 1.6114
 Frc consts  --      1.6354                 1.9692                 1.8579
 IR Inten    --     12.1372                56.8727                 1.8917

                     37                     38                     39
                      A                      A                      A
 Frequencies --   1427.7476              1446.7022              1479.3353
 Red. masses --      2.0055                 1.0907                 1.1268
 Frc consts  --      2.4087                 1.3450                 1.4529
 IR Inten    --      4.4586                 1.7750                11.5058

                     40                     41                     42
                      A                      A                      A
 Frequencies --   1505.0177              1529.9125              3008.2185
 Red. masses --      1.9247                 1.3498                 1.0847
 Frc consts  --      2.5686                 1.8614                 5.7832
 IR Inten    --     17.6583                 1.8875                50.6855

                     43                     44                     45
                      A                      A                      A
 Frequencies --   3079.7751              3083.6404              3107.2204
 Red. masses --      1.0581                 1.0501                 1.0883
 Frc consts  --      5.9130                 5.8833                 6.1906
 IR Inten    --     18.6821                27.0141                18.7582

                     46                     47                     48
                      A                      A                      A
 Frequencies --   3125.2733              3129.3445              3139.7211
 Red. masses --      1.0517                 1.0570                 1.1091
 Frc consts  --      6.0525                 6.0984                 6.4419
 IR Inten    --     14.1268                 5.2867                 9.2206

                     49                     50                     51
                      A                      A                      A
 Frequencies --   3170.3623              3209.4083              3223.8629
 Red. masses --      1.1190                 1.1179                 1.1151
 Frc consts  --      6.6269                 6.7844                 6.8283
 IR Inten    --     26.5748                 0.3707                10.1012

 - Thermochemistry -
 -------------------
 Temperature   298.150 Kelvin.  Pressure   1.00000 Atm.
 Atom     1 has atomic number  6 and mass  12.00000

 Molecular mass:   126.06808 amu.
 Principal axes and moments of inertia in atomic units:
                           1         2         3
     Eigenvalues --   412.528601792.176751844.05916
           X            0.99990   0.01399  -0.00325
           Y           -0.01404   0.99973  -0.01870
           Z            0.00299   0.01874   0.99982
 This molecule is an asymmetric top.
 Rotational symmetry number  1.
 Rotational temperatures (Kelvin)      0.20996     0.04833     0.04697
 Rotational constants (GHZ):           4.37483     1.00701     0.97868
 Zero-point vibrational energy     415592.0 (Joules/Mol)
                                   99.32887 (Kcal/Mol)
 Warning -- explicit consideration of   9 degrees of freedom as
           vibrations may cause significant error
 Vibrational temperatures:     61.15   133.86   242.46   340.35   421.11
          (Kelvin)            428.72   603.55   649.02   775.11   894.19
                             1063.55  1084.52  1189.05  1228.06  1272.05
                             1283.08  1318.13  1330.37  1378.51  1430.07
                             1478.55  1506.74  1511.07  1533.58  1577.30
                             1593.00  1674.96  1676.75  1691.52  1705.94
                             1755.99  1798.62  1845.53  1889.20  1958.91
                             2012.73  2054.21  2081.48  2128.43  2165.38
                             2201.20  4328.15  4431.10  4436.67  4470.59
                             4496.57  4502.42  4517.35  4561.44  4617.62
                             4638.41

 Zero-point correction=                           0.158291 (Hartree/Particle)
 Thermal correction to Energy=                    0.166553
 Thermal correction to Enthalpy=                  0.167497
 Thermal correction to Gibbs Free Energy=         0.124663
 Sum of electronic and zero-point Energies=           -422.964944
 Sum of electronic and thermal Energies=              -422.956682
 Sum of electronic and thermal Enthalpies=            -422.955737
 Sum of electronic and thermal Free Energies=         -422.998572

                     E (Thermal)             CV                S
                      KCal/Mol        Cal/Mol-Kelvin    Cal/Mol-Kelvin
 Total                  104.513             31.377             90.152
 Electronic               0.000              0.000              0.000
 Translational            0.889              2.981             40.409
 Rotational               0.889              2.981             28.702
 Vibrational            102.736             25.415             21.042
 Vibration     1          0.595              1.980              5.139
 Vibration     2          0.602              1.954              3.595
 Vibration     3          0.625              1.881              2.452
 Vibration     4          0.655              1.785              1.829
 Vibration     5          0.688              1.687              1.458
 Vibration     6          0.691              1.677              1.428
 Vibration     7          0.782              1.428              0.894
 Vibration     8          0.810              1.358              0.792
 Vibration     9          0.894              1.164              0.568

 Normal termination of Gaussian 09 at Mon Jan 27 12:52:52 2020.
