 Gaussian 09, Revision D.01,
 Gaussian 09:  ES64L-G09RevD.01 24-Apr-2013

 -----------------------------
 # b3lyp 6-31G(2df,p) opt Freq
 -----------------------------

 -----
 titel
 -----
 Symbolic Z-matrix:
 Charge =  0 Multiplicity = 1

 SCF Done:  E(RB3LYP) =  -423.114895564     A.U. after   13 cycles
 Optimization completed.
    -- Stationary point found.
 Normal termination of Gaussian 09 at Tue Jan 28 12:09:25 2020.

 ----------------------------------------------------------------------
 #N Geom=AllCheck Guess=TCheck SCRF=Check GenChk RB3LYP/6-31G(2df,p) Fr
 eq
 ----------------------------------------------------------------------

 Structure from the checkpoint file:  "/scratch/puck/g09_621a70c8-3429-4fa1-b394-b81196b09e9a/Gau-103732.chk"
 -----
 titel
 -----
 Charge =  0 Multiplicity = 1

                         Standard orientation:
 ---------------------------------------------------------------------
 Center     Atomic      Atomic             Coordinates (Angstroms)
 Number     Number       Type             X           Y           Z
 ---------------------------------------------------------------------
      1          8           0        3.256345   -0.958388   -0.178400
      2          6           0        2.218994   -0.181307    0.400296
      3          6           0        0.926073   -0.538853   -0.320391
      4          6           0       -0.308165    0.211922    0.226581
      5          6           0       -0.208768    1.660418    0.048257
      6          6           0       -0.144256    2.847798   -0.129470
      7          6           0       -1.577798   -0.305539   -0.438865
      8          6           0       -2.833268   -0.459682    0.299598
      9          8           0       -2.016578   -1.593466   -0.016349
     10          1           0        4.086329   -0.707300    0.236859
     11          1           0        2.113868   -0.394543    1.477462
     12          1           0        2.416908    0.895786    0.296766
     13          1           0        1.044681   -0.325245   -1.388369
     14          1           0        0.744035   -1.613288   -0.217644
     15          1           0       -0.397364   -0.008233    1.299481
     16          1           0       -0.083473    3.898239   -0.273230
     17          1           0       -1.625259   -0.140329   -1.516108
     18          1           0       -2.870606   -0.191431    1.354528
     19          1           0       -3.784123   -0.407370   -0.227794
 ---------------------------------------------------------------------

 SCF Done:  E(RB3LYP) =  -423.114895564     A.U. after    1 cycles

 The electronic state is 1-A.
 Alpha  occ. eigenvalues --  -19.15512 -19.13245 -10.24499 -10.23722 -10.22635
 Alpha  occ. eigenvalues --  -10.22065 -10.18670 -10.18587 -10.17780  -1.07574
 Alpha  occ. eigenvalues --   -1.01360  -0.82365  -0.74161  -0.70933  -0.66517
 Alpha  occ. eigenvalues --   -0.61068  -0.60093  -0.54065  -0.51584  -0.50198
 Alpha  occ. eigenvalues --   -0.48371  -0.47826  -0.43702  -0.41021  -0.39641
 Alpha  occ. eigenvalues --   -0.38894  -0.37305  -0.35435  -0.32944  -0.30653
 Alpha  occ. eigenvalues --   -0.28412  -0.27068  -0.26787  -0.26064
 Alpha virt. eigenvalues --    0.04357   0.04819   0.07949   0.10103   0.10915
 Alpha virt. eigenvalues --    0.11556   0.12058   0.12308   0.13310   0.15760
 Alpha virt. eigenvalues --    0.16848   0.17360   0.18804   0.20163   0.21111

 Mulliken charges:
               1
     1  O   -0.420140
     2  C   -0.086790
     3  C   -0.177167
     4  C   -0.204113
     5  C    0.335900
     6  C   -0.476613
     7  C    0.085709
     8  C   -0.178563
     9  O   -0.237173
    10  H    0.286475
    11  H    0.083553
    12  H    0.100311
    13  H    0.113054
    14  H    0.128197
    15  H    0.107799
    16  H    0.198881
    17  H    0.104216
    18  H    0.116827
    19  H    0.119636
 Sum of Mulliken charges =   0.00000

 Dipole moment (field-independent basis, Debye):
    X=              0.1308    Y=              2.1253    Z=              0.9365  Tot=              2.3262
 Quadrupole moment (field-independent basis, Debye-Ang):
   XX=            -46.2128   YY=            -55.7586   ZZ=            -52.2003
   XY=              0.0374   XZ=              3.4055   YZ=             -1.5170

  Exact polarizability:  85.964   1.595  86.401  -1.429  -2.119  60.820
 Approx polarizability: 104.182   2.178 138.596  -4.098  -5.782  93.305

                      1                      2                      3
                      A                      A                      A
 Frequencies --     65.3046                90.1401                93.8062
 Red. masses --      4.4039                 3.1552                 2.3253
 Frc consts  --      0.0111                 0.0151                 0.0121
 IR Inten    --      0.8428                 6.9711                 3.3467

                      4                      5                      6
                      A                      A                      A
 Frequencies --    130.4906               140.5301               215.9957
 Red. masses --      3.7057                 3.9225                 2.9915
 Frc consts  --      0.0372                 0.0456                 0.0822
 IR Inten    --      0.7321                 1.6803                 1.9426

                      7                      8                      9
                      A                      A                      A
 Frequencies --    252.6431               298.9859               328.0766
 Red. masses --      1.0913                 3.9913                 4.2792
 Frc consts  --      0.0410                 0.2102                 0.2714
 IR Inten    --    102.2912                 6.8462                 3.5866

                     10                     11                     12
                      A                      A                      A
 Frequencies --    414.3437               453.4146               505.8760
 Red. masses --      4.5709                 3.9531                 6.0961
 Frc consts  --      0.4624                 0.4788                 0.9192
 IR Inten    --      4.9867                 7.4876                 1.9366

                     13                     14                     15
                      A                      A                      A
 Frequencies --    592.9024               636.3360               646.8133
 Red. masses --      3.0602                 1.2126                 1.2441
 Frc consts  --      0.6338                 0.2893                 0.3067
 IR Inten    --     12.6149                47.6953                41.5599

                     16                     17                     18
                      A                      A                      A
 Frequencies --    793.1671               852.4041               864.9840
 Red. masses --      1.3808                 2.0496                 4.8570
 Frc consts  --      0.5118                 0.8774                 2.1411
 IR Inten    --      2.0204                22.6637                18.6578

                     19                     20                     21
                      A                      A                      A
 Frequencies --    907.6031               959.8229              1014.9398
 Red. masses --      2.4327                 2.0641                 2.6237
 Frc consts  --      1.1807                 1.1204                 1.5923
 IR Inten    --      9.6579                11.8211                18.1849

                     22                     23                     24
                      A                      A                      A
 Frequencies --   1061.4688              1072.4476              1105.5304
 Red. masses --      2.3812                 2.8706                 1.6182
 Frc consts  --      1.5808                 1.9452                 1.1653
 IR Inten    --     16.4163                70.9399                 3.2493

                     25                     26                     27
                      A                      A                      A
 Frequencies --   1111.1524              1130.8025              1158.1959
 Red. masses --      1.9119                 2.2781                 1.3909
 Frc consts  --      1.3908                 1.7163                 1.0993
 IR Inten    --      2.8690                 6.5517                 1.8742

                     28                     29                     30
                      A                      A                      A
 Frequencies --   1173.8840              1220.4487              1238.4371
 Red. masses --      1.4106                 1.2417                 1.2010
 Frc consts  --      1.1452                 1.0897                 1.0853
 IR Inten    --      1.2139                 2.5682                14.5410

                     31                     32                     33
                      A                      A                      A
 Frequencies --   1277.9419              1292.3032              1309.5104
 Red. masses --      1.3084                 1.4990                 1.1829
 Frc consts  --      1.2589                 1.4750                 1.1951
 IR Inten    --     37.0505                 5.4028                 3.1125

                     34                     35                     36
                      A                      A                      A
 Frequencies --   1336.6812              1352.8426              1437.0966
 Red. masses --      1.3129                 1.3941                 1.7474
 Frc consts  --      1.3821                 1.5032                 2.1263
 IR Inten    --      7.5672                 8.3107                13.0087

                     37                     38                     39
                      A                      A                      A
 Frequencies --   1465.0755              1492.1293              1529.2252
 Red. masses --      1.4457                 1.0948                 1.2683
 Frc consts  --      1.8283                 1.4362                 1.7475
 IR Inten    --      7.5747                 2.1133                 2.7016

                     40                     41                     42
                      A                      A                      A
 Frequencies --   1529.6267              2233.0470              2959.9123
 Red. masses --      1.1512                 5.9290                 1.0639
 Frc consts  --      1.5870                17.4191                 5.4917
 IR Inten    --      3.8542                 1.0417                53.4909

                     43                     44                     45
                      A                      A                      A
 Frequencies --   3008.5646              3013.0756              3048.6433
 Red. masses --      1.0958                 1.0810                 1.0591
 Frc consts  --      5.8437                 5.7825                 5.7997
 IR Inten    --     39.6648                 8.3690                18.3762

                     46                     47                     48
                      A                      A                      A
 Frequencies --   3086.3006              3099.4067              3106.1198
 Red. masses --      1.0502                 1.1034                 1.0897
 Frc consts  --      5.8939                 6.2450                 6.1946
 IR Inten    --     25.8237                13.4501                24.7522

                     49                     50                     51
                      A                      A                      A
 Frequencies --   3174.5200              3503.3123              3832.7325
 Red. masses --      1.1195                 1.1619                 1.0664
 Frc consts  --      6.6473                 8.4020                 9.2296
 IR Inten    --     24.8592                67.2332                21.4042

 - Thermochemistry -
 -------------------
 Temperature   298.150 Kelvin.  Pressure   1.00000 Atm.
 Atom     1 has atomic number  8 and mass  15.99491

 Molecular mass:   126.06808 amu.
 Principal axes and moments of inertia in atomic units:
                           1         2         3
     Eigenvalues --   827.496151802.639672500.06676
           X            0.99998  -0.00393   0.00456
           Y            0.00395   0.99999  -0.00359
           Z           -0.00455   0.00361   0.99998
 This molecule is an asymmetric top.
 Rotational symmetry number  1.
 Warning -- assumption of classical behavior for rotation
           may cause significant error
 Rotational temperatures (Kelvin)      0.10467     0.04805     0.03464
 Rotational constants (GHZ):           2.18097     1.00117     0.72188
 Zero-point vibrational energy     410432.8 (Joules/Mol)
                                   98.09581 (Kcal/Mol)
 Warning -- explicit consideration of  13 degrees of freedom as
           vibrations may cause significant error
 Vibrational temperatures:     93.96   129.69   134.97   187.75   202.19
          (Kelvin)            310.77   363.50   430.17   472.03   596.15
                              652.36   727.84   853.05   915.54   930.62
                             1141.19  1226.42  1244.52  1305.84  1380.97
                             1460.27  1527.21  1543.01  1590.61  1598.70
                             1626.97  1666.38  1688.96  1755.95  1781.83
                             1838.67  1859.33  1884.09  1923.18  1946.44
                             2067.66  2107.91  2146.84  2200.21  2200.79
                             3212.85  4258.65  4328.65  4335.14  4386.31
                             4440.49  4459.35  4469.01  4567.42  5040.48
                             5514.44

 Zero-point correction=                           0.156326 (Hartree/Particle)
 Thermal correction to Energy=                    0.166455
 Thermal correction to Enthalpy=                  0.167399
 Thermal correction to Gibbs Free Energy=         0.120412
 Sum of electronic and zero-point Energies=           -422.958570
 Sum of electronic and thermal Energies=              -422.948441
 Sum of electronic and thermal Enthalpies=            -422.947497
 Sum of electronic and thermal Free Energies=         -422.994484

                     E (Thermal)             CV                S
                      KCal/Mol        Cal/Mol-Kelvin    Cal/Mol-Kelvin
 Total                  104.452             35.923             98.892
 Electronic               0.000              0.000              0.000
 Translational            0.889              2.981             40.409
 Rotational               0.889              2.981             29.701
 Vibrational            102.674             29.961             28.782
 Vibration     1          0.597              1.971              4.290
 Vibration     2          0.602              1.956              3.657
 Vibration     3          0.603              1.954              3.579
 Vibration     4          0.612              1.923              2.939
 Vibration     5          0.615              1.913              2.797
 Vibration     6          0.645              1.817              1.992
 Vibration     7          0.664              1.758              1.712
 Vibration     8          0.692              1.676              1.423
 Vibration     9          0.711              1.619              1.270
 Vibration    10          0.778              1.439              0.911
 Vibration    11          0.812              1.353              0.786
 Vibration    12          0.861              1.237              0.644
 Vibration    13          0.950              1.047              0.462

 Optimization completed.
    -- Stationary point found.
 Normal termination of Gaussian 09 at Tue Jan 28 12:44:43 2020.
