 Gaussian 09, Revision D.01,
 Gaussian 09:  ES64L-G09RevD.01 24-Apr-2013

 -----------------------------
 # b3lyp 6-31G(2df,p) opt Freq
 -----------------------------

 -----
 titel
 -----
 Symbolic Z-matrix:
 Charge =  0 Multiplicity = 1

 SCF Done:  E(RB3LYP) =  -423.159346551     A.U. after   14 cycles
 Optimization completed.
    -- Stationary point found.
 Normal termination of Gaussian 09 at Mon Jan 27 14:21:52 2020.

 ----------------------------------------------------------------------
 #N Geom=AllCheck Guess=TCheck SCRF=Check GenChk RB3LYP/6-31G(2df,p) Fr
 eq
 ----------------------------------------------------------------------

 Structure from the checkpoint file:  "/scratch/puck/g09_a6a932c4-b710-4f88-b638-131f0232346d/Gau-171122.chk"
 -----
 titel
 -----
 Charge =  0 Multiplicity = 1

                         Standard orientation:
 ---------------------------------------------------------------------
 Center     Atomic      Atomic             Coordinates (Angstroms)
 Number     Number       Type             X           Y           Z
 ---------------------------------------------------------------------
      1          6           0        2.919778   -1.217659    0.640142
      2          6           0        2.258919   -0.281826   -0.391892
      3          6           0        3.008171    1.062032   -0.496583
      4          6           0        0.846800   -0.069248   -0.074045
      5          6           0       -0.306742    0.107424    0.232637
      6          6           0       -1.721656    0.336861    0.501573
      7          8           0       -2.091057    1.710497    0.433835
      8          6           0       -2.554469   -0.453211   -0.525868
      9          8           0       -3.132950   -1.476888   -0.290434
     10          1           0        2.905315   -0.764169    1.635753
     11          1           0        2.396724   -2.175634    0.695208
     12          1           0        3.961393   -1.406596    0.362542
     13          1           0        2.309882   -0.772658   -1.373722
     14          1           0        4.052474    0.888276   -0.773407
     15          1           0        2.554757    1.710460   -1.250951
     16          1           0        2.989510    1.589209    0.462009
     17          1           0       -2.000290   -0.025448    1.496927
     18          1           0       -1.500896    2.142406   -0.192729
     19          1           0       -2.581619    0.039042   -1.524617
 ---------------------------------------------------------------------

 SCF Done:  E(RB3LYP) =  -423.159346551     A.U. after    1 cycles

 The electronic state is 1-A.
 Alpha  occ. eigenvalues --  -19.15698 -19.14730 -10.27567 -10.26600 -10.22467
 Alpha  occ. eigenvalues --  -10.19458 -10.19135 -10.18908 -10.18709  -1.05734
 Alpha  occ. eigenvalues --   -1.03693  -0.82729  -0.77719  -0.71341  -0.69812
 Alpha  occ. eigenvalues --   -0.62508  -0.59772  -0.55079  -0.49948  -0.49049
 Alpha  occ. eigenvalues --   -0.46174  -0.45738  -0.43098  -0.42366  -0.39923
 Alpha  occ. eigenvalues --   -0.39750  -0.38187  -0.36626  -0.36138  -0.35980
 Alpha  occ. eigenvalues --   -0.31680  -0.28109  -0.27312  -0.24316
 Alpha virt. eigenvalues --   -0.03323   0.02510   0.05135   0.08537   0.09439
 Alpha virt. eigenvalues --    0.12986   0.13087   0.14122   0.14854   0.15456
 Alpha virt. eigenvalues --    0.16013   0.17972   0.18494   0.19557   0.20877

 Mulliken charges:
               1
     1  C   -0.375994
     2  C   -0.126831
     3  C   -0.376638
     4  C    0.102015
     5  C   -0.017541
     6  C   -0.081898
     7  O   -0.416078
     8  C    0.160739
     9  O   -0.231008
    10  H    0.128460
    11  H    0.130525
    12  H    0.117200
    13  H    0.111688
    14  H    0.119055
    15  H    0.122104
    16  H    0.129019
    17  H    0.134548
    18  H    0.292759
    19  H    0.077875
 Sum of Mulliken charges =   0.00000

 Dipole moment (field-independent basis, Debye):
    X=              3.5058    Y=              1.3507    Z=             -1.0530  Tot=              3.9017
 Quadrupole moment (field-independent basis, Debye-Ang):
   XX=            -57.7966   YY=            -56.1930   ZZ=            -51.9193
   XY=             -4.3722   XZ=              0.3768   YZ=             -2.7022

  Exact polarizability: 112.515   0.327  73.013  -3.510  -2.810  64.545
 Approx polarizability: 154.058  -0.183 108.220 -13.235  -2.407  96.222

                      1                      2                      3
                      A                      A                      A
 Frequencies --     12.4487                52.9543                92.4024
 Red. masses --      3.3699                 6.7550                 4.0962
 Frc consts  --      0.0003                 0.0112                 0.0206
 IR Inten    --      0.3707                 3.6785                 0.3337

                      4                      5                      6
                      A                      A                      A
 Frequencies --     97.4884               181.2592               186.6641
 Red. masses --      3.2503                 2.3943                 2.1804
 Frc consts  --      0.0182                 0.0463                 0.0448
 IR Inten    --      3.7754                 1.0202                25.5389

                      7                      8                      9
                      A                      A                      A
 Frequencies --    217.9429               225.5202               263.9428
 Red. masses --      1.4345                 1.0317                 1.1785
 Frc consts  --      0.0401                 0.0309                 0.0484
 IR Inten    --     67.4010                 0.0767                 0.2516

                     10                     11                     12
                      A                      A                      A
 Frequencies --    322.2700               343.0507               435.7528
 Red. masses --      3.7240                 2.4354                 5.5334
 Frc consts  --      0.2279                 0.1689                 0.6190
 IR Inten    --     16.2851                 0.1098                16.7260

                     13                     14                     15
                      A                      A                      A
 Frequencies --    461.6524               494.7019               540.0679
 Red. masses --      3.9078                 4.9772                 4.6499
 Frc consts  --      0.4907                 0.7177                 0.7991
 IR Inten    --     19.4203                 1.1212                 2.3737

                     16                     17                     18
                      A                      A                      A
 Frequencies --    592.5809               729.9595               876.3466
 Red. masses --      4.4653                 3.0758                 2.6880
 Frc consts  --      0.9238                 0.9656                 1.2163
 IR Inten    --      1.5879                 7.1269                 6.8275

                     19                     20                     21
                      A                      A                      A
 Frequencies --    932.5564               965.7294               990.9553
 Red. masses --      1.1765                 1.5192                 1.9553
 Frc consts  --      0.6028                 0.8348                 1.1313
 IR Inten    --      1.1974                 0.0597                 5.8772

                     22                     23                     24
                      A                      A                      A
 Frequencies --   1005.4630              1052.6080              1087.0889
 Red. masses --      3.5685                 5.3931                 1.9774
 Frc consts  --      2.1256                 3.5206                 1.3768
 IR Inten    --     63.3165                47.8487                17.6585

                     25                     26                     27
                      A                      A                      A
 Frequencies --   1118.4448              1151.7266              1206.1919
 Red. masses --      2.3320                 1.9939                 1.8178
 Frc consts  --      1.7188                 1.5583                 1.5582
 IR Inten    --      2.6934                 7.0809                 2.8395

                     28                     29                     30
                      A                      A                      A
 Frequencies --   1251.7927              1268.4159              1324.0900
 Red. masses --      1.2402                 1.3604                 1.3191
 Frc consts  --      1.1450                 1.2895                 1.3626
 IR Inten    --     11.5109                10.2300                 1.0274

                     31                     32                     33
                      A                      A                      A
 Frequencies --   1349.8254              1389.2133              1395.9415
 Red. masses --      1.5455                 1.1936                 1.2087
 Frc consts  --      1.6591                 1.3572                 1.3877
 IR Inten    --     29.7111                72.4609                 2.0152

                     34                     35                     36
                      A                      A                      A
 Frequencies --   1408.9171              1418.2402              1485.6207
 Red. masses --      1.2478                 1.2123                 1.0424
 Frc consts  --      1.4593                 1.4366                 1.3555
 IR Inten    --     29.2676                 1.1190                 1.6962

                     37                     38                     39
                      A                      A                      A
 Frequencies --   1488.7581              1498.5378              1510.5390
 Red. masses --      1.0477                 1.0441                 1.0561
 Frc consts  --      1.3681                 1.3815                 1.4198
 IR Inten    --      1.0859                 5.8779                 3.9346

                     40                     41                     42
                      A                      A                      A
 Frequencies --   1844.4423              2346.2322              2877.3535
 Red. masses --     10.6417                11.9013                 1.0844
 Frc consts  --     21.3301                38.5998                 5.2896
 IR Inten    --    191.4390                24.8859                99.5186

                     43                     44                     45
                      A                      A                      A
 Frequencies --   3009.2677              3039.2846              3042.3917
 Red. masses --      1.0817                 1.0340                 1.0346
 Frc consts  --      5.7716                 5.6276                 5.6420
 IR Inten    --     12.3833                20.1140                26.1613

                     46                     47                     48
                      A                      A                      A
 Frequencies --   3062.6364              3112.0046              3116.7712
 Red. masses --      1.0843                 1.1026                 1.1020
 Frc consts  --      5.9921                 6.2914                 6.3075
 IR Inten    --     12.8159                 0.7395                46.7692

                     49                     50                     51
                      A                      A                      A
 Frequencies --   3119.9392              3124.1651              3819.7249
 Red. masses --      1.1025                 1.1023                 1.0664
 Frc consts  --      6.3229                 6.3389                 9.1675
 IR Inten    --     21.5175                22.0848                27.2485

 - Thermochemistry -
 -------------------
 Temperature   298.150 Kelvin.  Pressure   1.00000 Atm.
 Atom     1 has atomic number  6 and mass  12.00000

 Molecular mass:   126.06808 amu.
 Principal axes and moments of inertia in atomic units:
                           1         2         3
     Eigenvalues --   607.732922623.822462994.72405
           X            0.99996  -0.00903   0.00170
           Y            0.00910   0.99890  -0.04608
           Z           -0.00128   0.04610   0.99894
 This molecule is an asymmetric top.
 Rotational symmetry number  1.
 Warning -- assumption of classical behavior for rotation
           may cause significant error
 Rotational temperatures (Kelvin)      0.14252     0.03301     0.02892
 Rotational constants (GHZ):           2.96963     0.68783     0.60264
 Zero-point vibrational energy     406382.7 (Joules/Mol)
                                   97.12779 (Kcal/Mol)
 Warning -- explicit consideration of  16 degrees of freedom as
           vibrations may cause significant error
 Vibrational temperatures:     17.91    76.19   132.95   140.26   260.79
          (Kelvin)            268.57   313.57   324.47   379.75   463.67
                              493.57   626.95   664.21   711.76   777.04
                              852.59  1050.25  1260.87  1341.74  1389.47
                             1425.76  1446.64  1514.47  1564.08  1609.19
                             1657.08  1735.44  1801.05  1824.97  1905.07
                             1942.10  1998.77  2008.45  2027.11  2040.53
                             2137.47  2141.99  2156.06  2173.33  2653.74
                             3375.70  4139.86  4329.66  4372.85  4377.32
                             4406.45  4477.47  4484.33  4488.89  4494.97
                             5495.73

 Zero-point correction=                           0.154783 (Hartree/Particle)
 Thermal correction to Energy=                    0.165961
 Thermal correction to Enthalpy=                  0.166905
 Thermal correction to Gibbs Free Energy=         0.116059
 Sum of electronic and zero-point Energies=           -423.004564
 Sum of electronic and thermal Energies=              -422.993386
 Sum of electronic and thermal Enthalpies=            -422.992441
 Sum of electronic and thermal Free Energies=         -423.043288

                     E (Thermal)             CV                S
                      KCal/Mol        Cal/Mol-Kelvin    Cal/Mol-Kelvin
 Total                  104.142             37.932            107.015
 Electronic               0.000              0.000              0.000
 Translational            0.889              2.981             40.409
 Rotational               0.889              2.981             29.947
 Vibrational            102.365             31.971             36.659
 Vibration     1          0.593              1.987              7.576
 Vibration     2          0.596              1.976              4.704
 Vibration     3          0.602              1.955              3.609
 Vibration     4          0.603              1.951              3.504
 Vibration     5          0.630              1.865              2.315
 Vibration     6          0.632              1.858              2.261
 Vibration     7          0.646              1.814              1.976
 Vibration     8          0.650              1.802              1.914
 Vibration     9          0.671              1.739              1.636
 Vibration    10          0.707              1.631              1.299
 Vibration    11          0.722              1.589              1.198
 Vibration    12          0.796              1.392              0.840
 Vibration    13          0.819              1.335              0.761
 Vibration    14          0.850              1.262              0.672
 Vibration    15          0.895              1.161              0.565
 Vibration    16          0.950              1.048              0.463

 Optimization completed.
    -- Stationary point found.
 Normal termination of Gaussian 09 at Mon Jan 27 14:52:33 2020.
