 Gaussian 09, Revision D.01,
 Gaussian 09:  ES64L-G09RevD.01 24-Apr-2013

 -----------------------------
 # b3lyp 6-31G(2df,p) opt Freq
 -----------------------------

 -----
 titel
 -----
 Symbolic Z-matrix:
 Charge =  0 Multiplicity = 1

 SCF Done:  E(RB3LYP) =  -423.166459369     A.U. after   14 cycles
 Optimization completed.
    -- Stationary point found.
 Normal termination of Gaussian 09 at Tue Jan 28 03:21:57 2020.

 ----------------------------------------------------------------------
 #N Geom=AllCheck Guess=TCheck SCRF=Check GenChk RB3LYP/6-31G(2df,p) Fr
 eq
 ----------------------------------------------------------------------

 Structure from the checkpoint file:  "/scratch/puck/g09_e80ea54a-4c60-496d-a411-7b07cb070137/Gau-79302.chk"
 -----
 titel
 -----
 Charge =  0 Multiplicity = 1

                         Standard orientation:
 ---------------------------------------------------------------------
 Center     Atomic      Atomic             Coordinates (Angstroms)
 Number     Number       Type             X           Y           Z
 ---------------------------------------------------------------------
      1          6           0       -2.624943   -0.422361   -0.102935
      2          6           0       -1.124228   -0.383684   -0.420799
      3          6           0       -0.325801   -1.275023    0.545859
      4          6           0        1.173342   -1.088128    0.457466
      5          8           0        1.749889   -0.864649   -0.833970
      6          6           0        1.740923    0.219758    0.116336
      7          6           0        0.805251    1.347237   -0.185757
      8          8           0       -0.199098    1.624577    0.811194
      9          6           0       -0.607392    1.044180   -0.433372
     10          1           0       -2.822565   -0.007277    0.891267
     11          1           0       -3.198857    0.160484   -0.830837
     12          1           0       -3.004795   -1.448772   -0.122464
     13          1           0       -0.970864   -0.764143   -1.438885
     14          1           0       -0.621904   -1.056343    1.579145
     15          1           0       -0.578393   -2.325899    0.361454
     16          1           0        1.764627   -1.746263    1.095363
     17          1           0        2.727523    0.488218    0.491429
     18          1           0        1.242784    2.239619   -0.631624
     19          1           0       -1.166795    1.729087   -1.073429
 ---------------------------------------------------------------------

 SCF Done:  E(RB3LYP) =  -423.166459369     A.U. after    1 cycles

 The electronic state is 1-A.
 Alpha  occ. eigenvalues --  -19.15144 -19.15115 -10.23923 -10.23836 -10.23807
 Alpha  occ. eigenvalues --  -10.23714 -10.19635 -10.18912 -10.17895  -1.07803
 Alpha  occ. eigenvalues --   -1.06106  -0.81007  -0.72802  -0.71616  -0.66853
 Alpha  occ. eigenvalues --   -0.61750  -0.59825  -0.53876  -0.53154  -0.48424
 Alpha  occ. eigenvalues --   -0.47787  -0.45609  -0.41869  -0.40537  -0.40332
 Alpha  occ. eigenvalues --   -0.39606  -0.38326  -0.37305  -0.33993  -0.33399
 Alpha  occ. eigenvalues --   -0.30015  -0.28948  -0.27814  -0.26007
 Alpha virt. eigenvalues --    0.06454   0.08496   0.10661   0.11492   0.12177
 Alpha virt. eigenvalues --    0.13341   0.13809   0.14522   0.16014   0.16806
 Alpha virt. eigenvalues --    0.17772   0.17961   0.19144   0.20145   0.22779

 Mulliken charges:
               1
     1  C   -0.406886
     2  C   -0.017162
     3  C   -0.252122
     4  C    0.052132
     5  O   -0.262094
     6  C    0.023846
     7  C    0.008359
     8  O   -0.264842
     9  C    0.069527
    10  H    0.128438
    11  H    0.113875
    12  H    0.114947
    13  H    0.098102
    14  H    0.120038
    15  H    0.106098
    16  H    0.092539
    17  H    0.093181
    18  H    0.093172
    19  H    0.088851
 Sum of Mulliken charges =   0.00000

 Dipole moment (field-independent basis, Debye):
    X=             -0.4625    Y=             -0.3394    Z=              0.0241  Tot=              0.5742
 Quadrupole moment (field-independent basis, Debye-Ang):
   XX=            -51.6886   YY=            -52.9931   ZZ=            -54.9281
   XY=              2.9963   XZ=              3.8926   YZ=             -4.9815

  Exact polarizability:  84.234   3.493  75.210   2.579  -4.052  61.233
 Approx polarizability: 111.213   4.269 109.123  -0.959   0.855 103.839

                      1                      2                      3
                      A                      A                      A
 Frequencies --    111.9143               201.0198               242.1092
 Red. masses --      3.1085                 2.3633                 1.6244
 Frc consts  --      0.0229                 0.0563                 0.0561
 IR Inten    --      0.7273                 3.8793                 5.4238

                      4                      5                      6
                      A                      A                      A
 Frequencies --    260.8621               314.7873               325.8344
 Red. masses --      2.2954                 2.6164                 2.9945
 Frc consts  --      0.0920                 0.1528                 0.1873
 IR Inten    --      5.0139                 2.1787                 3.9132

                      7                      8                      9
                      A                      A                      A
 Frequencies --    408.5709               478.1550               605.1215
 Red. masses --      7.6627                 2.8825                 4.4658
 Frc consts  --      0.7536                 0.3883                 0.9635
 IR Inten    --      0.1199                 1.8881                 1.2193

                     10                     11                     12
                      A                      A                      A
 Frequencies --    620.5298               693.6038               768.9014
 Red. masses --      3.6250                 3.9577                 4.4511
 Frc consts  --      0.8224                 1.1218                 1.5505
 IR Inten    --      7.0109                 4.2584                 5.8811

                     13                     14                     15
                      A                      A                      A
 Frequencies --    790.8351               843.5665               864.8390
 Red. masses --      3.7217                 2.2276                 3.0580
 Frc consts  --      1.3714                 0.9339                 1.3476
 IR Inten    --      6.3085                21.7901                15.6899

                     16                     17                     18
                      A                      A                      A
 Frequencies --    897.1124               940.3191               957.3057
 Red. masses --      2.1176                 2.9795                 2.8992
 Frc consts  --      1.0041                 1.5522                 1.5654
 IR Inten    --      7.9482                 6.0651                33.5058

                     19                     20                     21
                      A                      A                      A
 Frequencies --    982.8483              1010.2196              1049.7714
 Red. masses --      2.2999                 1.9096                 1.4291
 Frc consts  --      1.3090                 1.1482                 0.9279
 IR Inten    --      1.0345                 9.4568                 4.1638

                     22                     23                     24
                      A                      A                      A
 Frequencies --   1076.0468              1089.8771              1113.9115
 Red. masses --      2.2650                 1.3506                 1.7003
 Frc consts  --      1.5452                 0.9452                 1.2431
 IR Inten    --      0.4561                 8.1427                 0.4227

                     25                     26                     27
                      A                      A                      A
 Frequencies --   1121.7082              1165.4863              1188.7150
 Red. masses --      1.3984                 1.4364                 1.6540
 Frc consts  --      1.0367                 1.1496                 1.3770
 IR Inten    --      0.5346                 0.1337                 2.5747

                     28                     29                     30
                      A                      A                      A
 Frequencies --   1240.5716              1276.0737              1297.9498
 Red. masses --      1.4144                 1.3480                 1.2191
 Frc consts  --      1.2825                 1.2933                 1.2101
 IR Inten    --      9.9057                 8.7633                 0.6217

                     31                     32                     33
                      A                      A                      A
 Frequencies --   1313.3097              1352.6317              1373.2592
 Red. masses --      1.3114                 1.3094                 1.5889
 Frc consts  --      1.3327                 1.4115                 1.7654
 IR Inten    --      0.4273                 1.7249                 1.2227

                     34                     35                     36
                      A                      A                      A
 Frequencies --   1381.1335              1400.5207              1412.9494
 Red. masses --      1.5372                 1.4892                 1.3358
 Frc consts  --      1.7276                 1.7210                 1.5712
 IR Inten    --      1.3355                 0.3509                 0.7493

                     37                     38                     39
                      A                      A                      A
 Frequencies --   1468.9266              1472.5455              1494.1135
 Red. masses --      1.4819                 2.3783                 2.0170
 Frc consts  --      1.8839                 3.0384                 2.6530
 IR Inten    --      4.2395                15.6915                 9.8890

                     40                     41                     42
                      A                      A                      A
 Frequencies --   1498.0598              1503.7830              3027.7022
 Red. masses --      1.0545                 1.1343                 1.0809
 Frc consts  --      1.3943                 1.5112                 5.8378
 IR Inten    --      5.6785                 5.0164                 4.8654

                     43                     44                     45
                      A                      A                      A
 Frequencies --   3029.5911              3033.2318              3070.1306
 Red. masses --      1.0477                 1.0479                 1.1022
 Frc consts  --      5.6658                 5.6804                 6.1212
 IR Inten    --     10.1414                37.2939                17.2843

                     46                     47                     48
                      A                      A                      A
 Frequencies --   3089.9590              3100.4479              3101.9887
 Red. masses --      1.0873                 1.0872                 1.1004
 Frc consts  --      6.1167                 6.1574                 6.2382
 IR Inten    --     22.8915                32.3174                22.2857

                     49                     50                     51
                      A                      A                      A
 Frequencies --   3104.6857              3114.2130              3128.6085
 Red. masses --      1.1017                 1.0874                 1.0928
 Frc consts  --      6.2567                 6.2137                 6.3022
 IR Inten    --     28.6299                47.2349                43.7633

 - Thermochemistry -
 -------------------
 Temperature   298.150 Kelvin.  Pressure   1.00000 Atm.
 Atom     1 has atomic number  6 and mass  12.00000

 Molecular mass:   126.06808 amu.
 Principal axes and moments of inertia in atomic units:
                           1         2         3
     Eigenvalues --   676.871491064.929491444.46877
           X            0.99831   0.05486   0.01892
           Y           -0.05369   0.99688  -0.05782
           Z           -0.02203   0.05671   0.99815
 This molecule is an asymmetric top.
 Rotational symmetry number  1.
 Warning -- assumption of classical behavior for rotation
           may cause significant error
 Rotational temperatures (Kelvin)      0.12796     0.08133     0.05996
 Rotational constants (GHZ):           2.66630     1.69470     1.24942
 Zero-point vibrational energy     421147.5 (Joules/Mol)
                                  100.65666 (Kcal/Mol)
 Warning -- explicit consideration of  10 degrees of freedom as
           vibrations may cause significant error
 Vibrational temperatures:    161.02   289.22   348.34   375.32   452.91
          (Kelvin)            468.80   587.84   687.96   870.63   892.80
                              997.94  1106.28  1137.83  1213.70  1244.31
                             1290.74  1352.91  1377.35  1414.10  1453.48
                             1510.38  1548.19  1568.09  1602.67  1613.89
                             1676.87  1710.29  1784.90  1835.98  1867.46
                             1889.56  1946.13  1975.81  1987.14  2015.03
                             2032.92  2113.46  2118.66  2149.69  2155.37
                             2163.61  4356.18  4358.90  4364.14  4417.23
                             4445.76  4460.85  4463.06  4466.94  4480.65
                             4501.36

 Zero-point correction=                           0.160407 (Hartree/Particle)
 Thermal correction to Energy=                    0.168031
 Thermal correction to Enthalpy=                  0.168975
 Thermal correction to Gibbs Free Energy=         0.128532
 Sum of electronic and zero-point Energies=           -423.006053
 Sum of electronic and thermal Energies=              -422.998428
 Sum of electronic and thermal Enthalpies=            -422.997484
 Sum of electronic and thermal Free Energies=         -423.037927

                     E (Thermal)             CV                S
                      KCal/Mol        Cal/Mol-Kelvin    Cal/Mol-Kelvin
 Total                  105.441             30.242             85.119
 Electronic               0.000              0.000              0.000
 Translational            0.889              2.981             40.409
 Rotational               0.889              2.981             28.434
 Vibrational            103.664             24.280             16.277
 Vibration     1          0.607              1.940              3.235
 Vibration     2          0.638              1.838              2.124
 Vibration     3          0.658              1.776              1.787
 Vibration     4          0.669              1.744              1.656
 Vibration     5          0.702              1.645              1.337
 Vibration     6          0.710              1.624              1.281
 Vibration     7          0.773              1.452              0.932
 Vibration     8          0.835              1.299              0.715
 Vibration     9          0.964              1.021              0.441
 Vibration    10          0.981              0.989              0.416

 Optimization completed.
    -- Stationary point found.
 Normal termination of Gaussian 09 at Tue Jan 28 04:06:38 2020.
