 Gaussian 09, Revision D.01,
 Gaussian 09:  ES64L-G09RevD.01 24-Apr-2013

 -----------------------------
 # b3lyp 6-31G(2df,p) opt Freq
 -----------------------------

 -----
 titel
 -----
 Symbolic Z-matrix:
 Charge =  0 Multiplicity = 1

 SCF Done:  E(RB3LYP) =  -423.193320875     A.U. after   13 cycles
 Optimization completed.
    -- Stationary point found.
 Normal termination of Gaussian 09 at Mon Jan 27 18:13:50 2020.

 ----------------------------------------------------------------------
 #N Geom=AllCheck Guess=TCheck SCRF=Check GenChk RB3LYP/6-31G(2df,p) Fr
 eq
 ----------------------------------------------------------------------

 Structure from the checkpoint file:  "/scratch/puck/g09_a32cf035-b6c7-4b99-b65e-eef27055275e/Gau-42146.chk"
 -----
 titel
 -----
 Charge =  0 Multiplicity = 1

                         Standard orientation:
 ---------------------------------------------------------------------
 Center     Atomic      Atomic             Coordinates (Angstroms)
 Number     Number       Type             X           Y           Z
 ---------------------------------------------------------------------
      1          8           0       -2.268183   -0.627882    0.099893
      2          6           0       -0.988769   -0.083828   -0.058353
      3          6           0       -0.795470    1.422664   -0.349066
      4          6           0        0.582901    1.274133    0.338403
      5          8           0        1.545628    0.690959   -0.548798
      6          6           0        1.260850   -0.719003   -0.538120
      7          6           0        1.098913   -1.026410    0.961366
      8          6           0        0.038863    0.051204    1.147978
      9          6           0       -0.171733   -0.918693   -1.070023
     10          1           0       -2.778872   -0.036977    0.663180
     11          1           0       -0.817294    1.767463   -1.386148
     12          1           0       -1.465485    2.038409    0.263814
     13          1           0        1.031940    2.136531    0.831848
     14          1           0        2.052384   -1.231484   -1.084591
     15          1           0        0.734133   -2.038142    1.158062
     16          1           0        2.017241   -0.848110    1.527110
     17          1           0       -0.376775    0.249444    2.134793
     18          1           0       -0.297709   -0.572941   -2.098844
     19          1           0       -0.472450   -1.969212   -1.011101
 ---------------------------------------------------------------------

 SCF Done:  E(RB3LYP) =  -423.193320875     A.U. after    1 cycles

 The electronic state is 1-A.
 Alpha  occ. eigenvalues --  -19.14088 -19.13341 -10.23781 -10.22919 -10.22906
 Alpha  occ. eigenvalues --  -10.18417 -10.17941 -10.17761 -10.17595  -1.04014
 Alpha  occ. eigenvalues --   -1.02263  -0.84019  -0.77822  -0.72257  -0.64027
 Alpha  occ. eigenvalues --   -0.60572  -0.58780  -0.53315  -0.52893  -0.47487
 Alpha  occ. eigenvalues --   -0.47035  -0.43967  -0.42408  -0.41142  -0.40097
 Alpha  occ. eigenvalues --   -0.37233  -0.36290  -0.35916  -0.34506  -0.32702
 Alpha  occ. eigenvalues --   -0.31087  -0.28346  -0.25453  -0.24301
 Alpha virt. eigenvalues --    0.07662   0.09006   0.11788   0.12723   0.12986
 Alpha virt. eigenvalues --    0.15055   0.15544   0.16007   0.16602   0.17613
 Alpha virt. eigenvalues --    0.18508   0.18799   0.19538   0.21325   0.21351

 Mulliken charges:
               1
     1  O   -0.491939
     2  C    0.410983
     3  C   -0.304773
     4  C    0.104782
     5  O   -0.283084
     6  C    0.089327
     7  C   -0.237791
     8  C   -0.121941
     9  C   -0.259253
    10  H    0.274360
    11  H    0.102634
    12  H    0.083482
    13  H    0.076219
    14  H    0.075541
    15  H    0.104174
    16  H    0.102873
    17  H    0.063747
    18  H    0.102985
    19  H    0.107675
 Sum of Mulliken charges =   0.00000

 Dipole moment (field-independent basis, Debye):
    X=             -0.7033    Y=              0.2999    Z=              1.3429  Tot=              1.5453
 Quadrupole moment (field-independent basis, Debye-Ang):
   XX=            -54.8233   YY=            -52.4508   ZZ=            -51.5993
   XY=             -5.5290   XZ=             -1.3507   YZ=              1.9791

  Exact polarizability:  75.408  -4.257  74.962   0.305   1.736  69.517
 Approx polarizability: 109.942  -1.563 110.337  -2.341   2.163 104.752

                      1                      2                      3
                      A                      A                      A
 Frequencies --    239.0917               299.4678               318.9573
 Red. masses --      2.2432                 3.1886                 1.3074
 Frc consts  --      0.0756                 0.1685                 0.0784
 IR Inten    --      5.9125                 3.9992                86.5703

                      4                      5                      6
                      A                      A                      A
 Frequencies --    397.9740               417.4404               453.0078
 Red. masses --      3.6685                 2.4087                 1.8330
 Frc consts  --      0.3423                 0.2473                 0.2216
 IR Inten    --      2.3971                 4.0682                 2.9185

                      7                      8                      9
                      A                      A                      A
 Frequencies --    488.6967               563.8671               614.6671
 Red. masses --      2.2862                 4.2051                 4.4552
 Frc consts  --      0.3217                 0.7877                 0.9917
 IR Inten    --      4.2001                 5.7701                 1.2524

                     10                     11                     12
                      A                      A                      A
 Frequencies --    680.5403               786.7364               824.3219
 Red. masses --      4.0900                 4.5307                 2.1826
 Frc consts  --      1.1161                 1.6522                 0.8738
 IR Inten    --      2.8882                 1.3317                10.0805

                     13                     14                     15
                      A                      A                      A
 Frequencies --    857.9409               878.7928               886.0894
 Red. masses --      2.5537                 2.5543                 2.7766
 Frc consts  --      1.1075                 1.1622                 1.2844
 IR Inten    --      5.9644                 2.5936                 2.3526

                     16                     17                     18
                      A                      A                      A
 Frequencies --    915.4347               929.1347               940.8178
 Red. masses --      2.5830                 2.0320                 2.2819
 Frc consts  --      1.2754                 1.0335                 1.1900
 IR Inten    --     15.1199                14.6142                11.7130

                     19                     20                     21
                      A                      A                      A
 Frequencies --    954.2085               982.1686               995.3360
 Red. masses --      1.9701                 2.3032                 1.7986
 Frc consts  --      1.0569                 1.3091                 1.0499
 IR Inten    --      3.7328                12.6569                 0.3228

                     22                     23                     24
                      A                      A                      A
 Frequencies --   1018.5460              1044.3256              1089.8018
 Red. masses --      1.4911                 1.5199                 2.4389
 Frc consts  --      0.9114                 0.9767                 1.7067
 IR Inten    --     13.9237                23.9118                76.5204

                     25                     26                     27
                      A                      A                      A
 Frequencies --   1112.4589              1140.9917              1160.2882
 Red. masses --      1.5768                 1.3774                 2.0042
 Frc consts  --      1.1497                 1.0565                 1.5897
 IR Inten    --      2.7379                38.9641                 7.7825

                     28                     29                     30
                      A                      A                      A
 Frequencies --   1182.4480              1204.5468              1230.6128
 Red. masses --      1.3842                 1.7817                 1.7493
 Frc consts  --      1.1403                 1.5231                 1.5608
 IR Inten    --      6.5707                 8.7345                12.8931

                     31                     32                     33
                      A                      A                      A
 Frequencies --   1247.0177              1263.5005              1291.9019
 Red. masses --      1.6908                 2.1938                 1.5369
 Frc consts  --      1.5491                 2.0635                 1.5113
 IR Inten    --      5.3788                20.7967                 8.9049

                     34                     35                     36
                      A                      A                      A
 Frequencies --   1297.8323              1309.6251              1333.9873
 Red. masses --      1.7282                 1.2888                 1.8540
 Frc consts  --      1.7150                 1.3024                 1.9439
 IR Inten    --     35.4296                 1.0323               100.2831

                     37                     38                     39
                      A                      A                      A
 Frequencies --   1369.5630              1394.4148              1468.5990
 Red. masses --      1.4438                 1.8011                 1.1072
 Frc consts  --      1.5956                 2.0633                 1.4070
 IR Inten    --      0.5566                11.7259                 2.4009

                     40                     41                     42
                      A                      A                      A
 Frequencies --   1481.2127              1495.9628              3030.2886
 Red. masses --      1.1434                 1.1156                 1.0610
 Frc consts  --      1.4780                 1.4710                 5.7401
 IR Inten    --      4.2883                 0.9290                33.9532

                     43                     44                     45
                      A                      A                      A
 Frequencies --   3057.5496              3063.4905              3101.9617
 Red. masses --      1.0590                 1.0586                 1.1039
 Frc consts  --      5.8332                 5.8534                 6.2583
 IR Inten    --     23.3169                19.2824                19.5368

                     46                     47                     48
                      A                      A                      A
 Frequencies --   3104.4825              3111.6324              3117.2713
 Red. masses --      1.0903                 1.1056                 1.1072
 Frc consts  --      6.1912                 6.3072                 6.3393
 IR Inten    --     46.9115                24.5900                20.9341

                     49                     50                     51
                      A                      A                      A
 Frequencies --   3123.7499              3132.0522              3808.6528
 Red. masses --      1.0894                 1.0912                 1.0658
 Frc consts  --      6.2633                 6.3067                 9.1089
 IR Inten    --     53.1771                14.2523                14.6834

 - Thermochemistry -
 -------------------
 Temperature   298.150 Kelvin.  Pressure   1.00000 Atm.
 Atom     1 has atomic number  8 and mass  15.99491

 Molecular mass:   126.06808 amu.
 Principal axes and moments of inertia in atomic units:
                           1         2         3
     Eigenvalues --   639.23207 962.137111101.37364
           X            0.99705  -0.07577   0.01198
           Y            0.07540   0.99673   0.02911
           Z           -0.01415  -0.02812   0.99950
 This molecule is an asymmetric top.
 Rotational symmetry number  1.
 Warning -- assumption of classical behavior for rotation
           may cause significant error
 Rotational temperatures (Kelvin)      0.13550     0.09002     0.07864
 Rotational constants (GHZ):           2.82330     1.87576     1.63863
 Zero-point vibrational energy     425951.1 (Joules/Mol)
                                  101.80475 (Kcal/Mol)
 Warning -- explicit consideration of   9 degrees of freedom as
           vibrations may cause significant error
 Vibrational temperatures:    344.00   430.87   458.91   572.60   600.60
          (Kelvin)            651.78   703.12   811.28   884.37   979.14
                             1131.94  1186.01  1234.38  1264.39  1274.88
                             1317.10  1336.82  1353.63  1372.89  1413.12
                             1432.06  1465.46  1502.55  1567.98  1600.58
                             1641.63  1669.39  1701.28  1733.07  1770.58
                             1794.18  1817.89  1858.76  1867.29  1884.26
                             1919.31  1970.49  2006.25  2112.98  2131.13
                             2152.35  4359.90  4399.13  4407.67  4463.03
                             4466.65  4476.94  4485.05  4494.37  4506.32
                             5479.80

 Zero-point correction=                           0.162236 (Hartree/Particle)
 Thermal correction to Energy=                    0.168847
 Thermal correction to Enthalpy=                  0.169791
 Thermal correction to Gibbs Free Energy=         0.131832
 Sum of electronic and zero-point Energies=           -423.031085
 Sum of electronic and thermal Energies=              -423.024474
 Sum of electronic and thermal Enthalpies=            -423.023530
 Sum of electronic and thermal Free Energies=         -423.061489

                     E (Thermal)             CV                S
                      KCal/Mol        Cal/Mol-Kelvin    Cal/Mol-Kelvin
 Total                  105.953             28.774             79.890
 Electronic               0.000              0.000              0.000
 Translational            0.889              2.981             40.409
 Rotational               0.889              2.981             28.007
 Vibrational            104.175             22.812             11.475
 Vibration     1          0.657              1.781              1.810
 Vibration     2          0.692              1.675              1.420
 Vibration     3          0.705              1.637              1.315
 Vibration     4          0.764              1.474              0.970
 Vibration     5          0.780              1.432              0.901
 Vibration     6          0.812              1.354              0.787
 Vibration     7          0.845              1.275              0.687
 Vibration     8          0.920              1.109              0.516
 Vibration     9          0.974              1.001              0.425

 Optimization completed.
    -- Stationary point found.
 Normal termination of Gaussian 09 at Mon Jan 27 19:05:48 2020.
