 Gaussian 09, Revision D.01,
 Gaussian 09:  ES64L-G09RevD.01 24-Apr-2013

 -----------------------------
 # b3lyp 6-31G(2df,p) opt Freq
 -----------------------------

 -----
 titel
 -----
 Symbolic Z-matrix:
 Charge =  0 Multiplicity = 1

 SCF Done:  E(RB3LYP) =  -423.165712048     A.U. after   14 cycles
 Optimization completed.
    -- Stationary point found.
 Normal termination of Gaussian 09 at Tue Jan 28 08:09:37 2020.

 ----------------------------------------------------------------------
 #N Geom=AllCheck Guess=TCheck SCRF=Check GenChk RB3LYP/6-31G(2df,p) Fr
 eq
 ----------------------------------------------------------------------

 Structure from the checkpoint file:  "/scratch/puck/g09_ec207b0b-5380-4b3f-8086-42b05b3053b7/Gau-127987.chk"
 -----
 titel
 -----
 Charge =  0 Multiplicity = 1

                         Standard orientation:
 ---------------------------------------------------------------------
 Center     Atomic      Atomic             Coordinates (Angstroms)
 Number     Number       Type             X           Y           Z
 ---------------------------------------------------------------------
      1          6           0       -3.010109    0.449523   -0.020734
      2          6           0       -1.619774    0.385059    0.605868
      3          6           0       -0.612368   -0.343612   -0.260361
      4          8           0       -0.903544   -0.917077   -1.280150
      5          6           0        0.876913   -0.303551    0.217212
      6          6           0        1.645805   -1.514105   -0.325836
      7          8           0        0.838721   -0.306699    1.645656
      8          6           0        1.449392    0.954631   -0.278620
      9          6           0        1.924498    1.989655   -0.665301
     10          1           0       -2.988031    0.982525   -0.975261
     11          1           0       -3.396987   -0.553312   -0.218151
     12          1           0       -3.707012    0.964764    0.646084
     13          1           0       -1.218573    1.382988    0.821890
     14          1           0       -1.636026   -0.120712    1.578711
     15          1           0        1.226597   -2.427114    0.104091
     16          1           0        1.558385   -1.563230   -1.411891
     17          1           0        2.702135   -1.441271   -0.052417
     18          1           0        1.708906   -0.042147    1.962687
     19          1           0        2.343050    2.902118   -1.013165
 ---------------------------------------------------------------------

 SCF Done:  E(RB3LYP) =  -423.165712048     A.U. after    1 cycles

 The electronic state is 1-A.
 Alpha  occ. eigenvalues --  -19.15520 -19.13615 -10.27215 -10.27157 -10.19487
 Alpha  occ. eigenvalues --  -10.19088 -10.18860 -10.18220 -10.17304  -1.05229
 Alpha  occ. eigenvalues --   -1.03546  -0.79951  -0.77298  -0.73741  -0.67824
 Alpha  occ. eigenvalues --   -0.62900  -0.56909  -0.52484  -0.51653  -0.48894
 Alpha  occ. eigenvalues --   -0.46157  -0.44720  -0.42444  -0.40581  -0.39624
 Alpha  occ. eigenvalues --   -0.38185  -0.37003  -0.36298  -0.35804  -0.33977
 Alpha  occ. eigenvalues --   -0.30162  -0.28839  -0.28324  -0.24360
 Alpha virt. eigenvalues --   -0.02401   0.03152   0.05297   0.08222   0.10836
 Alpha virt. eigenvalues --    0.11700   0.14341   0.14955   0.15816   0.16115
 Alpha virt. eigenvalues --    0.17161   0.17786   0.19635   0.20777   0.22646

 Mulliken charges:
               1
     1  C   -0.386169
     2  C   -0.273482
     3  C    0.371958
     4  O   -0.306003
     5  C    0.087448
     6  C   -0.411372
     7  O   -0.447431
     8  C    0.338247
     9  C   -0.506386
    10  H    0.127987
    11  H    0.131844
    12  H    0.110163
    13  H    0.131174
    14  H    0.144431
    15  H    0.128786
    16  H    0.150256
    17  H    0.111669
    18  H    0.288840
    19  H    0.208039
 Sum of Mulliken charges =   0.00000

 Dipole moment (field-independent basis, Debye):
    X=              1.6068    Y=              1.3617    Z=              1.4515  Tot=              2.5579
 Quadrupole moment (field-independent basis, Debye-Ang):
   XX=            -48.5883   YY=            -50.2274   ZZ=            -55.7657
   XY=              0.5590   XZ=             -0.8724   YZ=             -2.5644

  Exact polarizability:  84.903   6.747  81.561  -2.402  -2.468  67.912
 Approx polarizability: 107.162  18.809 127.724  -2.857  -4.794 110.203

                      1                      2                      3
                      A                      A                      A
 Frequencies --     42.2331                73.9506               130.5475
 Red. masses --      5.0596                 1.9652                 3.2747
 Frc consts  --      0.0053                 0.0063                 0.0329
 IR Inten    --      3.1924                 0.3602                 0.6403

                      4                      5                      6
                      A                      A                      A
 Frequencies --    172.6412               195.1054               198.3397
 Red. masses --      2.6658                 2.3217                 1.3401
 Frc consts  --      0.0468                 0.0521                 0.0311
 IR Inten    --      6.0423                 3.3009                 0.4587

                      7                      8                      9
                      A                      A                      A
 Frequencies --    217.0921               234.4304               306.7244
 Red. masses --      1.0822                 1.2591                 2.8590
 Frc consts  --      0.0301                 0.0408                 0.1585
 IR Inten    --      1.2052                77.5532                 8.6669

                     10                     11                     12
                      A                      A                      A
 Frequencies --    309.0601               361.4061               406.8425
 Red. masses --      4.0379                 4.0157                 4.0021
 Frc consts  --      0.2272                 0.3090                 0.3903
 IR Inten    --     12.9632                 5.8024                 1.6618

                     13                     14                     15
                      A                      A                      A
 Frequencies --    466.0815               557.5402               579.9520
 Red. masses --      7.6039                 2.2883                 5.5936
 Frc consts  --      0.9732                 0.4191                 1.1085
 IR Inten    --      8.8942                 0.7859                 9.4207

                     16                     17                     18
                      A                      A                      A
 Frequencies --    619.7471               636.9181               666.8665
 Red. masses --      3.5691                 1.2501                 1.2478
 Frc consts  --      0.8077                 0.2988                 0.3269
 IR Inten    --      4.8895                52.8347                35.6785

                     19                     20                     21
                      A                      A                      A
 Frequencies --    724.4807               805.7836               836.2005
 Red. masses --      3.5391                 1.5552                 2.7138
 Frc consts  --      1.0944                 0.5950                 1.1180
 IR Inten    --      5.9864                 6.0559                 8.8291

                     22                     23                     24
                      A                      A                      A
 Frequencies --    939.4801               988.0116              1030.1448
 Red. masses --      2.0617                 2.4722                 1.9860
 Frc consts  --      1.0721                 1.4219                 1.2417
 IR Inten    --      8.7830                34.0404                37.4268

                     25                     26                     27
                      A                      A                      A
 Frequencies --   1080.6918              1096.1230              1127.9111
 Red. masses --      1.6557                 1.6957                 2.1684
 Frc consts  --      1.1393                 1.2004                 1.6253
 IR Inten    --      0.9546                33.0682                70.5905

                     28                     29                     30
                      A                      A                      A
 Frequencies --   1156.1602              1183.3155              1271.6668
 Red. masses --      4.9757                 3.1191                 1.2068
 Frc consts  --      3.9187                 2.5732                 1.1498
 IR Inten    --     36.0473                33.4041                 1.5908

                     31                     32                     33
                      A                      A                      A
 Frequencies --   1348.1289              1374.1750              1398.5146
 Red. masses --      1.4710                 1.8027                 1.2382
 Frc consts  --      1.5752                 2.0057                 1.4269
 IR Inten    --     51.9322                12.4702                 9.1274

                     34                     35                     36
                      A                      A                      A
 Frequencies --   1414.6504              1441.3446              1480.3960
 Red. masses --      1.2270                 1.0843                 1.0509
 Frc consts  --      1.4468                 1.3272                 1.3570
 IR Inten    --      3.8328                12.8246                 3.3231

                     37                     38                     39
                      A                      A                      A
 Frequencies --   1484.5600              1494.0667              1499.1063
 Red. masses --      1.0603                 1.0385                 1.0503
 Frc consts  --      1.3768                 1.3658                 1.3907
 IR Inten    --      7.0246                 5.6219                 6.7944

                     40                     41                     42
                      A                      A                      A
 Frequencies --   1819.6862              2223.3663              3043.8320
 Red. masses --     11.7848                 5.9172                 1.0621
 Frc consts  --     22.9913                17.2342                 5.7979
 IR Inten    --    124.7805                 1.3662                10.2725

                     43                     44                     45
                      A                      A                      A
 Frequencies --   3050.1406              3051.8739              3070.4714
 Red. masses --      1.0353                 1.0352                 1.0968
 Frc consts  --      5.6749                 5.6805                 6.0926
 IR Inten    --     25.4568                12.5716                 2.3742

                     46                     47                     48
                      A                      A                      A
 Frequencies --   3120.4580              3126.4990              3127.7771
 Red. masses --      1.1020                 1.1015                 1.1028
 Frc consts  --      6.3222                 6.3439                 6.3562
 IR Inten    --     21.3925                17.3603                17.8938

                     49                     50                     51
                      A                      A                      A
 Frequencies --   3153.5656              3498.2521              3813.3096
 Red. masses --      1.1011                 1.1618                 1.0665
 Frc consts  --      6.4520                 8.3770                 9.1374
 IR Inten    --      6.3260                68.2075                28.5926

 - Thermochemistry -
 -------------------
 Temperature   298.150 Kelvin.  Pressure   1.00000 Atm.
 Atom     1 has atomic number  6 and mass  12.00000

 Molecular mass:   126.06808 amu.
 Principal axes and moments of inertia in atomic units:
                           1         2         3
     Eigenvalues --   802.593421548.141391677.03860
           X            0.99904  -0.04144  -0.01442
           Y            0.04139   0.99914  -0.00357
           Z            0.01455   0.00297   0.99989
 This molecule is an asymmetric top.
 Rotational symmetry number  1.
 Warning -- assumption of classical behavior for rotation
           may cause significant error
 Rotational temperatures (Kelvin)      0.10792     0.05595     0.05165
 Rotational constants (GHZ):           2.24864     1.16575     1.07615
 Zero-point vibrational energy     403438.3 (Joules/Mol)
                                   96.42408 (Kcal/Mol)
 Warning -- explicit consideration of  16 degrees of freedom as
           vibrations may cause significant error
 Vibrational temperatures:     60.76   106.40   187.83   248.39   280.71
          (Kelvin)            285.37   312.35   337.29   441.31   444.67
                              519.98   585.35   670.59   802.17   834.42
                              891.68   916.38   959.47  1042.36  1159.34
                             1203.10  1351.70  1421.53  1482.15  1554.87
                             1577.07  1622.81  1663.45  1702.52  1829.64
                             1939.65  1977.13  2012.15  2035.36  2073.77
                             2129.96  2135.95  2149.63  2156.88  2618.12
                             3198.92  4379.39  4388.47  4390.96  4417.72
                             4489.64  4498.33  4500.17  4537.27  5033.20
                             5486.50

 Zero-point correction=                           0.153662 (Hartree/Particle)
 Thermal correction to Energy=                    0.164636
 Thermal correction to Enthalpy=                  0.165580
 Thermal correction to Gibbs Free Energy=         0.117419
 Sum of electronic and zero-point Energies=           -423.012051
 Sum of electronic and thermal Energies=              -423.001076
 Sum of electronic and thermal Enthalpies=            -423.000132
 Sum of electronic and thermal Free Energies=         -423.048293

                     E (Thermal)             CV                S
                      KCal/Mol        Cal/Mol-Kelvin    Cal/Mol-Kelvin
 Total                  103.311             39.219            101.365
 Electronic               0.000              0.000              0.000
 Translational            0.889              2.981             40.409
 Rotational               0.889              2.981             29.123
 Vibrational            101.533             33.258             31.833
 Vibration     1          0.595              1.980              5.151
 Vibration     2          0.599              1.966              4.045
 Vibration     3          0.612              1.923              2.938
 Vibration     4          0.626              1.876              2.407
 Vibration     5          0.636              1.847              2.179
 Vibration     6          0.637              1.842              2.148
 Vibration     7          0.646              1.815              1.983
 Vibration     8          0.654              1.788              1.845
 Vibration     9          0.697              1.661              1.380
 Vibration    10          0.698              1.656              1.367
 Vibration    11          0.736              1.552              1.116
 Vibration    12          0.772              1.455              0.938
 Vibration    13          0.823              1.325              0.749
 Vibration    14          0.913              1.123              0.529
 Vibration    15          0.937              1.075              0.485
 Vibration    16          0.980              0.990              0.417

 Normal termination of Gaussian 09 at Tue Jan 28 08:48:08 2020.
