 Gaussian 09, Revision D.01,
 Gaussian 09:  ES64L-G09RevD.01 24-Apr-2013

 -----------------------------
 # b3lyp 6-31G(2df,p) opt Freq
 -----------------------------

 -----
 titel
 -----
 Symbolic Z-matrix:
 Charge =  0 Multiplicity = 1

 SCF Done:  E(RB3LYP) =  -423.193054383     A.U. after   13 cycles
 Optimization completed.
    -- Stationary point found.
 Normal termination of Gaussian 09 at Mon Jan 27 11:16:25 2020.

 ----------------------------------------------------------------------
 #N Geom=AllCheck Guess=TCheck SCRF=Check GenChk RB3LYP/6-31G(2df,p) Fr
 eq
 ----------------------------------------------------------------------

 Structure from the checkpoint file:  "/scratch/puck/g09_61b52222-d054-4f15-85f1-073aafbb2c40/Gau-69968.chk"
 -----
 titel
 -----
 Charge =  0 Multiplicity = 1

                         Standard orientation:
 ---------------------------------------------------------------------
 Center     Atomic      Atomic             Coordinates (Angstroms)
 Number     Number       Type             X           Y           Z
 ---------------------------------------------------------------------
      1          6           0        2.155459   -0.389340    0.316303
      2          6           0        1.381314    0.448844   -0.675402
      3          6           0        0.466355    1.572467   -0.187167
      4          6           0       -0.812507    1.006928    0.440647
      5          8           0       -1.677087    0.487085   -0.567015
      6          6           0       -1.548384   -0.934261   -0.553123
      7          6           0       -0.334972   -1.160156    0.360064
      8          8           0       -0.504173   -0.082604    1.289919
      9          6           0        0.970982   -0.985325   -0.394564
     10          1           0        3.145185   -0.731635    0.034605
     11          1           0        2.034050   -0.152692    1.367669
     12          1           0        1.872974    0.633796   -1.624522
     13          1           0        0.978706    2.204949    0.547836
     14          1           0        0.174052    2.217067   -1.021642
     15          1           0       -1.356369    1.754572    1.026735
     16          1           0       -2.456062   -1.392902   -0.139839
     17          1           0       -1.393359   -1.298028   -1.573971
     18          1           0       -0.375622   -2.096210    0.922628
     19          1           0        1.157037   -1.729705   -1.163275
 ---------------------------------------------------------------------

 SCF Done:  E(RB3LYP) =  -423.193054383     A.U. after    1 cycles

 The electronic state is 1-A.
 Alpha  occ. eigenvalues --  -19.14744 -19.13716 -10.27271 -10.23797 -10.22753
 Alpha  occ. eigenvalues --  -10.19290 -10.19140 -10.18145 -10.18094  -1.08667
 Alpha  occ. eigenvalues --   -0.98800  -0.86109  -0.78449  -0.70787  -0.64771
 Alpha  occ. eigenvalues --   -0.61181  -0.58657  -0.54779  -0.52545  -0.49216
 Alpha  occ. eigenvalues --   -0.46882  -0.46330  -0.43048  -0.41886  -0.40694
 Alpha  occ. eigenvalues --   -0.39402  -0.37591  -0.35583  -0.34515  -0.32840
 Alpha  occ. eigenvalues --   -0.28556  -0.27965  -0.26605  -0.24607
 Alpha virt. eigenvalues --    0.08372   0.10666   0.11466   0.12026   0.13054
 Alpha virt. eigenvalues --    0.13949   0.14572   0.15753   0.16411   0.17051
 Alpha virt. eigenvalues --    0.17501   0.18421   0.19670   0.22485   0.23653

 Mulliken charges:
               1
     1  C   -0.302223
     2  C   -0.024108
     3  C   -0.251826
     4  C    0.202551
     5  O   -0.277010
     6  C   -0.079858
     7  C    0.025857
     8  O   -0.258685
     9  C   -0.025326
    10  H    0.106968
    11  H    0.124719
    12  H    0.085760
    13  H    0.101569
    14  H    0.111149
    15  H    0.085353
    16  H    0.098636
    17  H    0.104202
    18  H    0.087585
    19  H    0.084687
 Sum of Mulliken charges =   0.00000

 Dipole moment (field-independent basis, Debye):
    X=              0.9703    Y=             -0.7685    Z=             -0.6769  Tot=              1.4107
 Quadrupole moment (field-independent basis, Debye-Ang):
   XX=            -54.4417   YY=            -49.2459   ZZ=            -54.6588
   XY=              1.4005   XZ=             -1.5023   YZ=              1.7602

  Exact polarizability:  77.692   1.467  76.958   0.376   1.924  64.460
 Approx polarizability: 103.927   0.899 112.241   2.674   1.798 102.442

                      1                      2                      3
                      A                      A                      A
 Frequencies --    144.3272               217.0961               298.4952
 Red. masses --      3.2527                 2.4645                 3.4960
 Frc consts  --      0.0399                 0.0684                 0.1835
 IR Inten    --      2.2302                 1.0644                 0.8685

                      4                      5                      6
                      A                      A                      A
 Frequencies --    376.0428               407.5892               466.9336
 Red. masses --      2.7956                 2.2503                 4.5175
 Frc consts  --      0.2329                 0.2203                 0.5803
 IR Inten    --      2.3948                 0.2866                 4.9734

                      7                      8                      9
                      A                      A                      A
 Frequencies --    561.5242               670.4146               744.3833
 Red. masses --      4.0533                 5.3020                 2.1803
 Frc consts  --      0.7530                 1.4040                 0.7118
 IR Inten    --      1.2346                 6.7142                 2.5094

                     10                     11                     12
                      A                      A                      A
 Frequencies --    790.0546               796.7335               828.3094
 Red. masses --      3.6426                 4.6838                 1.5001
 Frc consts  --      1.3396                 1.7518                 0.6064
 IR Inten    --      3.1162                 1.3454                 2.7846

                     13                     14                     15
                      A                      A                      A
 Frequencies --    852.9932               864.9528               907.7234
 Red. masses --      2.6013                 2.6694                 2.2584
 Frc consts  --      1.1151                 1.1766                 1.0964
 IR Inten    --     11.3570                37.7147                17.1385

                     16                     17                     18
                      A                      A                      A
 Frequencies --    924.6427               960.8084               989.5698
 Red. masses --      3.0342                 2.0435                 2.2427
 Frc consts  --      1.5284                 1.1115                 1.2939
 IR Inten    --     19.1060                24.3458                 7.5388

                     19                     20                     21
                      A                      A                      A
 Frequencies --   1014.5151              1039.4027              1054.4168
 Red. masses --      2.7085                 4.5407                 2.4439
 Frc consts  --      1.6425                 2.8903                 1.6009
 IR Inten    --     24.1584                20.7806                 9.6216

                     22                     23                     24
                      A                      A                      A
 Frequencies --   1071.4240              1078.2873              1115.2704
 Red. masses --      2.0032                 1.4338                 1.4969
 Frc consts  --      1.3548                 0.9822                 1.0970
 IR Inten    --     10.5520                 4.2504                29.4641

                     25                     26                     27
                      A                      A                      A
 Frequencies --   1123.7632              1134.9521              1159.4781
 Red. masses --      1.4417                 1.4364                 3.1687
 Frc consts  --      1.0727                 1.0901                 2.5099
 IR Inten    --      5.9765                16.3125               100.9491

                     28                     29                     30
                      A                      A                      A
 Frequencies --   1209.5183              1217.1445              1233.8131
 Red. masses --      1.2032                 1.3258                 1.2148
 Frc consts  --      1.0370                 1.1572                 1.0895
 IR Inten    --      2.1830                 2.2522                 1.9254

                     31                     32                     33
                      A                      A                      A
 Frequencies --   1282.6126              1318.8963              1333.7824
 Red. masses --      1.3609                 1.5149                 1.3908
 Frc consts  --      1.3190                 1.5526                 1.4578
 IR Inten    --      0.6261                 4.3063                10.1979

                     34                     35                     36
                      A                      A                      A
 Frequencies --   1348.9332              1373.4435              1383.2473
 Red. masses --      1.4075                 1.6990                 1.4048
 Frc consts  --      1.5090                 1.8883                 1.5837
 IR Inten    --      5.8622                 9.7220                 4.8405

                     37                     38                     39
                      A                      A                      A
 Frequencies --   1400.4284              1410.6096              1473.7329
 Red. masses --      1.4187                 1.6407                 1.1581
 Frc consts  --      1.6393                 1.9235                 1.4820
 IR Inten    --      3.4374                 8.4034                 2.1084

                     40                     41                     42
                      A                      A                      A
 Frequencies --   1486.6357              1518.5630              3015.9516
 Red. masses --      1.3028                 1.0968                 1.0630
 Frc consts  --      1.6965                 1.4901                 5.6967
 IR Inten    --      2.5181                 1.2021                68.2122

                     43                     44                     45
                      A                      A                      A
 Frequencies --   3032.9118              3064.9194              3075.0598
 Red. masses --      1.0648                 1.0878                 1.1009
 Frc consts  --      5.7706                 6.0205                 6.1335
 IR Inten    --     20.5873                80.0451                20.5183

                     46                     47                     48
                      A                      A                      A
 Frequencies --   3085.0596              3086.4705              3133.5787
 Red. masses --      1.0895                 1.0991                 1.0539
 Frc consts  --      6.1096                 6.1690                 6.0970
 IR Inten    --     38.7809                15.5705                15.0692

                     49                     50                     51
                      A                      A                      A
 Frequencies --   3147.3156              3160.0417              3223.5069
 Red. masses --      1.0881                 1.0910                 1.1164
 Frc consts  --      6.3503                 6.4187                 6.8348
 IR Inten    --     15.3601                18.8863                 8.3057

 - Thermochemistry -
 -------------------
 Temperature   298.150 Kelvin.  Pressure   1.00000 Atm.
 Atom     1 has atomic number  6 and mass  12.00000

 Molecular mass:   126.06808 amu.
 Principal axes and moments of inertia in atomic units:
                           1         2         3
     Eigenvalues --   618.34201 962.685181153.23769
           X            0.99960   0.02826  -0.00197
           Y           -0.02818   0.99905   0.03338
           Z            0.00291  -0.03331   0.99944
 This molecule is an asymmetric top.
 Rotational symmetry number  1.
 Warning -- assumption of classical behavior for rotation
           may cause significant error
 Rotational temperatures (Kelvin)      0.14007     0.08997     0.07510
 Rotational constants (GHZ):           2.91868     1.87470     1.56493
 Zero-point vibrational energy     428324.6 (Joules/Mol)
                                  102.37203 (Kcal/Mol)
 Warning -- explicit consideration of   7 degrees of freedom as
           vibrations may cause significant error
 Vibrational temperatures:    207.65   312.35   429.47   541.04   586.43
          (Kelvin)            671.81   807.91   964.58  1071.00  1136.71
                             1146.32  1191.75  1227.27  1244.47  1306.01
                             1330.35  1382.39  1423.77  1459.66  1495.47
                             1517.07  1541.54  1551.41  1604.62  1616.84
                             1632.94  1668.23  1740.22  1751.20  1775.18
                             1845.39  1897.60  1919.01  1940.81  1976.08
                             1990.18  2014.90  2029.55  2120.37  2138.93
                             2184.87  4339.28  4363.68  4409.73  4424.32
                             4438.71  4440.74  4508.52  4528.28  4546.59
                             4637.90

 Zero-point correction=                           0.163140 (Hartree/Particle)
 Thermal correction to Energy=                    0.169784
 Thermal correction to Enthalpy=                  0.170728
 Thermal correction to Gibbs Free Energy=         0.132350
 Sum of electronic and zero-point Energies=           -423.029914
 Sum of electronic and thermal Energies=              -423.023270
 Sum of electronic and thermal Enthalpies=            -423.022326
 Sum of electronic and thermal Free Energies=         -423.060705

                     E (Thermal)             CV                S
                      KCal/Mol        Cal/Mol-Kelvin    Cal/Mol-Kelvin
 Total                  106.541             27.655             80.775
 Electronic               0.000              0.000              0.000
 Translational            0.889              2.981             40.409
 Rotational               0.889              2.981             28.020
 Vibrational            104.764             21.693             12.346
 Vibration     1          0.616              1.909              2.746
 Vibration     2          0.646              1.815              1.983
 Vibration     3          0.692              1.677              1.425
 Vibration     4          0.747              1.521              1.055
 Vibration     5          0.772              1.454              0.935
 Vibration     6          0.824              1.323              0.746
 Vibration     7          0.917              1.115              0.521

 Optimization completed.
    -- Stationary point found.
 Normal termination of Gaussian 09 at Mon Jan 27 12:10:44 2020.
