 Gaussian 09, Revision D.01,
 Gaussian 09:  ES64L-G09RevD.01 24-Apr-2013

 -----------------------------
 # b3lyp 6-31G(2df,p) opt Freq
 -----------------------------

 -----
 titel
 -----
 Symbolic Z-matrix:
 Charge =  0 Multiplicity = 1

 SCF Done:  E(RB3LYP) =  -423.199710837     A.U. after   14 cycles
 Optimization completed.
    -- Stationary point found.
 Normal termination of Gaussian 09 at Mon Jan 27 16:56:24 2020.

 ----------------------------------------------------------------------
 #N Geom=AllCheck Guess=TCheck SCRF=Check GenChk RB3LYP/6-31G(2df,p) Fr
 eq
 ----------------------------------------------------------------------

 Structure from the checkpoint file:  "/scratch/puck/g09_8352a665-fd38-48fe-9506-258d87313c52/Gau-178210.chk"
 -----
 titel
 -----
 Charge =  0 Multiplicity = 1

                         Standard orientation:
 ---------------------------------------------------------------------
 Center     Atomic      Atomic             Coordinates (Angstroms)
 Number     Number       Type             X           Y           Z
 ---------------------------------------------------------------------
      1          6           0        1.585855    0.825002    1.243375
      2          6           0        0.582050    0.178410    0.284601
      3          6           0       -0.398747   -0.748674    1.036451
      4          8           0       -1.453764   -1.189877    0.203233
      5          6           0       -2.298503   -0.137875   -0.221782
      6          6           0       -1.542849    1.081826   -0.666018
      7          6           0       -0.236981    1.223848   -0.448512
      8          6           0        1.307767   -0.639649   -0.788332
      9          8           0        2.485211   -0.564795   -1.030066
     10          1           0        2.137866    0.063513    1.803377
     11          1           0        2.318315    1.413890    0.686707
     12          1           0        1.074752    1.479678    1.955324
     13          1           0        0.106488   -1.652459    1.391842
     14          1           0       -0.789821   -0.210151    1.914681
     15          1           0       -2.897522   -0.542151   -1.045921
     16          1           0       -3.007289    0.136526    0.581144
     17          1           0       -2.118721    1.860879   -1.158452
     18          1           0        0.296468    2.105779   -0.793435
     19          1           0        0.636333   -1.315453   -1.359302
 ---------------------------------------------------------------------

 SCF Done:  E(RB3LYP) =  -423.199710837     A.U. after    1 cycles

 The electronic state is 1-A.
 Alpha  occ. eigenvalues --  -19.15247 -19.13807 -10.26530 -10.24278 -10.23951
 Alpha  occ. eigenvalues --  -10.20759 -10.19760 -10.19660 -10.18147  -1.04900
 Alpha  occ. eigenvalues --   -1.04369  -0.83178  -0.78586  -0.70690  -0.65493
 Alpha  occ. eigenvalues --   -0.65334  -0.58035  -0.52251  -0.51328  -0.49355
 Alpha  occ. eigenvalues --   -0.47475  -0.45352  -0.44012  -0.42526  -0.40832
 Alpha  occ. eigenvalues --   -0.39581  -0.38387  -0.38237  -0.37060  -0.34862
 Alpha  occ. eigenvalues --   -0.32047  -0.27615  -0.26282  -0.23852
 Alpha virt. eigenvalues --   -0.03021   0.02622   0.08709   0.10170   0.12121
 Alpha virt. eigenvalues --    0.12984   0.13698   0.14365   0.15497   0.16265
 Alpha virt. eigenvalues --    0.17244   0.18476   0.18691   0.20717   0.22197

 Mulliken charges:
               1
     1  C   -0.438300
     2  C    0.117718
     3  C   -0.129759
     4  O   -0.250361
     5  C   -0.122831
     6  C   -0.088075
     7  C   -0.089123
     8  C    0.139375
     9  O   -0.257886
    10  H    0.123232
    11  H    0.137619
    12  H    0.115061
    13  H    0.115962
    14  H    0.097785
    15  H    0.124561
    16  H    0.105536
    17  H    0.102510
    18  H    0.102031
    19  H    0.094946
 Sum of Mulliken charges =   0.00000

 Dipole moment (field-independent basis, Debye):
    X=             -2.4235    Y=              1.3926    Z=              1.0461  Tot=              2.9844
 Quadrupole moment (field-independent basis, Debye-Ang):
   XX=            -58.0724   YY=            -53.5116   ZZ=            -52.8645
   XY=             -0.8499   XZ=              4.6315   YZ=             -1.5201

  Exact polarizability: 100.196  -0.707  68.404   4.161  -0.980  66.437
 Approx polarizability: 152.955  -0.375 101.962   3.079  -0.644  96.628

                      1                      2                      3
                      A                      A                      A
 Frequencies --     79.6288               111.6211               202.8231
 Red. masses --      4.5143                 3.1354                 1.2393
 Frc consts  --      0.0169                 0.0230                 0.0300
 IR Inten    --      3.4709                 1.0419                 0.8067

                      4                      5                      6
                      A                      A                      A
 Frequencies --    223.9108               248.5364               291.3997
 Red. masses --      2.1121                 2.8029                 2.7260
 Frc consts  --      0.0624                 0.1020                 0.1364
 IR Inten    --      5.1099                 4.8248                 1.3000

                      7                      8                      9
                      A                      A                      A
 Frequencies --    317.9974               368.8475               419.3008
 Red. masses --      2.3501                 2.0036                 5.1138
 Frc consts  --      0.1400                 0.1606                 0.5297
 IR Inten    --      1.4407                 1.7469                 4.3442

                     10                     11                     12
                      A                      A                      A
 Frequencies --    477.3564               512.7680               626.1469
 Red. masses --      2.3692                 5.8967                 4.3618
 Frc consts  --      0.3181                 0.9135                 1.0076
 IR Inten    --      0.5438                 4.8911                 0.5132

                     13                     14                     15
                      A                      A                      A
 Frequencies --    717.9924               748.1735               827.8539
 Red. masses --      1.5731                 2.8836                 2.9285
 Frc consts  --      0.4778                 0.9510                 1.1825
 IR Inten    --     28.9990                23.5810                14.5189

                     16                     17                     18
                      A                      A                      A
 Frequencies --    900.6120               909.4149               920.5505
 Red. masses --      2.5226                 3.3816                 1.9833
 Frc consts  --      1.2055                 1.6477                 0.9902
 IR Inten    --     10.0072                23.0001                 4.0322

                     19                     20                     21
                      A                      A                      A
 Frequencies --    991.0398               998.3559              1012.9706
 Red. masses --      2.2493                 1.2443                 1.7883
 Frc consts  --      1.3016                 0.7307                 1.0811
 IR Inten    --      9.7562                 1.7221                 4.3847

                     22                     23                     24
                      A                      A                      A
 Frequencies --   1033.0183              1056.8569              1123.9667
 Red. masses --      1.7029                 1.6733                 2.3603
 Frc consts  --      1.0707                 1.1012                 1.7568
 IR Inten    --      0.0502                11.3235                60.8294

                     25                     26                     27
                      A                      A                      A
 Frequencies --   1168.1947              1198.2446              1200.7176
 Red. masses --      2.8971                 2.3735                 2.3356
 Frc consts  --      2.3294                 2.0079                 1.9840
 IR Inten    --     16.8758                 6.2372                39.2157

                     28                     29                     30
                      A                      A                      A
 Frequencies --   1251.8920              1266.0358              1320.4664
 Red. masses --      1.4993                 1.5360                 1.2035
 Frc consts  --      1.3844                 1.4505                 1.2364
 IR Inten    --      2.5528                 5.2677                 1.7914

                     31                     32                     33
                      A                      A                      A
 Frequencies --   1361.9837              1397.6514              1407.2814
 Red. masses --      1.2360                 1.2849                 1.4643
 Frc consts  --      1.3509                 1.4788                 1.7086
 IR Inten    --      0.1751                 0.5494                 3.7809

                     34                     35                     36
                      A                      A                      A
 Frequencies --   1412.4035              1425.3790              1484.5908
 Red. masses --      1.3128                 1.2836                 1.0813
 Frc consts  --      1.5430                 1.5365                 1.4042
 IR Inten    --      2.4999                13.7349                 2.7034

                     37                     38                     39
                      A                      A                      A
 Frequencies --   1489.4738              1492.6846              1498.9098
 Red. masses --      1.0569                 1.0587                 1.0830
 Frc consts  --      1.3815                 1.3898                 1.4336
 IR Inten    --      2.9920                 3.9250                 6.1699

                     40                     41                     42
                      A                      A                      A
 Frequencies --   1710.0996              1820.6918              2912.9470
 Red. masses --      6.9748                10.4385                 1.0843
 Frc consts  --     12.0177                20.3873                 5.4211
 IR Inten    --      1.0261               200.4089                67.1134

                     43                     44                     45
                      A                      A                      A
 Frequencies --   2940.7379              2976.6686              3042.8450
 Red. masses --      1.0726                 1.0685                 1.0357
 Frc consts  --      5.4651                 5.5783                 5.6499
 IR Inten    --     59.0653                47.7706                19.3283

                     46                     47                     48
                      A                      A                      A
 Frequencies --   3056.2791              3077.1950              3111.5339
 Red. masses --      1.0870                 1.0950                 1.1018
 Frc consts  --      5.9825                 6.1089                 6.2848
 IR Inten    --     24.7156                22.8864                19.8942

                     49                     50                     51
                      A                      A                      A
 Frequencies --   3129.5849              3153.9498              3176.2964
 Red. masses --      1.1010                 1.0838                 1.0978
 Frc consts  --      6.3534                 6.3521                 6.5258
 IR Inten    --     10.8998                 3.4954                19.1220

 - Thermochemistry -
 -------------------
 Temperature   298.150 Kelvin.  Pressure   1.00000 Atm.
 Atom     1 has atomic number  6 and mass  12.00000

 Molecular mass:   126.06808 amu.
 Principal axes and moments of inertia in atomic units:
                           1         2         3
     Eigenvalues --   646.524711430.422611477.51268
           X            0.99927   0.00859   0.03732
           Y           -0.00877   0.99995   0.00471
           Z           -0.03728  -0.00503   0.99929
 This molecule is an asymmetric top.
 Rotational symmetry number  1.
 Warning -- assumption of classical behavior for rotation
           may cause significant error
 Rotational temperatures (Kelvin)      0.13397     0.06055     0.05862
 Rotational constants (GHZ):           2.79145     1.26168     1.22147
 Zero-point vibrational energy     416335.6 (Joules/Mol)
                                   99.50660 (Kcal/Mol)
 Warning -- explicit consideration of  11 degrees of freedom as
           vibrations may cause significant error
 Vibrational temperatures:    114.57   160.60   291.82   322.16   357.59
          (Kelvin)            419.26   457.53   530.69   603.28   686.81
                              737.76   900.88  1033.03  1076.45  1191.10
                             1295.78  1308.44  1324.47  1425.88  1436.41
                             1457.44  1486.28  1520.58  1617.14  1680.77
                             1724.00  1727.56  1801.19  1821.54  1899.85
                             1959.59  2010.91  2024.76  2032.13  2050.80
                             2135.99  2143.02  2147.64  2156.59  2460.45
                             2619.57  4191.08  4231.06  4282.76  4377.97
                             4397.30  4427.39  4476.80  4502.77  4537.82
                             4569.98

 Zero-point correction=                           0.158574 (Hartree/Particle)
 Thermal correction to Energy=                    0.167298
 Thermal correction to Enthalpy=                  0.168242
 Thermal correction to Gibbs Free Energy=         0.125228
 Sum of electronic and zero-point Energies=           -423.041137
 Sum of electronic and thermal Energies=              -423.032413
 Sum of electronic and thermal Enthalpies=            -423.031469
 Sum of electronic and thermal Free Energies=         -423.074483

                     E (Thermal)             CV                S
                      KCal/Mol        Cal/Mol-Kelvin    Cal/Mol-Kelvin
 Total                  104.981             32.726             90.531
 Electronic               0.000              0.000              0.000
 Translational            0.889              2.981             40.409
 Rotational               0.889              2.981             28.704
 Vibrational            103.204             26.764             21.419
 Vibration     1          0.600              1.963              3.900
 Vibration     2          0.607              1.940              3.241
 Vibration     3          0.639              1.836              2.107
 Vibration     4          0.649              1.805              1.927
 Vibration     5          0.662              1.765              1.741
 Vibration     6          0.687              1.690              1.466
 Vibration     7          0.704              1.639              1.320
 Vibration     8          0.741              1.536              1.085
 Vibration     9          0.782              1.428              0.894
 Vibration    10          0.834              1.300              0.717
 Vibration    11          0.868              1.222              0.627

 Normal termination of Gaussian 09 at Mon Jan 27 17:39:36 2020.
