 Gaussian 09, Revision D.01,
 Gaussian 09:  ES64L-G09RevD.01 24-Apr-2013

 -----------------------------
 # b3lyp 6-31G(2df,p) opt Freq
 -----------------------------

 -----
 titel
 -----
 Symbolic Z-matrix:
 Charge =  0 Multiplicity = 1

 SCF Done:  E(RB3LYP) =  -423.204674774     A.U. after   14 cycles
 Optimization completed.
    -- Stationary point found.
 Normal termination of Gaussian 09 at Tue Jan 28 14:08:52 2020.

 ----------------------------------------------------------------------
 #N Geom=AllCheck Guess=TCheck SCRF=Check GenChk RB3LYP/6-31G(2df,p) Fr
 eq
 ----------------------------------------------------------------------

 Structure from the checkpoint file:  "/scratch/puck/g09_78ff2581-8ce4-486d-9112-c0e9e07a38cf/Gau-25406.chk"
 -----
 titel
 -----
 Charge =  0 Multiplicity = 1

                         Standard orientation:
 ---------------------------------------------------------------------
 Center     Atomic      Atomic             Coordinates (Angstroms)
 Number     Number       Type             X           Y           Z
 ---------------------------------------------------------------------
      1          6           0       -2.040620   -1.101915    0.930030
      2          8           0       -1.898773   -0.824579   -0.452240
      3          6           0       -0.683713   -0.216875   -0.824487
      4          6           0        0.587771   -0.978994   -0.543935
      5          6           0        1.559857   -0.219267   -0.025485
      6          6           0        2.949834   -0.648650    0.318567
      7          6           0        1.104966    1.208712    0.176122
      8          6           0       -0.394652    1.148949   -0.136993
      9          8           0       -1.218717    1.975834    0.144333
     10          1           0       -2.066860   -0.183683    1.530661
     11          1           0       -2.993406   -1.623565    1.043350
     12          1           0       -1.234975   -1.748576    1.304808
     13          1           0       -0.798959   -0.028352   -1.902367
     14          1           0        0.688759   -2.031413   -0.786850
     15          1           0        3.693262   -0.088391   -0.262549
     16          1           0        3.170515   -0.451596    1.375401
     17          1           0        3.100343   -1.714668    0.128526
     18          1           0        1.284688    1.600193    1.184986
     19          1           0        1.595884    1.908249   -0.515608
 ---------------------------------------------------------------------

 SCF Done:  E(RB3LYP) =  -423.204674773     A.U. after    1 cycles

 The electronic state is 1-A.
 Alpha  occ. eigenvalues --  -19.14214 -19.13731 -10.27006 -10.23914 -10.21950
 Alpha  occ. eigenvalues --  -10.20668 -10.19894 -10.19453 -10.18572  -1.05178
 Alpha  occ. eigenvalues --   -1.02785  -0.85212  -0.75103  -0.72191  -0.68837
 Alpha  occ. eigenvalues --   -0.63467  -0.55050  -0.53490  -0.49355  -0.48383
 Alpha  occ. eigenvalues --   -0.45479  -0.44922  -0.44548  -0.42289  -0.41175
 Alpha  occ. eigenvalues --   -0.40315  -0.39696  -0.38120  -0.36542  -0.35745
 Alpha  occ. eigenvalues --   -0.31686  -0.27584  -0.25666  -0.23027
 Alpha virt. eigenvalues --   -0.02419   0.00536   0.08938   0.11826   0.12834
 Alpha virt. eigenvalues --    0.13530   0.14438   0.14805   0.16119   0.16418
 Alpha virt. eigenvalues --    0.16782   0.17699   0.17973   0.19645   0.22515

 Mulliken charges:
               1
     1  C   -0.249564
     2  O   -0.236019
     3  C   -0.005012
     4  C   -0.223821
     5  C    0.316775
     6  C   -0.486280
     7  C   -0.413331
     8  C    0.359977
     9  O   -0.298289
    10  H    0.124484
    11  H    0.129942
    12  H    0.106413
    13  H    0.113332
    14  H    0.101458
    15  H    0.131574
    16  H    0.131450
    17  H    0.128676
    18  H    0.131820
    19  H    0.136415
 Sum of Mulliken charges =   0.00000

 Dipole moment (field-independent basis, Debye):
    X=              3.1307    Y=             -1.4122    Z=              0.4082  Tot=              3.4586
 Quadrupole moment (field-independent basis, Debye-Ang):
   XX=            -54.0372   YY=            -56.2668   ZZ=            -51.1933
   XY=              3.8648   XZ=             -1.6594   YZ=             -1.8702

  Exact polarizability:  95.040   2.943  77.713   3.148   3.290  62.267
 Approx polarizability: 131.268   5.900 117.402   8.278  10.064  97.601

                      1                      2                      3
                      A                      A                      A
 Frequencies --     66.0108                95.2234               127.4071
 Red. masses --      3.1605                 1.8977                 2.5645
 Frc consts  --      0.0081                 0.0101                 0.0245
 IR Inten    --      2.4325                 1.8750                 1.3307

                      4                      5                      6
                      A                      A                      A
 Frequencies --    170.5556               192.4940               255.0693
 Red. masses --      1.4330                 1.1543                 3.5057
 Frc consts  --      0.0246                 0.0252                 0.1344
 IR Inten    --      1.5165                 0.8214                 6.8924

                      7                      8                      9
                      A                      A                      A
 Frequencies --    281.2357               324.6899               432.9623
 Red. masses --      2.8006                 4.0163                 2.0391
 Frc consts  --      0.1305                 0.2495                 0.2252
 IR Inten    --      1.1578                 1.1214                 4.2432

                     10                     11                     12
                      A                      A                      A
 Frequencies --    446.4703               516.3880               555.6749
 Red. masses --      3.4267                 3.6648                 4.5077
 Frc consts  --      0.4024                 0.5758                 0.8201
 IR Inten    --      3.2747                 1.2231                 0.8009

                     13                     14                     15
                      A                      A                      A
 Frequencies --    598.7479               703.0675               777.4891
 Red. masses --      4.8768                 3.5417                 2.2783
 Frc consts  --      1.0301                 1.0315                 0.8114
 IR Inten    --     12.7308                 4.6952                 0.8709

                     16                     17                     18
                      A                      A                      A
 Frequencies --    836.9469               882.7901               945.7501
 Red. masses --      1.5011                 3.2638                 3.7126
 Frc consts  --      0.6195                 1.4986                 1.9565
 IR Inten    --     10.8680                 1.9495                26.8755

                     19                     20                     21
                      A                      A                      A
 Frequencies --    969.2292              1000.2019              1044.6048
 Red. masses --      2.2094                 1.6967                 1.4419
 Frc consts  --      1.2228                 1.0000                 0.9270
 IR Inten    --      1.7628                 5.0917                 2.2273

                     22                     23                     24
                      A                      A                      A
 Frequencies --   1057.0275              1103.6102              1136.4278
 Red. masses --      1.8823                 3.1259                 2.8832
 Frc consts  --      1.2391                 2.2432                 2.1938
 IR Inten    --     33.0617                67.1103                44.0161

                     25                     26                     27
                      A                      A                      A
 Frequencies --   1163.8763              1179.3445              1191.5324
 Red. masses --      1.4390                 1.2927                 2.1472
 Frc consts  --      1.1485                 1.0593                 1.7961
 IR Inten    --     17.8594                 1.6933                42.2157

                     28                     29                     30
                      A                      A                      A
 Frequencies --   1225.4960              1251.1394              1276.6145
 Red. masses --      1.5923                 1.6925                 1.8369
 Frc consts  --      1.4089                 1.5609                 1.7638
 IR Inten    --     25.2125                 9.4720                10.9625

                     31                     32                     33
                      A                      A                      A
 Frequencies --   1342.5773              1362.3862              1413.8856
 Red. masses --      2.3192                 1.3692                 1.3041
 Frc consts  --      2.4630                 1.4973                 1.5360
 IR Inten    --      4.6473                13.8148                 1.6655

                     34                     35                     36
                      A                      A                      A
 Frequencies --   1446.3934              1474.9074              1477.0537
 Red. masses --      1.0901                 1.1449                 1.0452
 Frc consts  --      1.3436                 1.4673                 1.3435
 IR Inten    --      8.3971                 0.2610                 6.9864

                     37                     38                     39
                      A                      A                      A
 Frequencies --   1486.0087              1488.9703              1510.3447
 Red. masses --      1.0639                 1.0543                 1.0477
 Frc consts  --      1.3842                 1.3772                 1.4081
 IR Inten    --      9.4535                 4.2759                 8.0052

                     40                     41                     42
                      A                      A                      A
 Frequencies --   1708.3795              1857.9611              2997.1980
 Red. masses --      7.0024                12.7910                 1.0588
 Frc consts  --     12.0410                26.0153                 5.6037
 IR Inten    --     19.1792               186.2384                56.0517

                     43                     44                     45
                      A                      A                      A
 Frequencies --   3001.2295              3014.4934              3019.4830
 Red. masses --      1.0572                 1.0605                 1.0415
 Frc consts  --      5.6103                 5.6778                 5.5945
 IR Inten    --      2.6428                12.3829                27.5564

                     46                     47                     48
                      A                      A                      A
 Frequencies --   3055.2829              3057.9800              3066.2247
 Red. masses --      1.0955                 1.1017                 1.0984
 Frc consts  --      6.0250                 6.0698                 6.0842
 IR Inten    --      9.4227                36.0169                16.5226

                     49                     50                     51
                      A                      A                      A
 Frequencies --   3113.9342              3122.4757              3188.8776
 Red. masses --      1.0996                 1.0988                 1.0937
 Frc consts  --      6.2819                 6.3119                 6.5526
 IR Inten    --     17.5011                27.3735                 8.5004

 - Thermochemistry -
 -------------------
 Temperature   298.150 Kelvin.  Pressure   1.00000 Atm.
 Atom     1 has atomic number  6 and mass  12.00000

 Molecular mass:   126.06808 amu.
 Principal axes and moments of inertia in atomic units:
                           1         2         3
     Eigenvalues --   709.327201376.044461796.21574
           X            0.99977   0.02006  -0.00768
           Y           -0.02022   0.99955  -0.02227
           Z            0.00723   0.02242   0.99972
 This molecule is an asymmetric top.
 Rotational symmetry number  1.
 Warning -- assumption of classical behavior for rotation
           may cause significant error
 Rotational temperatures (Kelvin)      0.12211     0.06294     0.04822
 Rotational constants (GHZ):           2.54430     1.31154     1.00475
 Zero-point vibrational energy     412796.1 (Joules/Mol)
                                   98.66064 (Kcal/Mol)
 Warning -- explicit consideration of  13 degrees of freedom as
           vibrations may cause significant error
 Vibrational temperatures:     94.97   137.01   183.31   245.39   276.96
          (Kelvin)            366.99   404.63   467.16   622.94   642.37
                              742.97   799.49   861.46  1011.56  1118.63
                             1204.18  1270.14  1360.72  1394.50  1439.07
                             1502.95  1520.82  1587.85  1635.06  1674.56
                             1696.81  1714.35  1763.21  1800.11  1836.76
                             1931.67  1960.17  2034.26  2081.03  2122.06
                             2125.15  2138.03  2142.29  2173.05  2457.97
                             2673.19  4312.29  4318.09  4337.18  4344.36
                             4395.87  4399.75  4411.61  4480.25  4492.54
                             4588.08

 Zero-point correction=                           0.157226 (Hartree/Particle)
 Thermal correction to Energy=                    0.166596
 Thermal correction to Enthalpy=                  0.167540
 Thermal correction to Gibbs Free Energy=         0.122694
 Sum of electronic and zero-point Energies=           -423.047449
 Sum of electronic and thermal Energies=              -423.038079
 Sum of electronic and thermal Enthalpies=            -423.037135
 Sum of electronic and thermal Free Energies=         -423.081980

                     E (Thermal)             CV                S
                      KCal/Mol        Cal/Mol-Kelvin    Cal/Mol-Kelvin
 Total                  104.540             33.875             94.385
 Electronic               0.000              0.000              0.000
 Translational            0.889              2.981             40.409
 Rotational               0.889              2.981             28.951
 Vibrational            102.763             27.914             25.025
 Vibration     1          0.597              1.970              4.269
 Vibration     2          0.603              1.953              3.550
 Vibration     3          0.611              1.926              2.985
 Vibration     4          0.626              1.879              2.429
 Vibration     5          0.634              1.850              2.204
 Vibration     6          0.665              1.754              1.695
 Vibration     7          0.681              1.708              1.526
 Vibration     8          0.709              1.626              1.286
 Vibration     9          0.794              1.398              0.849
 Vibration    10          0.806              1.369              0.807
 Vibration    11          0.871              1.214              0.618
 Vibration    12          0.911              1.127              0.533
 Vibration    13          0.957              1.034              0.452

 Normal termination of Gaussian 09 at Tue Jan 28 14:52:46 2020.
