 Gaussian 09, Revision D.01,
 Gaussian 09:  ES64L-G09RevD.01 24-Apr-2013

 -----------------------------
 # b3lyp 6-31G(2df,p) opt Freq
 -----------------------------

 -----
 titel
 -----
 Symbolic Z-matrix:
 Charge =  0 Multiplicity = 1

 SCF Done:  E(RB3LYP) =  -423.190352348     A.U. after   14 cycles
 Optimization completed.
    -- Stationary point found.
 Normal termination of Gaussian 09 at Mon Jan 27 13:58:01 2020.

 ----------------------------------------------------------------------
 #N Geom=AllCheck Guess=TCheck SCRF=Check GenChk RB3LYP/6-31G(2df,p) Fr
 eq
 ----------------------------------------------------------------------

 Structure from the checkpoint file:  "/scratch/puck/g09_6ebff359-f313-402e-9bc8-56bf3a822a4d/Gau-3678.chk"
 -----
 titel
 -----
 Charge =  0 Multiplicity = 1

                         Standard orientation:
 ---------------------------------------------------------------------
 Center     Atomic      Atomic             Coordinates (Angstroms)
 Number     Number       Type             X           Y           Z
 ---------------------------------------------------------------------
      1          8           0        3.567360    0.053082   -0.316490
      2          6           0        2.491624   -0.385282    0.002578
      3          6           0        1.357703    0.440787    0.563504
      4          6           0        0.097985    0.416724   -0.326826
      5          6           0       -1.005122    1.383100    0.187441
      6          6           0       -2.354688    0.770325   -0.254238
      7          6           0       -2.066419   -0.714794   -0.332384
      8          8           0       -1.352997   -1.227509    0.804972
      9          6           0       -0.616279   -0.926213   -0.389882
     10          1           0        2.266959   -1.471576   -0.111642
     11          1           0        1.084203    0.032528    1.546229
     12          1           0        1.716705    1.465360    0.697264
     13          1           0        0.380371    0.690370   -1.352836
     14          1           0       -0.962348    1.422880    1.278664
     15          1           0       -0.861423    2.400604   -0.183202
     16          1           0       -3.169361    1.010972    0.435458
     17          1           0       -2.652212    1.122359   -1.249632
     18          1           0       -2.778103   -1.403906   -0.780081
     19          1           0       -0.168520   -1.782054   -0.889232
 ---------------------------------------------------------------------

 SCF Done:  E(RB3LYP) =  -423.190352348     A.U. after    1 cycles

 The electronic state is 1-A.
 Alpha  occ. eigenvalues --  -19.15456 -19.13938 -10.27124 -10.24077 -10.24006
 Alpha  occ. eigenvalues --  -10.20858 -10.19562 -10.19466 -10.19253  -1.07604
 Alpha  occ. eigenvalues --   -1.04579  -0.82987  -0.77142  -0.69497  -0.67778
 Alpha  occ. eigenvalues --   -0.59228  -0.57853  -0.56031  -0.53203  -0.49418
 Alpha  occ. eigenvalues --   -0.46092  -0.44964  -0.44012  -0.42143  -0.40979
 Alpha  occ. eigenvalues --   -0.38405  -0.37718  -0.36278  -0.35761  -0.34935
 Alpha  occ. eigenvalues --   -0.34526  -0.29705  -0.26918  -0.24950
 Alpha virt. eigenvalues --   -0.02305   0.08392   0.09468   0.10420   0.11306
 Alpha virt. eigenvalues --    0.11492   0.13725   0.14300   0.15302   0.15713
 Alpha virt. eigenvalues --    0.17076   0.17538   0.18386   0.19175   0.20156

 Mulliken charges:
               1
     1  O   -0.239482
     2  C    0.151577
     3  C   -0.288216
     4  C   -0.020847
     5  C   -0.235514
     6  C   -0.248683
     7  C    0.053831
     8  O   -0.262932
     9  C    0.036358
    10  H    0.074541
    11  H    0.131559
    12  H    0.119719
    13  H    0.087901
    14  H    0.120165
    15  H    0.105851
    16  H    0.113851
    17  H    0.106891
    18  H    0.096049
    19  H    0.097378
 Sum of Mulliken charges =   0.00000

 Dipole moment (field-independent basis, Debye):
    X=             -2.7187    Y=              0.4637    Z=             -0.8767  Tot=              2.8939
 Quadrupole moment (field-independent basis, Debye-Ang):
   XX=            -64.2498   YY=            -52.4039   ZZ=            -53.1106
   XY=             -2.8783   XZ=              4.6785   YZ=              2.3618

  Exact polarizability:  94.148  -0.531  72.289  -0.945   1.760  60.253
 Approx polarizability: 126.728   2.863 104.570  -5.450  -2.359  99.609

                      1                      2                      3
                      A                      A                      A
 Frequencies --     45.7741                67.6000               130.8006
 Red. masses --      4.2161                 4.3493                 2.8808
 Frc consts  --      0.0052                 0.0117                 0.0290
 IR Inten    --      7.3145                 3.2502                 1.3462

                      4                      5                      6
                      A                      A                      A
 Frequencies --    187.0505               264.5272               335.6089
 Red. masses --      2.5751                 2.1814                 3.4707
 Frc consts  --      0.0531                 0.0899                 0.2303
 IR Inten    --      1.4386                 2.8803                 3.1948

                      7                      8                      9
                      A                      A                      A
 Frequencies --    384.8815               458.2414               545.9511
 Red. masses --      2.9867                 3.6961                 2.1137
 Frc consts  --      0.2607                 0.4573                 0.3712
 IR Inten    --      4.5388                10.9569                 6.4513

                     10                     11                     12
                      A                      A                      A
 Frequencies --    632.8007               666.8744               821.3597
 Red. masses --      3.6310                 2.5148                 4.2396
 Frc consts  --      0.8567                 0.6589                 1.6852
 IR Inten    --      4.7262                 1.1334                 0.9201

                     13                     14                     15
                      A                      A                      A
 Frequencies --    828.1952               847.1288               850.8270
 Red. masses --      2.0405                 2.3363                 1.7286
 Frc consts  --      0.8246                 0.9878                 0.7373
 IR Inten    --      1.5339                13.2770                 1.5483

                     16                     17                     18
                      A                      A                      A
 Frequencies --    886.8822               930.4439               948.5243
 Red. masses --      2.6762                 2.9382                 1.9404
 Frc consts  --      1.2402                 1.4987                 1.0286
 IR Inten    --     27.8289                 1.3432                 6.5593

                     19                     20                     21
                      A                      A                      A
 Frequencies --    990.2991              1023.8036              1039.3182
 Red. masses --      1.6985                 2.0899                 2.0991
 Frc consts  --      0.9814                 1.2906                 1.3359
 IR Inten    --      6.6455                 1.0936                19.7626

                     22                     23                     24
                      A                      A                      A
 Frequencies --   1049.4237              1090.8591              1117.2749
 Red. masses --      1.8105                 1.3296                 2.2905
 Frc consts  --      1.1747                 0.9322                 1.6846
 IR Inten    --      0.9441                 7.2452                12.8304

                     25                     26                     27
                      A                      A                      A
 Frequencies --   1129.7194              1187.5324              1214.5004
 Red. masses --      2.0778                 1.5289                 1.3174
 Frc consts  --      1.5624                 1.2703                 1.1449
 IR Inten    --      0.6697                 0.6185                 5.8778

                     28                     29                     30
                      A                      A                      A
 Frequencies --   1226.6439              1257.7856              1280.9740
 Red. masses --      1.3284                 1.3446                 1.3283
 Frc consts  --      1.1776                 1.2533                 1.2842
 IR Inten    --      3.5546                 4.8756                 1.0653

                     31                     32                     33
                      A                      A                      A
 Frequencies --   1314.2943              1328.0367              1339.0210
 Red. masses --      1.2758                 1.5059                 1.4003
 Frc consts  --      1.2984                 1.5648                 1.4793
 IR Inten    --      1.0465                 2.1445                 4.2931

                     34                     35                     36
                      A                      A                      A
 Frequencies --   1344.4438              1376.8980              1433.2000
 Red. masses --      1.3922                 1.5581                 1.3571
 Frc consts  --      1.4827                 1.7404                 1.6424
 IR Inten    --      7.3627                 2.4500                 3.3710

                     37                     38                     39
                      A                      A                      A
 Frequencies --   1438.2426              1465.4659              1481.8222
 Red. masses --      2.2662                 1.1051                 1.1096
 Frc consts  --      2.7619                 1.3983                 1.4355
 IR Inten    --     13.9676                 3.9638                 1.4470

                     40                     41                     42
                      A                      A                      A
 Frequencies --   1494.4810              1832.7926              2858.1717
 Red. masses --      1.1043                 9.9581                 1.0814
 Frc consts  --      1.4532                19.7085                 5.2048
 IR Inten    --      2.8418               191.6078               100.0651

                     43                     44                     45
                      A                      A                      A
 Frequencies --   3012.8792              3026.2607              3037.8568
 Red. masses --      1.0789                 1.0657                 1.0633
 Frc consts  --      5.7702                 5.7502                 5.7812
 IR Inten    --      9.5843                14.0516                28.9536

                     46                     47                     48
                      A                      A                      A
 Frequencies --   3069.4894              3086.9973              3099.1775
 Red. masses --      1.0630                 1.0966                 1.0998
 Frc consts  --      5.9009                 6.1569                 6.2239
 IR Inten    --     14.9223                22.1556                12.6486

                     49                     50                     51
                      A                      A                      A
 Frequencies --   3116.4929              3138.5094              3152.7298
 Red. masses --      1.1057                 1.0871                 1.0953
 Frc consts  --      6.3275                 6.3092                 6.4141
 IR Inten    --     24.4920                18.6889                34.7907

 - Thermochemistry -
 -------------------
 Temperature   298.150 Kelvin.  Pressure   1.00000 Atm.
 Atom     1 has atomic number  8 and mass  15.99491

 Molecular mass:   126.06808 amu.
 Principal axes and moments of inertia in atomic units:
                           1         2         3
     Eigenvalues --   456.307801896.028742132.40051
           X            0.99982  -0.01557   0.01055
           Y            0.01503   0.99865   0.04966
           Z           -0.01131  -0.04949   0.99871
 This molecule is an asymmetric top.
 Rotational symmetry number  1.
 Warning -- assumption of classical behavior for rotation
           may cause significant error
 Rotational temperatures (Kelvin)      0.18981     0.04568     0.04062
 Rotational constants (GHZ):           3.95510     0.95185     0.84634
 Zero-point vibrational energy     418028.3 (Joules/Mol)
                                   99.91115 (Kcal/Mol)
 Warning -- explicit consideration of   9 degrees of freedom as
           vibrations may cause significant error
 Vibrational temperatures:     65.86    97.26   188.19   269.12   380.60
          (Kelvin)            482.87   553.76   659.31   785.50   910.46
                              959.48  1181.75  1191.59  1218.83  1224.15
                             1276.02  1338.70  1364.71  1424.82  1473.02
                             1495.35  1509.88  1569.50  1607.51  1625.41
                             1708.59  1747.39  1764.86  1809.67  1843.03
                             1890.97  1910.75  1926.55  1934.35  1981.05
                             2062.05  2069.31  2108.48  2132.01  2150.22
                             2636.98  4112.27  4334.86  4354.11  4370.79
                             4416.31  4441.50  4459.02  4483.93  4515.61
                             4536.07

 Zero-point correction=                           0.159219 (Hartree/Particle)
 Thermal correction to Energy=                    0.167619
 Thermal correction to Enthalpy=                  0.168564
 Thermal correction to Gibbs Free Energy=         0.124966
 Sum of electronic and zero-point Energies=           -423.031134
 Sum of electronic and thermal Energies=              -423.022733
 Sum of electronic and thermal Enthalpies=            -423.021789
 Sum of electronic and thermal Free Energies=         -423.065386

                     E (Thermal)             CV                S
                      KCal/Mol        Cal/Mol-Kelvin    Cal/Mol-Kelvin
 Total                  105.183             30.903             91.759
 Electronic               0.000              0.000              0.000
 Translational            0.889              2.981             40.409
 Rotational               0.889              2.981             29.002
 Vibrational            103.405             24.941             22.348
 Vibration     1          0.595              1.979              4.992
 Vibration     2          0.598              1.970              4.222
 Vibration     3          0.612              1.923              2.934
 Vibration     4          0.632              1.858              2.257
 Vibration     5          0.671              1.738              1.632
 Vibration     6          0.717              1.604              1.233
 Vibration     7          0.754              1.502              1.020
 Vibration     8          0.816              1.343              0.771
 Vibration     9          0.901              1.149              0.553

 Optimization completed.
    -- Stationary point found.
 Normal termination of Gaussian 09 at Mon Jan 27 15:45:08 2020.
