 Gaussian 09, Revision D.01,
 Gaussian 09:  ES64L-G09RevD.01 24-Apr-2013

 -----------------------------
 # b3lyp 6-31G(2df,p) opt Freq
 -----------------------------

 -----
 titel
 -----
 Symbolic Z-matrix:
 Charge =  0 Multiplicity = 1

 SCF Done:  E(RB3LYP) =  -423.168400161     A.U. after   13 cycles
 Optimization completed.
    -- Stationary point found.
 Normal termination of Gaussian 09 at Tue Jan 28 02:05:20 2020.

 ----------------------------------------------------------------------
 #N Geom=AllCheck Guess=TCheck SCRF=Check GenChk RB3LYP/6-31G(2df,p) Fr
 eq
 ----------------------------------------------------------------------

 Structure from the checkpoint file:  "/scratch/puck/g09_3b63b887-588f-4ca3-9b13-54ce93bb361c/Gau-4701.chk"
 -----
 titel
 -----
 Charge =  0 Multiplicity = 1

                         Standard orientation:
 ---------------------------------------------------------------------
 Center     Atomic      Atomic             Coordinates (Angstroms)
 Number     Number       Type             X           Y           Z
 ---------------------------------------------------------------------
      1          8           0       -2.641505   -0.529707   -0.481232
      2          6           0       -1.830240    0.514161   -0.046166
      3          6           0       -1.100903    0.420422    1.283252
      4          6           0       -0.346116    0.321745   -0.033216
      5          6           0        0.654259    1.370767   -0.465911
      6          6           0        2.052351    0.890170   -0.163571
      7          6           0        2.303767   -0.380924    0.138718
      8          6           0        1.223748   -1.426423    0.160035
      9          8           0        0.018712   -0.973695   -0.444215
     10          1           0       -2.045547   -1.258491   -0.700700
     11          1           0       -2.218799    1.484073   -0.345674
     12          1           0       -0.985620    1.313363    1.889243
     13          1           0       -1.239323   -0.501548    1.838725
     14          1           0        0.549735    1.579926   -1.540574
     15          1           0        0.455671    2.316847    0.051111
     16          1           0        2.856676    1.619715   -0.197549
     17          1           0        3.307557   -0.717254    0.383356
     18          1           0        1.528840   -2.312180   -0.408838
     19          1           0        1.031951   -1.756747    1.195629
 ---------------------------------------------------------------------

 SCF Done:  E(RB3LYP) =  -423.168400161     A.U. after    1 cycles

 The electronic state is 1-A.
 Alpha  occ. eigenvalues --  -19.15547 -19.12988 -10.23942 -10.23840 -10.23044
 Alpha  occ. eigenvalues --  -10.19324 -10.18964 -10.18720 -10.17760  -1.05599
 Alpha  occ. eigenvalues --   -1.01313  -0.84119  -0.80280  -0.73362  -0.65903
 Alpha  occ. eigenvalues --   -0.60497  -0.59625  -0.53357  -0.50989  -0.50357
 Alpha  occ. eigenvalues --   -0.46482  -0.45671  -0.43922  -0.42296  -0.41048
 Alpha  occ. eigenvalues --   -0.38387  -0.38153  -0.36927  -0.35624  -0.33696
 Alpha  occ. eigenvalues --   -0.29198  -0.25484  -0.25064  -0.23455
 Alpha virt. eigenvalues --    0.01759   0.07917   0.10161   0.10887   0.12166
 Alpha virt. eigenvalues --    0.13550   0.14375   0.15697   0.15834   0.16772
 Alpha virt. eigenvalues --    0.17776   0.18135   0.20240   0.21353   0.22936

 Mulliken charges:
               1
     1  O   -0.436661
     2  C    0.074791
     3  C   -0.384825
     4  C    0.368557
     5  C   -0.321703
     6  C   -0.058377
     7  C   -0.064083
     8  C   -0.128661
     9  O   -0.305784
    10  H    0.294347
    11  H    0.098310
    12  H    0.109223
    13  H    0.116619
    14  H    0.118528
    15  H    0.109386
    16  H    0.092851
    17  H    0.093611
    18  H    0.118997
    19  H    0.104874
 Sum of Mulliken charges =   0.00000

 Dipole moment (field-independent basis, Debye):
    X=              2.4570    Y=              0.4186    Z=              0.6514  Tot=              2.5761
 Quadrupole moment (field-independent basis, Debye-Ang):
   XX=            -58.3481   YY=            -47.8102   ZZ=            -54.0208
   XY=             -2.0859   XZ=             -0.5106   YZ=             -0.8657

  Exact polarizability:  84.378  -3.994  83.311   0.999  -3.471  61.569
 Approx polarizability: 110.078  -6.733 129.975   3.993  -5.750  96.226

                      1                      2                      3
                      A                      A                      A
 Frequencies --    102.0652               171.8132               183.3858
 Red. masses --      3.3772                 4.0959                 2.6411
 Frc consts  --      0.0207                 0.0712                 0.0523
 IR Inten    --      0.1250                 2.6411                 2.8730

                      4                      5                      6
                      A                      A                      A
 Frequencies --    249.2498               350.7527               368.6587
 Red. masses --      3.2703                 1.5926                 2.4451
 Frc consts  --      0.1197                 0.1154                 0.1958
 IR Inten    --      1.0197                34.0246                12.8222

                      7                      8                      9
                      A                      A                      A
 Frequencies --    388.9949               426.8483               475.0263
 Red. masses --      2.0606                 1.9752                 2.9177
 Frc consts  --      0.1837                 0.2120                 0.3879
 IR Inten    --      3.2086                19.7889                 7.9318

                     10                     11                     12
                      A                      A                      A
 Frequencies --    535.8796               607.8615               660.7676
 Red. masses --      4.3289                 3.6995                 1.2021
 Frc consts  --      0.7324                 0.8054                 0.3092
 IR Inten    --      1.8420                 9.7337                25.1191

                     13                     14                     15
                      A                      A                      A
 Frequencies --    696.4553               795.9952               860.9226
 Red. masses --      3.4545                 2.4228                 2.6229
 Frc consts  --      0.9872                 0.9044                 1.1454
 IR Inten    --      2.6559                16.0403                12.3862

                     16                     17                     18
                      A                      A                      A
 Frequencies --    895.9697               917.3436               933.3293
 Red. masses --      2.6986                 1.9204                 2.6497
 Frc consts  --      1.2763                 0.9522                 1.3599
 IR Inten    --      2.7660                10.9371                 6.3749

                     19                     20                     21
                      A                      A                      A
 Frequencies --    970.0609               993.8510               996.2818
 Red. masses --      1.8183                 1.2339                 2.4467
 Frc consts  --      1.0081                 0.7181                 1.4308
 IR Inten    --      2.1099                 0.1170                 9.1016

                     22                     23                     24
                      A                      A                      A
 Frequencies --   1023.0988              1033.5861              1055.1847
 Red. masses --      1.6116                 2.0268                 2.2501
 Frc consts  --      0.9939                 1.2757                 1.4761
 IR Inten    --      4.5342                 1.9639                28.6289

                     25                     26                     27
                      A                      A                      A
 Frequencies --   1094.9622              1114.2195              1138.7420
 Red. masses --      1.4340                 2.8029                 2.4511
 Frc consts  --      1.0130                 2.0502                 1.8727
 IR Inten    --     19.3688                80.4382                94.0185

                     28                     29                     30
                      A                      A                      A
 Frequencies --   1184.7783              1216.4576              1243.2747
 Red. masses --      1.3715                 1.2911                 1.8390
 Frc consts  --      1.1343                 1.1256                 1.6748
 IR Inten    --     22.1941                 8.6256                 8.1132

                     31                     32                     33
                      A                      A                      A
 Frequencies --   1268.0290              1291.6183              1341.7100
 Red. masses --      1.1188                 1.6802                 1.5787
 Frc consts  --      1.0599                 1.6515                 1.6744
 IR Inten    --      4.4850                30.2211                 6.1968

                     34                     35                     36
                      A                      A                      A
 Frequencies --   1380.5760              1397.6796              1408.6285
 Red. masses --      1.7268                 1.4007                 1.6394
 Frc consts  --      1.9392                 1.6121                 1.9165
 IR Inten    --     35.2220                 6.9050                11.1476

                     37                     38                     39
                      A                      A                      A
 Frequencies --   1429.1976              1470.3971              1484.3755
 Red. masses --      1.1546                 1.0951                 1.2388
 Frc consts  --      1.3896                 1.3950                 1.6082
 IR Inten    --     40.9558                 3.7691                16.5465

                     40                     41                     42
                      A                      A                      A
 Frequencies --   1490.2250              1726.7266              2958.0783
 Red. masses --      1.5951                 6.5464                 1.0714
 Frc consts  --      2.0871                11.5001                 5.5236
 IR Inten    --     28.7902                 2.6820                49.6964

                     43                     44                     45
                      A                      A                      A
 Frequencies --   3003.4408              3054.7469              3057.3131
 Red. masses --      1.0675                 1.0927                 1.0886
 Frc consts  --      5.6733                 6.0078                 5.9952
 IR Inten    --     28.2734                19.2614                26.2386

                     46                     47                     48
                      A                      A                      A
 Frequencies --   3124.8858              3142.3517              3156.2181
 Red. masses --      1.0539                 1.0898                 1.0837
 Frc consts  --      6.0632                 6.3405                 6.3605
 IR Inten    --      6.6547                20.4180                 6.4357

                     49                     50                     51
                      A                      A                      A
 Frequencies --   3178.7990              3218.4832              3756.6305
 Red. masses --      1.0982                 1.1171                 1.0651
 Frc consts  --      6.5379                 6.8180                 8.8557
 IR Inten    --     28.3966                 7.4356                46.5855

 - Thermochemistry -
 -------------------
 Temperature   298.150 Kelvin.  Pressure   1.00000 Atm.
 Atom     1 has atomic number  8 and mass  15.99491

 Molecular mass:   126.06808 amu.
 Principal axes and moments of inertia in atomic units:
                           1         2         3
     Eigenvalues --   541.507741363.469451606.22959
           X            0.99993  -0.01099  -0.00437
           Y            0.01085   0.99947  -0.03055
           Z            0.00470   0.03050   0.99952
 This molecule is an asymmetric top.
 Rotational symmetry number  1.
 Warning -- assumption of classical behavior for rotation
           may cause significant error
 Rotational temperatures (Kelvin)      0.15995     0.06352     0.05392
 Rotational constants (GHZ):           3.33281     1.32364     1.12359
 Zero-point vibrational energy     418848.1 (Joules/Mol)
                                  100.10709 (Kcal/Mol)
 Warning -- explicit consideration of  11 degrees of freedom as
           vibrations may cause significant error
 Vibrational temperatures:    146.85   247.20   263.85   358.61   504.65
          (Kelvin)            530.42   559.68   614.14   683.46   771.01
                              874.58   950.70  1002.04  1145.26  1238.67
                             1289.10  1319.85  1342.85  1395.70  1429.93
                             1433.43  1472.01  1487.10  1518.17  1575.40
                             1603.11  1638.39  1704.63  1750.21  1788.79
                             1824.41  1858.35  1930.42  1986.34  2010.95
                             2026.70  2056.29  2115.57  2135.68  2144.10
                             2484.37  4256.01  4321.28  4395.09  4398.79
                             4496.01  4521.14  4541.09  4573.58  4630.67
                             5404.95

 Zero-point correction=                           0.159531 (Hartree/Particle)
 Thermal correction to Energy=                    0.167629
 Thermal correction to Enthalpy=                  0.168573
 Thermal correction to Gibbs Free Energy=         0.127166
 Sum of electronic and zero-point Energies=           -423.008869
 Sum of electronic and thermal Energies=              -423.000772
 Sum of electronic and thermal Enthalpies=            -422.999827
 Sum of electronic and thermal Free Energies=         -423.041234

                     E (Thermal)             CV                S
                      KCal/Mol        Cal/Mol-Kelvin    Cal/Mol-Kelvin
 Total                  105.189             32.031             87.148
 Electronic               0.000              0.000              0.000
 Translational            0.889              2.981             40.409
 Rotational               0.889              2.981             28.563
 Vibrational            103.411             26.070             18.176
 Vibration     1          0.604              1.948              3.414
 Vibration     2          0.626              1.877              2.416
 Vibration     3          0.631              1.862              2.294
 Vibration     4          0.662              1.764              1.736
 Vibration     5          0.728              1.574              1.163
 Vibration     6          0.741              1.537              1.085
 Vibration     7          0.757              1.494              1.004
 Vibration     8          0.789              1.412              0.869
 Vibration     9          0.832              1.305              0.724
 Vibration    10          0.891              1.171              0.574
 Vibration    11          0.967              1.015              0.436

 Optimization completed.
    -- Stationary point found.
 Normal termination of Gaussian 09 at Tue Jan 28 02:48:18 2020.
