 Gaussian 09, Revision D.01,
 Gaussian 09:  ES64L-G09RevD.01 24-Apr-2013

 -----------------------------
 # b3lyp 6-31G(2df,p) opt Freq
 -----------------------------

 -----
 titel
 -----
 Symbolic Z-matrix:
 Charge =  0 Multiplicity = 1

 SCF Done:  E(RB3LYP) =  -423.199576650     A.U. after   14 cycles
 Optimization completed.
    -- Stationary point found.
 Normal termination of Gaussian 09 at Mon Jan 27 12:20:42 2020.

 ----------------------------------------------------------------------
 #N Geom=AllCheck Guess=TCheck SCRF=Check GenChk RB3LYP/6-31G(2df,p) Fr
 eq
 ----------------------------------------------------------------------

 Structure from the checkpoint file:  "/scratch/puck/g09_e2683fe8-6b2b-4765-b0c7-b6fac26c007d/Gau-152578.chk"
 -----
 titel
 -----
 Charge =  0 Multiplicity = 1

                         Standard orientation:
 ---------------------------------------------------------------------
 Center     Atomic      Atomic             Coordinates (Angstroms)
 Number     Number       Type             X           Y           Z
 ---------------------------------------------------------------------
      1          6           0       -1.862911    0.303126   -0.482100
      2          8           0       -1.191174   -0.898772   -0.824392
      3          6           0       -0.322685   -1.243603    0.254324
      4          6           0        1.126617   -1.364862   -0.257168
      5          6           0        1.997635   -0.136517    0.069066
      6          6           0        1.446887    1.209982   -0.354276
      7          6           0        0.222223    1.682703   -0.124823
      8          6           0       -0.902492    0.933919    0.539662
      9          8           0       -0.464209   -0.233903    1.236731
     10          1           0       -2.000909    0.898868   -1.388179
     11          1           0       -2.841607    0.098191   -0.024730
     12          1           0       -0.664591   -2.182536    0.709320
     13          1           0        1.596231   -2.248874    0.189197
     14          1           0        1.079544   -1.534052   -1.337134
     15          1           0        2.176559   -0.116952    1.150767
     16          1           0        2.977371   -0.280384   -0.397827
     17          1           0        2.148666    1.866224   -0.864398
     18          1           0       -0.035055    2.683823   -0.466368
     19          1           0       -1.424791    1.568610    1.262532
 ---------------------------------------------------------------------

 SCF Done:  E(RB3LYP) =  -423.199576650     A.U. after    1 cycles

 The electronic state is 1-A.
 Alpha  occ. eigenvalues --  -19.14592 -19.14034 -10.27332 -10.23946 -10.23042
 Alpha  occ. eigenvalues --  -10.18502 -10.18427 -10.17977 -10.17883  -1.08538
 Alpha  occ. eigenvalues --   -0.98981  -0.80119  -0.79519  -0.70334  -0.67571
 Alpha  occ. eigenvalues --   -0.62396  -0.57488  -0.54306  -0.52061  -0.48821
 Alpha  occ. eigenvalues --   -0.46553  -0.45231  -0.43233  -0.43055  -0.39995
 Alpha  occ. eigenvalues --   -0.38116  -0.36997  -0.35724  -0.34441  -0.33045
 Alpha  occ. eigenvalues --   -0.32736  -0.26793  -0.25128  -0.24297
 Alpha virt. eigenvalues --    0.01453   0.08693   0.11354   0.11799   0.12532
 Alpha virt. eigenvalues --    0.13479   0.15054   0.15475   0.15974   0.16640
 Alpha virt. eigenvalues --    0.18588   0.19445   0.20406   0.22175   0.22659

 Mulliken charges:
               1
     1  C   -0.084632
     2  O   -0.272170
     3  C    0.209230
     4  C   -0.236505
     5  C   -0.247579
     6  C   -0.068695
     7  C   -0.040296
     8  C    0.004271
     9  O   -0.257774
    10  H    0.112590
    11  H    0.095794
    12  H    0.082761
    13  H    0.095601
    14  H    0.117436
    15  H    0.126270
    16  H    0.096331
    17  H    0.089866
    18  H    0.085421
    19  H    0.092080
 Sum of Mulliken charges =   0.00000

 Dipole moment (field-independent basis, Debye):
    X=              0.2098    Y=              0.8546    Z=             -0.1772  Tot=              0.8976
 Quadrupole moment (field-independent basis, Debye-Ang):
   XX=            -50.0227   YY=            -50.4867   ZZ=            -56.4676
   XY=             -3.1311   XZ=             -1.2142   YZ=             -1.7250

  Exact polarizability:  88.808  -6.852  79.209  -3.115  -3.423  59.211
 Approx polarizability: 126.224 -13.363 111.890  -4.880  -3.069  95.564

                      1                      2                      3
                      A                      A                      A
 Frequencies --    111.1606               171.6621               267.1371
 Red. masses --      3.5001                 2.2408                 2.3364
 Frc consts  --      0.0255                 0.0389                 0.0982
 IR Inten    --      2.2627                 1.3205                 1.2060

                      4                      5                      6
                      A                      A                      A
 Frequencies --    320.2429               363.1684               424.6353
 Red. masses --      4.7525                 2.8415                 3.3039
 Frc consts  --      0.2872                 0.2208                 0.3510
 IR Inten    --      4.9473                 2.4073                 0.0835

                      7                      8                      9
                      A                      A                      A
 Frequencies --    490.1360               610.5473               652.4670
 Red. masses --      3.3944                 2.8075                 2.3597
 Frc consts  --      0.4804                 0.6166                 0.5919
 IR Inten    --      1.1525                 3.6515                 4.8995

                     10                     11                     12
                      A                      A                      A
 Frequencies --    723.2250               762.5552               799.9236
 Red. masses --      1.8430                 3.1053                 4.3348
 Frc consts  --      0.5680                 1.0639                 1.6342
 IR Inten    --      9.7058                17.0112                 5.1370

                     13                     14                     15
                      A                      A                      A
 Frequencies --    827.7333               865.1266               901.8811
 Red. masses --      3.0402                 3.4009                 2.9693
 Frc consts  --      1.2273                 1.4997                 1.4230
 IR Inten    --      4.9770                14.3640                11.7992

                     16                     17                     18
                      A                      A                      A
 Frequencies --    919.0666               941.4651               969.2484
 Red. masses --      3.3491                 2.6052                 2.2363
 Frc consts  --      1.6668                 1.3605                 1.2378
 IR Inten    --     27.9948                21.8436                 2.8045

                     19                     20                     21
                      A                      A                      A
 Frequencies --    999.4635              1020.9270              1039.5807
 Red. masses --      1.2217                 2.5186                 2.9795
 Frc consts  --      0.7190                 1.5467                 1.8972
 IR Inten    --      0.5506                14.7315                14.7869

                     22                     23                     24
                      A                      A                      A
 Frequencies --   1064.1450              1072.6780              1107.5683
 Red. masses --      2.8377                 2.7280                 1.9982
 Frc consts  --      1.8933                 1.8494                 1.4442
 IR Inten    --     25.0607                20.7957                10.9608

                     25                     26                     27
                      A                      A                      A
 Frequencies --   1162.0640              1202.2139              1221.9220
 Red. masses --      2.9719                 1.3025                 1.1289
 Frc consts  --      2.3645                 1.1091                 0.9931
 IR Inten    --    109.6626                48.0605                 3.1594

                     28                     29                     30
                      A                      A                      A
 Frequencies --   1240.5597              1273.9701              1281.8816
 Red. masses --      1.1195                 1.4084                 1.2240
 Frc consts  --      1.0151                 1.3468                 1.1850
 IR Inten    --      1.7194                 4.8021                 4.0211

                     31                     32                     33
                      A                      A                      A
 Frequencies --   1327.5456              1348.1577              1362.4431
 Red. masses --      1.3196                 1.3330                 1.2777
 Frc consts  --      1.3702                 1.4275                 1.3974
 IR Inten    --      1.5536                 2.0499                 2.4800

                     34                     35                     36
                      A                      A                      A
 Frequencies --   1385.6088              1391.8707              1400.9057
 Red. masses --      1.3001                 1.4438                 1.4120
 Frc consts  --      1.4706                 1.6480                 1.6327
 IR Inten    --      6.3117                 8.0183                15.6290

                     37                     38                     39
                      A                      A                      A
 Frequencies --   1423.2234              1475.4678              1483.6221
 Red. masses --      1.4877                 1.0799                 1.0964
 Frc consts  --      1.7754                 1.3851                 1.4218
 IR Inten    --      1.6554                 2.7447                 4.3339

                     40                     41                     42
                      A                      A                      A
 Frequencies --   1513.5318              1726.3780              2998.3648
 Red. masses --      1.0955                 7.0601                 1.0683
 Frc consts  --      1.4786                12.3975                 5.6585
 IR Inten    --      0.6275                 1.6646                69.6011

                     43                     44                     45
                      A                      A                      A
 Frequencies --   3013.9535              3033.3990              3044.1638
 Red. masses --      1.0844                 1.0624                 1.0658
 Frc consts  --      5.8035                 5.7595                 5.8190
 IR Inten    --     52.1217                21.0005                57.9133

                     46                     47                     48
                      A                      A                      A
 Frequencies --   3063.8095              3070.8521              3094.9442
 Red. masses --      1.0862                 1.0985                 1.1007
 Frc consts  --      6.0073                 6.1034                 6.2118
 IR Inten    --     42.9875                21.5119                26.7432

                     49                     50                     51
                      A                      A                      A
 Frequencies --   3095.6615              3133.8652              3158.2347
 Red. masses --      1.0967                 1.0834                 1.0953
 Frc consts  --      6.1919                 6.2689                 6.4366
 IR Inten    --     17.1019                 8.9330                33.3523

 - Thermochemistry -
 -------------------
 Temperature   298.150 Kelvin.  Pressure   1.00000 Atm.
 Atom     1 has atomic number  6 and mass  12.00000

 Molecular mass:   126.06808 amu.
 Principal axes and moments of inertia in atomic units:
                           1         2         3
     Eigenvalues --   704.59187 921.472951245.84981
           X            0.99622  -0.08660  -0.00652
           Y            0.08644   0.99601  -0.02229
           Z            0.00842   0.02164   0.99973
 This molecule is an asymmetric top.
 Rotational symmetry number  1.
 Warning -- assumption of classical behavior for rotation
           may cause significant error
 Rotational temperatures (Kelvin)      0.12293     0.09399     0.06952
 Rotational constants (GHZ):           2.56140     1.95854     1.44860
 Zero-point vibrational energy     426793.8 (Joules/Mol)
                                  102.00618 (Kcal/Mol)
 Warning -- explicit consideration of   8 degrees of freedom as
           vibrations may cause significant error
 Vibrational temperatures:    159.94   246.98   384.35   460.76   522.52
          (Kelvin)            610.95   705.20   878.44   938.75  1040.56
                             1097.15  1150.91  1190.92  1244.72  1297.60
                             1322.33  1354.56  1394.53  1438.00  1468.88
                             1495.72  1531.07  1543.34  1593.54  1671.95
                             1729.72  1758.07  1784.89  1832.96  1844.34
                             1910.04  1939.70  1960.25  1993.58  2002.59
                             2015.59  2047.70  2122.87  2134.60  2177.63
                             2483.87  4313.97  4336.40  4364.38  4379.87
                             4408.13  4418.27  4452.93  4453.96  4508.93
                             4543.99

 Zero-point correction=                           0.162557 (Hartree/Particle)
 Thermal correction to Energy=                    0.169664
 Thermal correction to Enthalpy=                  0.170608
 Thermal correction to Gibbs Free Energy=         0.131135
 Sum of electronic and zero-point Energies=           -423.037019
 Sum of electronic and thermal Energies=              -423.029912
 Sum of electronic and thermal Enthalpies=            -423.028968
 Sum of electronic and thermal Free Energies=         -423.068442

                     E (Thermal)             CV                S
                      KCal/Mol        Cal/Mol-Kelvin    Cal/Mol-Kelvin
 Total                  106.466             28.607             83.079
 Electronic               0.000              0.000              0.000
 Translational            0.889              2.981             40.409
 Rotational               0.889              2.981             28.183
 Vibrational            104.688             22.645             14.487
 Vibration     1          0.607              1.940              3.249
 Vibration     2          0.626              1.877              2.417
 Vibration     3          0.672              1.733              1.615
 Vibration     4          0.706              1.635              1.309
 Vibration     5          0.737              1.548              1.109
 Vibration     6          0.787              1.417              0.876
 Vibration     7          0.846              1.272              0.683
 Vibration     8          0.970              1.010              0.432

 Optimization completed.
    -- Stationary point found.
 Normal termination of Gaussian 09 at Mon Jan 27 13:11:15 2020.
