 Gaussian 09, Revision D.01,
 Gaussian 09:  ES64L-G09RevD.01 24-Apr-2013

 -----------------------------
 # b3lyp 6-31G(2df,p) opt Freq
 -----------------------------

 -----
 titel
 -----
 Symbolic Z-matrix:
 Charge =  0 Multiplicity = 1

 SCF Done:  E(RB3LYP) =  -423.175728897     A.U. after   14 cycles
 Optimization completed.
    -- Stationary point found.
 Normal termination of Gaussian 09 at Mon Jan 27 16:09:19 2020.

 ----------------------------------------------------------------------
 #N Geom=AllCheck Guess=TCheck SCRF=Check GenChk RB3LYP/6-31G(2df,p) Fr
 eq
 ----------------------------------------------------------------------

 Structure from the checkpoint file:  "/scratch/puck/g09_937a0d73-bd8d-4e85-9f8d-d1d19499f31a/Gau-75991.chk"
 -----
 titel
 -----
 Charge =  0 Multiplicity = 1

                         Standard orientation:
 ---------------------------------------------------------------------
 Center     Atomic      Atomic             Coordinates (Angstroms)
 Number     Number       Type             X           Y           Z
 ---------------------------------------------------------------------
      1          6           0        1.632850   -1.123730   -0.857073
      2          6           0        1.021878   -0.037072    0.026707
      3          8           0        1.909436    0.292585    1.107559
      4          6           0        0.603775    1.210835   -0.731856
      5          6           0       -0.637901    1.605803   -0.450457
      6          6           0       -1.332847    0.674752    0.501188
      7          6           0       -2.192102   -0.432792   -0.157966
      8          8           0       -1.101874   -1.373630   -0.080257
      9          6           0       -0.299699   -0.462354    0.704639
     10          1           0        1.944749   -1.974461   -0.244515
     11          1           0        0.910906   -1.471500   -1.598545
     12          1           0        2.515567   -0.737226   -1.380001
     13          1           0        2.690958    0.711522    0.731561
     14          1           0        1.281547    1.715260   -1.414693
     15          1           0       -1.123336    2.483067   -0.866003
     16          1           0       -1.771208    1.164884    1.372876
     17          1           0       -3.049928   -0.760064    0.443729
     18          1           0       -2.516967   -0.257283   -1.189840
     19          1           0       -0.118503   -0.838488    1.715931
 ---------------------------------------------------------------------

 SCF Done:  E(RB3LYP) =  -423.175728897     A.U. after    1 cycles

 The electronic state is 1-A.
 Alpha  occ. eigenvalues --  -19.13262 -19.13199 -10.23562 -10.22966 -10.22637
 Alpha  occ. eigenvalues --  -10.19383 -10.18865 -10.18265 -10.16897  -1.03906
 Alpha  occ. eigenvalues --   -1.01299  -0.82696  -0.75127  -0.70082  -0.68545
 Alpha  occ. eigenvalues --   -0.62487  -0.55917  -0.53608  -0.51447  -0.47811
 Alpha  occ. eigenvalues --   -0.47124  -0.44217  -0.42809  -0.41257  -0.40972
 Alpha  occ. eigenvalues --   -0.37925  -0.36430  -0.36234  -0.33775  -0.32001
 Alpha  occ. eigenvalues --   -0.29791  -0.26994  -0.25185  -0.24774
 Alpha virt. eigenvalues --    0.00786   0.08164   0.08387   0.10850   0.13271
 Alpha virt. eigenvalues --    0.13604   0.15264   0.15711   0.16080   0.17255
 Alpha virt. eigenvalues --    0.17564   0.18172   0.19339   0.21280   0.22411

 Mulliken charges:
               1
     1  C   -0.431744
     2  C    0.310161
     3  O   -0.472496
     4  C   -0.115027
     5  C   -0.092885
     6  C   -0.129907
     7  C   -0.077275
     8  O   -0.291298
     9  C    0.103994
    10  H    0.124664
    11  H    0.137304
    12  H    0.097766
    13  H    0.274657
    14  H    0.090079
    15  H    0.098905
    16  H    0.086478
    17  H    0.098641
    18  H    0.103018
    19  H    0.084967
 Sum of Mulliken charges =   0.00000

 Dipole moment (field-independent basis, Debye):
    X=              0.0005    Y=              1.7878    Z=             -0.8263  Tot=              1.9695
 Quadrupole moment (field-independent basis, Debye-Ang):
   XX=            -46.4976   YY=            -54.8820   ZZ=            -54.4322
   XY=             -0.5318   XZ=             -2.8990   YZ=             -1.5498

  Exact polarizability:  93.279  -2.652  70.146  -3.518  -3.470  65.333
 Approx polarizability: 134.673  -5.044 102.352  -4.271  -3.860 100.083

                      1                      2                      3
                      A                      A                      A
 Frequencies --    101.7722               178.1553               194.1321
 Red. masses --      3.1660                 1.2011                 2.1808
 Frc consts  --      0.0193                 0.0225                 0.0484
 IR Inten    --      2.9415                76.4225                16.3707

                      4                      5                      6
                      A                      A                      A
 Frequencies --    216.0075               248.9700               332.7237
 Red. masses --      1.1819                 2.8782                 2.5605
 Frc consts  --      0.0325                 0.1051                 0.1670
 IR Inten    --      0.3676                15.0018                 2.0731

                      7                      8                      9
                      A                      A                      A
 Frequencies --    342.1060               392.5767               451.0801
 Red. masses --      3.8806                 4.2225                 2.6729
 Frc consts  --      0.2676                 0.3834                 0.3204
 IR Inten    --      4.9744                 4.3760                 2.1797

                     10                     11                     12
                      A                      A                      A
 Frequencies --    579.1769               595.6716               711.0644
 Red. masses --      3.6547                 3.6120                 5.1173
 Frc consts  --      0.7223                 0.7551                 1.5244
 IR Inten    --      4.9262                 1.5338                 0.1538

                     13                     14                     15
                      A                      A                      A
 Frequencies --    789.2836               824.0126               841.2882
 Red. masses --      1.4977                 3.0664                 2.1765
 Frc consts  --      0.5497                 1.2267                 0.9076
 IR Inten    --     26.6850                 2.8054                 1.1529

                     16                     17                     18
                      A                      A                      A
 Frequencies --    874.0695               895.9267               935.1317
 Red. masses --      2.0728                 3.6134                 2.1754
 Frc consts  --      0.9330                 1.7089                 1.1208
 IR Inten    --      7.4354                14.7501                30.3030

                     19                     20                     21
                      A                      A                      A
 Frequencies --    965.8442               978.8671               994.6517
 Red. masses --      1.7555                 1.3078                 2.9024
 Frc consts  --      0.9648                 0.7383                 1.6918
 IR Inten    --      9.5707                 0.6157                 7.0896

                     22                     23                     24
                      A                      A                      A
 Frequencies --   1032.3091              1056.7269              1078.4557
 Red. masses --      7.1227                 2.5804                 1.7434
 Frc consts  --      4.4721                 1.6977                 1.1947
 IR Inten    --    132.8640                11.6150                 4.2961

                     25                     26                     27
                      A                      A                      A
 Frequencies --   1101.5660              1131.9451              1155.0879
 Red. masses --      1.3061                 2.1880                 1.7220
 Frc consts  --      0.9338                 1.6517                 1.3537
 IR Inten    --     24.3794                53.4282                 4.5900

                     28                     29                     30
                      A                      A                      A
 Frequencies --   1167.1185              1183.4021              1226.0262
 Red. masses --      1.1795                 2.4976                 1.5825
 Frc consts  --      0.9466                 2.0608                 1.4015
 IR Inten    --      1.9878                16.8623                 4.9603

                     31                     32                     33
                      A                      A                      A
 Frequencies --   1258.1143              1302.8873              1320.9231
 Red. masses --      1.5143                 1.2745                 1.7695
 Frc consts  --      1.4122                 1.2747                 1.8191
 IR Inten    --      1.6728                 5.6302                 0.8171

                     34                     35                     36
                      A                      A                      A
 Frequencies --   1349.2200              1363.6981              1391.5679
 Red. masses --      1.4004                 1.8183                 1.6813
 Frc consts  --      1.5020                 1.9922                 1.9183
 IR Inten    --      7.1777                29.1562                 9.7741

                     37                     38                     39
                      A                      A                      A
 Frequencies --   1401.4052              1485.0890              1493.7150
 Red. masses --      1.3191                 1.0587                 1.0703
 Frc consts  --      1.5263                 1.3758                 1.4070
 IR Inten    --      2.6603                 3.4104                 7.8747

                     40                     41                     42
                      A                      A                      A
 Frequencies --   1520.8968              1675.0354              3011.3258
 Red. masses --      1.1013                 6.7489                 1.0570
 Frc consts  --      1.5009                11.1565                 5.6475
 IR Inten    --      1.1784                 1.9531                91.4869

                     43                     44                     45
                      A                      A                      A
 Frequencies --   3033.2962              3062.4784              3067.5381
 Red. masses --      1.0393                 1.1072                 1.0876
 Frc consts  --      5.6342                 6.1180                 6.0298
 IR Inten    --     23.6446                40.0398                15.7106

                     46                     47                     48
                      A                      A                      A
 Frequencies --   3091.2973              3102.9513              3137.8924
 Red. masses --      1.0880                 1.0975                 1.1003
 Frc consts  --      6.1260                 6.2258                 6.3834
 IR Inten    --     42.0321                18.8696                11.9100

                     49                     50                     51
                      A                      A                      A
 Frequencies --   3165.8625              3192.9162              3809.1159
 Red. masses --      1.0846                 1.1029                 1.0662
 Frc consts  --      6.4047                 6.6248                 9.1147
 IR Inten    --      8.6945                21.8756                17.9555

 - Thermochemistry -
 -------------------
 Temperature   298.150 Kelvin.  Pressure   1.00000 Atm.
 Atom     1 has atomic number  6 and mass  12.00000

 Molecular mass:   126.06808 amu.
 Principal axes and moments of inertia in atomic units:
                           1         2         3
     Eigenvalues --   661.670711117.475771344.53682
           X            0.99896  -0.03651  -0.02741
           Y            0.03655   0.99933   0.00087
           Z            0.02736  -0.00187   0.99962
 This molecule is an asymmetric top.
 Rotational symmetry number  1.
 Warning -- assumption of classical behavior for rotation
           may cause significant error
 Rotational temperatures (Kelvin)      0.13090     0.07751     0.06442
 Rotational constants (GHZ):           2.72755     1.61502     1.34228
 Zero-point vibrational energy     417570.7 (Joules/Mol)
                                   99.80180 (Kcal/Mol)
 Warning -- explicit consideration of  11 degrees of freedom as
           vibrations may cause significant error
 Vibrational temperatures:    146.43   256.33   279.31   310.79   358.21
          (Kelvin)            478.71   492.21   564.83   649.00   833.31
                              857.04  1023.06  1135.60  1185.57  1210.42
                             1257.59  1289.04  1345.44  1389.63  1408.37
                             1431.08  1485.26  1520.39  1551.66  1584.91
                             1628.61  1661.91  1679.22  1702.65  1763.98
                             1810.14  1874.56  1900.51  1941.22  1962.05
                             2002.15  2016.31  2136.71  2149.12  2188.23
                             2410.00  4332.62  4364.23  4406.22  4413.50
                             4447.68  4464.45  4514.72  4554.96  4593.89
                             5480.46

 Zero-point correction=                           0.159044 (Hartree/Particle)
 Thermal correction to Energy=                    0.167365
 Thermal correction to Enthalpy=                  0.168310
 Thermal correction to Gibbs Free Energy=         0.126507
 Sum of electronic and zero-point Energies=           -423.016685
 Sum of electronic and thermal Energies=              -423.008364
 Sum of electronic and thermal Enthalpies=            -423.007419
 Sum of electronic and thermal Free Energies=         -423.049222

                     E (Thermal)             CV                S
                      KCal/Mol        Cal/Mol-Kelvin    Cal/Mol-Kelvin
 Total                  105.023             32.283             87.980
 Electronic               0.000              0.000              0.000
 Translational            0.889              2.981             40.409
 Rotational               0.889              2.981             28.388
 Vibrational            103.246             26.321             19.184
 Vibration     1          0.604              1.948              3.420
 Vibration     2          0.629              1.869              2.348
 Vibration     3          0.635              1.848              2.188
 Vibration     4          0.645              1.817              1.992
 Vibration     5          0.662              1.764              1.738
 Vibration     6          0.715              1.610              1.247
 Vibration     7          0.721              1.591              1.202
 Vibration     8          0.760              1.486              0.990
 Vibration     9          0.810              1.359              0.793
 Vibration    10          0.936              1.076              0.487
 Vibration    11          0.953              1.041              0.457

 Optimization completed.
    -- Stationary point found.
 Normal termination of Gaussian 09 at Mon Jan 27 17:01:29 2020.
 Normal termination of Gaussian 09 at Mon Jan 27 16:18:09 2020.
