 Gaussian 09, Revision D.01,
 Gaussian 09:  ES64L-G09RevD.01 24-Apr-2013

 -----------------------------
 # b3lyp 6-31G(2df,p) opt Freq
 -----------------------------

 -----
 titel
 -----
 Symbolic Z-matrix:
 Charge =  0 Multiplicity = 1

 SCF Done:  E(RB3LYP) =  -423.113330859     A.U. after   14 cycles
 Optimization completed.
    -- Stationary point found.
 Normal termination of Gaussian 09 at Tue Jan 28 14:30:08 2020.

 ----------------------------------------------------------------------
 #N Geom=AllCheck Guess=TCheck SCRF=Check GenChk RB3LYP/6-31G(2df,p) Fr
 eq
 ----------------------------------------------------------------------

 Structure from the checkpoint file:  "/scratch/puck/g09_7b8dc1e3-97b2-4d13-915c-b58a3328eb3d/Gau-12001.chk"
 -----
 titel
 -----
 Charge =  0 Multiplicity = 1

                         Standard orientation:
 ---------------------------------------------------------------------
 Center     Atomic      Atomic             Coordinates (Angstroms)
 Number     Number       Type             X           Y           Z
 ---------------------------------------------------------------------
      1          6           0       -4.024542   -0.482140   -0.356556
      2          6           0       -2.924415    0.471398    0.075910
      3          8           0       -1.673857   -0.132030   -0.195638
      4          6           0       -0.577658    0.675809    0.158683
      5          6           0        0.686130   -0.066373   -0.182041
      6          8           0        1.216613   -0.949189    0.801628
      7          6           0        1.957047    0.245823    0.502339
      8          6           0        3.227195    0.101664   -0.156742
      9          6           0        4.298032    0.002760   -0.693249
     10          1           0       -3.946505   -1.427863    0.186801
     11          1           0       -5.007313   -0.045142   -0.156287
     12          1           0       -3.949735   -0.694502   -1.426750
     13          1           0       -3.006444    1.430771   -0.463366
     14          1           0       -3.008680    0.699293    1.151868
     15          1           0       -0.601954    1.631948   -0.394416
     16          1           0       -0.584940    0.911517    1.235638
     17          1           0        0.737750   -0.447364   -1.201466
     18          1           0        1.932971    0.987851    1.300707
     19          1           0        5.242071   -0.090409   -1.170717
 ---------------------------------------------------------------------

 SCF Done:  E(RB3LYP) =  -423.113330859     A.U. after    1 cycles

 The electronic state is 1-A.
 Alpha  occ. eigenvalues --  -19.16014 -19.14396 -10.26423 -10.24730 -10.23870
 Alpha  occ. eigenvalues --  -10.23220 -10.19050 -10.18557 -10.17760  -1.08270
 Alpha  occ. eigenvalues --   -1.03850  -0.77564  -0.76920  -0.71884  -0.68013
 Alpha  occ. eigenvalues --   -0.61368  -0.60613  -0.55181  -0.51377  -0.49722
 Alpha  occ. eigenvalues --   -0.49116  -0.48131  -0.44152  -0.42446  -0.39801
 Alpha  occ. eigenvalues --   -0.38673  -0.37176  -0.35663  -0.34339  -0.32543
 Alpha  occ. eigenvalues --   -0.28400  -0.28059  -0.26328  -0.26010
 Alpha virt. eigenvalues --    0.01919   0.03968   0.08665   0.09928   0.11670
 Alpha virt. eigenvalues --    0.12056   0.12913   0.14318   0.15465   0.16060
 Alpha virt. eigenvalues --    0.16810   0.17834   0.18418   0.19400   0.19454

 Mulliken charges:
               1
     1  C   -0.385288
     2  C   -0.026065
     3  O   -0.244898
     4  C   -0.082172
     5  C    0.055174
     6  O   -0.233594
     7  C   -0.163935
     8  C    0.318479
     9  C   -0.409413
    10  H    0.131760
    11  H    0.115664
    12  H    0.127684
    13  H    0.085628
    14  H    0.089325
    15  H    0.092569
    16  H    0.095923
    17  H    0.113660
    18  H    0.115953
    19  H    0.203545
 Sum of Mulliken charges =   0.00000

 Dipole moment (field-independent basis, Debye):
    X=             -0.6255    Y=              2.2726    Z=             -0.5046  Tot=              2.4105
 Quadrupole moment (field-independent basis, Debye-Ang):
   XX=            -44.6687   YY=            -55.1200   ZZ=            -52.6468
   XY=              0.0504   XZ=             -3.3957   YZ=              2.2011

  Exact polarizability: 119.780   0.186  60.080  -7.616   2.350  64.579
 Approx polarizability: 148.129   0.456  92.555 -16.180   1.225 100.480

                      1                      2                      3
                      A                      A                      A
 Frequencies --     43.2483                68.8748                86.2120
 Red. masses --      4.2996                 2.1754                 2.9937
 Frc consts  --      0.0047                 0.0061                 0.0131
 IR Inten    --      0.9518                 1.0785                 0.1340

                      4                      5                      6
                      A                      A                      A
 Frequencies --    121.7120               165.8775               198.6006
 Red. masses --      4.5785                 3.2209                 3.7509
 Frc consts  --      0.0400                 0.0522                 0.0872
 IR Inten    --      1.4794                 3.1384                 0.2462

                      7                      8                      9
                      A                      A                      A
 Frequencies --    248.5256               289.2692               325.4024
 Red. masses --      1.1557                 3.8564                 4.1779
 Frc consts  --      0.0421                 0.1901                 0.2606
 IR Inten    --      0.4712                 1.4669                 0.2260

                     10                     11                     12
                      A                      A                      A
 Frequencies --    413.2813               475.1734               542.8360
 Red. masses --      3.7695                 3.0882                 5.9960
 Frc consts  --      0.3793                 0.4108                 1.0410
 IR Inten    --      2.8904                 3.9573                 3.1705

                     13                     14                     15
                      A                      A                      A
 Frequencies --    583.7547               621.9237               672.2309
 Red. masses --      4.2834                 1.2122                 1.2530
 Frc consts  --      0.8600                 0.2763                 0.3336
 IR Inten    --     11.0508                46.3764                34.8952

                     16                     17                     18
                      A                      A                      A
 Frequencies --    791.3164               821.6625               886.6290
 Red. masses --      4.7337                 1.0885                 2.4063
 Frc consts  --      1.7464                 0.4330                 1.1145
 IR Inten    --     10.6852                 0.4336                13.3933

                     19                     20                     21
                      A                      A                      A
 Frequencies --    921.4275               984.9940              1008.9387
 Red. masses --      3.7818                 2.7515                 2.6372
 Frc consts  --      1.8918                 1.5729                 1.5817
 IR Inten    --     41.0277                18.8326                13.3457

                     22                     23                     24
                      A                      A                      A
 Frequencies --   1046.3158              1073.8448              1120.7106
 Red. masses --      2.9131                 1.8596                 1.5838
 Frc consts  --      1.8790                 1.2634                 1.1721
 IR Inten    --     14.7751                10.5985                 9.3220

                     25                     26                     27
                      A                      A                      A
 Frequencies --   1144.9475              1155.3201              1171.3771
 Red. masses --      1.7295                 3.4820                 3.2203
 Frc consts  --      1.3358                 2.7383                 2.6034
 IR Inten    --      2.8716               112.6975               135.3245

                     28                     29                     30
                      A                      A                      A
 Frequencies --   1190.8655              1265.3530              1269.6176
 Red. masses --      1.5979                 1.1436                 1.4820
 Frc consts  --      1.3351                 1.0788                 1.4075
 IR Inten    --      7.4351                 3.4103                 7.4387

                     31                     32                     33
                      A                      A                      A
 Frequencies --   1295.2714              1338.9602              1384.4508
 Red. masses --      1.1067                 1.1540                 1.2535
 Frc consts  --      1.0939                 1.2190                 1.4155
 IR Inten    --      2.4886                38.9711                32.6617

                     34                     35                     36
                      A                      A                      A
 Frequencies --   1405.3088              1438.1427              1483.5387
 Red. masses --      1.2735                 1.5761                 1.0480
 Frc consts  --      1.4819                 1.9206                 1.3590
 IR Inten    --      6.3283                19.3258                 3.1073

                     37                     38                     39
                      A                      A                      A
 Frequencies --   1483.6750              1496.6219              1501.5342
 Red. masses --      2.3487                 1.1068                 1.0535
 Frc consts  --      3.0462                 1.4606                 1.3995
 IR Inten    --      9.4433                 8.8718                 0.5747

                     40                     41                     42
                      A                      A                      A
 Frequencies --   1532.3554              2242.9294              2943.7245
 Red. masses --      1.1027                 5.9502                 1.0577
 Frc consts  --      1.5256                17.6364                 5.4001
 IR Inten    --      2.1160                 0.6626                18.8017

                     43                     44                     45
                      A                      A                      A
 Frequencies --   2956.6051              2979.4485              2988.6947
 Red. masses --      1.0576                 1.1039                 1.0995
 Frc consts  --      5.4471                 5.7737                 5.7866
 IR Inten    --     81.6831                65.2108                29.0847

                     46                     47                     48
                      A                      A                      A
 Frequencies --   3046.2999              3107.3588              3120.7205
 Red. masses --      1.0347                 1.0862                 1.1016
 Frc consts  --      5.6573                 6.1794                 6.3207
 IR Inten    --     17.1183                12.2404                24.2443

                     49                     50                     51
                      A                      A                      A
 Frequencies --   3124.1195              3128.5581              3503.5542
 Red. masses --      1.1027                 1.0876                 1.1624
 Frc consts  --      6.3410                 6.2718                 8.4065
 IR Inten    --     23.7332                17.5817                74.4017

 - Thermochemistry -
 -------------------
 Temperature   298.150 Kelvin.  Pressure   1.00000 Atm.
 Atom     1 has atomic number  6 and mass  12.00000

 Molecular mass:   126.06808 amu.
 Principal axes and moments of inertia in atomic units:
                           1         2         3
     Eigenvalues --   244.402733230.465353257.80318
           X            1.00000   0.00230  -0.00048
           Y           -0.00178   0.87636   0.48165
           Z            0.00153  -0.48165   0.87636
 This molecule is an asymmetric top.
 Rotational symmetry number  1.
 Rotational temperatures (Kelvin)      0.35439     0.02681     0.02659
 Rotational constants (GHZ):           7.38429     0.55866     0.55397
 Zero-point vibrational energy     407999.1 (Joules/Mol)
                                   97.51411 (Kcal/Mol)
 Warning -- explicit consideration of  13 degrees of freedom as
           vibrations may cause significant error
 Vibrational temperatures:     62.22    99.10   124.04   175.12   238.66
          (Kelvin)            285.74   357.57   416.19   468.18   594.62
                              683.67   781.02   839.89   894.81   967.19
                             1138.53  1182.19  1275.66  1325.73  1417.18
                             1451.64  1505.41  1545.02  1612.45  1647.32
                             1662.25  1685.35  1713.39  1820.56  1826.69
                             1863.60  1926.46  1991.91  2021.92  2069.16
                             2134.48  2134.67  2153.30  2160.37  2204.71
                             3227.07  4235.36  4253.89  4286.76  4300.06
                             4382.94  4470.79  4490.02  4494.91  4501.29
                             5040.83

 Zero-point correction=                           0.155399 (Hartree/Particle)
 Thermal correction to Energy=                    0.165584
 Thermal correction to Enthalpy=                  0.166528
 Thermal correction to Gibbs Free Energy=         0.119063
 Sum of electronic and zero-point Energies=           -422.957932
 Sum of electronic and thermal Energies=              -422.947747
 Sum of electronic and thermal Enthalpies=            -422.946803
 Sum of electronic and thermal Free Energies=         -422.994268

                     E (Thermal)             CV                S
                      KCal/Mol        Cal/Mol-Kelvin    Cal/Mol-Kelvin
 Total                  103.906             35.590             99.898
 Electronic               0.000              0.000              0.000
 Translational            0.889              2.981             40.409
 Rotational               0.889              2.981             29.332
 Vibrational            102.128             29.629             30.157
 Vibration     1          0.595              1.980              5.104
 Vibration     2          0.598              1.969              4.185
 Vibration     3          0.601              1.959              3.744
 Vibration     4          0.609              1.931              3.073
 Vibration     5          0.624              1.884              2.482
 Vibration     6          0.637              1.842              2.146
 Vibration     7          0.662              1.765              1.741
 Vibration     8          0.686              1.694              1.478
 Vibration     9          0.710              1.625              1.283
 Vibration    10          0.777              1.441              0.915
 Vibration    11          0.832              1.305              0.723
 Vibration    12          0.898              1.155              0.559
 Vibration    13          0.941              1.066              0.478

 Normal termination of Gaussian 09 at Tue Jan 28 15:01:30 2020.
