 Gaussian 09, Revision D.01,
 Gaussian 09:  ES64L-G09RevD.01 24-Apr-2013

 -----------------------------
 # b3lyp 6-31G(2df,p) opt Freq
 -----------------------------

 -----
 titel
 -----
 Symbolic Z-matrix:
 Charge =  0 Multiplicity = 1

 SCF Done:  E(RB3LYP) =  -423.163240141     A.U. after   14 cycles
 Optimization completed.
    -- Stationary point found.
 Normal termination of Gaussian 09 at Mon Jan 27 14:12:50 2020.

 ----------------------------------------------------------------------
 #N Geom=AllCheck Guess=TCheck SCRF=Check GenChk RB3LYP/6-31G(2df,p) Fr
 eq
 ----------------------------------------------------------------------

 Structure from the checkpoint file:  "/scratch/puck/g09_dd045d68-33f3-4d19-b86d-31d3a40f6ada/Gau-4611.chk"
 -----
 titel
 -----
 Charge =  0 Multiplicity = 1

                         Standard orientation:
 ---------------------------------------------------------------------
 Center     Atomic      Atomic             Coordinates (Angstroms)
 Number     Number       Type             X           Y           Z
 ---------------------------------------------------------------------
      1          6           0       -2.200626   -0.765681   -0.871624
      2          6           0       -1.420933    0.263464   -0.068445
      3          8           0       -1.907966    1.334449    0.212367
      4          6           0        0.002610   -0.116159    0.352045
      5          6           0       -0.024366   -1.165669    1.468906
      6          6           0        0.909316    1.143376    0.604943
      7          6           0        1.756133    0.729441   -0.602496
      8          8           0        2.251081   -0.596233   -0.349907
      9          6           0        0.924146   -0.454327   -0.856871
     10          1           0       -3.263126   -0.520865   -0.843804
     11          1           0       -1.864963   -0.725737   -1.915505
     12          1           0       -2.037180   -1.787802   -0.521361
     13          1           0       -0.486411   -0.755212    2.372449
     14          1           0       -0.578665   -2.065095    1.183047
     15          1           0        1.001475   -1.458521    1.704452
     16          1           0        0.346863    2.066865    0.463022
     17          1           0        1.444620    1.172004    1.556675
     18          1           0        2.330436    1.345145   -1.284480
     19          1           0        0.684358   -0.983178   -1.772927
 ---------------------------------------------------------------------

 SCF Done:  E(RB3LYP) =  -423.163240141     A.U. after    1 cycles

 The electronic state is 1-A.
 Alpha  occ. eigenvalues --  -19.15736 -19.13398 -10.27426 -10.24422 -10.24198
 Alpha  occ. eigenvalues --  -10.21051 -10.19418 -10.18728 -10.18515  -1.08359
 Alpha  occ. eigenvalues --   -1.04475  -0.82683  -0.75225  -0.72179  -0.66025
 Alpha  occ. eigenvalues --   -0.62262  -0.58680  -0.54101  -0.49520  -0.47467
 Alpha  occ. eigenvalues --   -0.45927  -0.45056  -0.43594  -0.42116  -0.41105
 Alpha  occ. eigenvalues --   -0.40019  -0.39048  -0.36427  -0.36026  -0.34459
 Alpha  occ. eigenvalues --   -0.33109  -0.29599  -0.26344  -0.24633
 Alpha virt. eigenvalues --   -0.02033   0.07928   0.08601   0.10119   0.11480
 Alpha virt. eigenvalues --    0.12771   0.14078   0.15138   0.16278   0.16658
 Alpha virt. eigenvalues --    0.17098   0.17640   0.18496   0.19353   0.21287

 Mulliken charges:
               1
     1  C   -0.483412
     2  C    0.324636
     3  O   -0.299236
     4  C    0.194348
     5  C   -0.468312
     6  C   -0.313639
     7  C    0.041833
     8  O   -0.247049
     9  C   -0.026464
    10  H    0.146418
    11  H    0.147098
    12  H    0.137080
    13  H    0.130542
    14  H    0.117189
    15  H    0.145454
    16  H    0.136336
    17  H    0.107617
    18  H    0.107848
    19  H    0.101712
 Sum of Mulliken charges =   0.00000

 Dipole moment (field-independent basis, Debye):
    X=             -0.2663    Y=             -1.1816    Z=             -1.0174  Tot=              1.5818
 Quadrupole moment (field-independent basis, Debye-Ang):
   XX=            -58.9977   YY=            -54.7787   ZZ=            -50.1452
   XY=              8.1307   XZ=              1.1500   YZ=             -0.6571

  Exact polarizability:  81.015   3.656  74.561   0.596   2.698  68.668
 Approx polarizability: 114.173  -3.019 120.720   0.135   7.080  99.938

                      1                      2                      3
                      A                      A                      A
 Frequencies --     32.5556                82.1030               150.2684
 Red. masses --      2.3923                 1.3398                 3.2871
 Frc consts  --      0.0015                 0.0053                 0.0437
 IR Inten    --      3.6078                 0.9522                 2.5084

                      4                      5                      6
                      A                      A                      A
 Frequencies --    196.4208               226.3472               249.4343
 Red. masses --      2.8867                 1.2029                 2.7743
 Frc consts  --      0.0656                 0.0363                 0.1017
 IR Inten    --      6.8029                 0.7691                 0.4641

                      7                      8                      9
                      A                      A                      A
 Frequencies --    304.0728               377.9747               428.7603
 Red. masses --      2.4999                 3.5531                 2.2879
 Frc consts  --      0.1362                 0.2991                 0.2478
 IR Inten    --      2.4001                 2.1174                 3.4993

                     10                     11                     12
                      A                      A                      A
 Frequencies --    460.1433               565.9576               606.5254
 Red. masses --      3.9749                 3.0734                 3.5712
 Frc consts  --      0.4959                 0.5800                 0.7740
 IR Inten    --      1.8406                 8.7393                12.5540

                     13                     14                     15
                      A                      A                      A
 Frequencies --    632.5088               777.6185               836.6689
 Red. masses --      3.0265                 5.1788                 2.8074
 Frc consts  --      0.7134                 1.8451                 1.1579
 IR Inten    --      0.6453                 2.5244                 0.3271

                     16                     17                     18
                      A                      A                      A
 Frequencies --    846.1252               856.9667               893.2038
 Red. masses --      2.1302                 1.6584                 2.5069
 Frc consts  --      0.8986                 0.7176                 1.1784
 IR Inten    --      1.7827                33.5039                 2.8181

                     19                     20                     21
                      A                      A                      A
 Frequencies --    927.5383               969.7100               984.5575
 Red. masses --      2.6817                 1.6576                 1.9094
 Frc consts  --      1.3593                 0.9184                 1.0905
 IR Inten    --      8.6228                14.6456                21.4872

                     22                     23                     24
                      A                      A                      A
 Frequencies --   1006.3757              1022.2629              1047.1473
 Red. masses --      1.8450                 1.7628                 1.3589
 Frc consts  --      1.1009                 1.0853                 0.8779
 IR Inten    --      3.0052                 3.9679                 1.0407

                     25                     26                     27
                      A                      A                      A
 Frequencies --   1113.2144              1133.1402              1149.6772
 Red. masses --      1.9250                 1.9030                 2.2259
 Frc consts  --      1.4055                 1.4397                 1.7335
 IR Inten    --      8.2688                28.2426                16.0900

                     28                     29                     30
                      A                      A                      A
 Frequencies --   1192.6218              1227.9655              1246.5200
 Red. masses --      2.1099                 1.4017                 1.8494
 Frc consts  --      1.7681                 1.2453                 1.6930
 IR Inten    --     22.6653                 5.5737                 9.0292

                     31                     32                     33
                      A                      A                      A
 Frequencies --   1270.3411              1281.7421              1377.5867
 Red. masses --      1.7158                 2.4980                 2.8309
 Frc consts  --      1.6313                 2.4179                 3.1653
 IR Inten    --     17.3101                10.5397                22.1512

                     34                     35                     36
                      A                      A                      A
 Frequencies --   1381.3925              1403.3219              1462.7717
 Red. masses --      1.3186                 1.3433                 1.0511
 Frc consts  --      1.4825                 1.5586                 1.3251
 IR Inten    --     37.5112                 3.1088                 7.1246

                     37                     38                     39
                      A                      A                      A
 Frequencies --   1474.3548              1478.1790              1490.4953
 Red. masses --      1.0564                 1.1077                 1.0554
 Frc consts  --      1.3529                 1.4260                 1.3815
 IR Inten    --      8.0266                 5.2034                 6.6911

                     40                     41                     42
                      A                      A                      A
 Frequencies --   1503.9775              1802.4092              3036.8792
 Red. masses --      1.0505                11.4130                 1.0380
 Frc consts  --      1.4000                21.8452                 5.6404
 IR Inten    --      5.5050               138.1362                12.0017

                     43                     44                     45
                      A                      A                      A
 Frequencies --   3039.4224              3076.8015              3103.0295
 Red. masses --      1.0387                 1.0603                 1.0991
 Frc consts  --      5.6535                 5.9139                 6.2353
 IR Inten    --     11.2749                20.8995                13.4873

                     46                     47                     48
                      A                      A                      A
 Frequencies --   3109.5654              3126.8150              3145.0846
 Red. masses --      1.0930                 1.1008                 1.1057
 Frc consts  --      6.2271                 6.3409                 6.4437
 IR Inten    --     16.5707                 8.8157                 4.3138

                     49                     50                     51
                      A                      A                      A
 Frequencies --   3154.8408              3172.8611              3194.6046
 Red. masses --      1.1036                 1.0884                 1.0992
 Frc consts  --      6.4715                 6.4559                 6.6093
 IR Inten    --      8.6232                15.7069                20.8247

 - Thermochemistry -
 -------------------
 Temperature   298.150 Kelvin.  Pressure   1.00000 Atm.
 Atom     1 has atomic number  6 and mass  12.00000

 Molecular mass:   126.06808 amu.
 Principal axes and moments of inertia in atomic units:
                           1         2         3
     Eigenvalues --   645.149631380.344111462.62284
           X            0.99811   0.05756   0.02162
           Y           -0.05668   0.99763  -0.03910
           Z           -0.02382   0.03780   0.99900
 This molecule is an asymmetric top.
 Rotational symmetry number  1.
 Warning -- assumption of classical behavior for rotation
           may cause significant error
 Rotational temperatures (Kelvin)      0.13425     0.06275     0.05922
 Rotational constants (GHZ):           2.79740     1.30746     1.23391
 Zero-point vibrational energy     410503.7 (Joules/Mol)
                                   98.11274 (Kcal/Mol)
 Warning -- explicit consideration of  12 degrees of freedom as
           vibrations may cause significant error
 Vibrational temperatures:     46.84   118.13   216.20   282.61   325.66
          (Kelvin)            358.88   437.49   543.82   616.89   662.04
                              814.29   872.65   910.04  1118.82  1203.78
                             1217.38  1232.98  1285.12  1334.52  1395.19
                             1416.56  1447.95  1470.81  1506.61  1601.67
                             1630.33  1654.13  1715.91  1766.77  1793.46
                             1827.74  1844.14  1982.04  1987.51  2019.06
                             2104.60  2121.27  2126.77  2144.49  2163.89
                             2593.26  4369.39  4373.05  4426.83  4464.56
                             4473.97  4498.78  4525.07  4539.11  4565.03
                             4596.32

 Zero-point correction=                           0.156353 (Hartree/Particle)
 Thermal correction to Energy=                    0.165563
 Thermal correction to Enthalpy=                  0.166507
 Thermal correction to Gibbs Free Energy=         0.121654
 Sum of electronic and zero-point Energies=           -423.006888
 Sum of electronic and thermal Energies=              -422.997677
 Sum of electronic and thermal Enthalpies=            -422.996733
 Sum of electronic and thermal Free Energies=         -423.041586

                     E (Thermal)             CV                S
                      KCal/Mol        Cal/Mol-Kelvin    Cal/Mol-Kelvin
 Total                  103.893             33.897             94.401
 Electronic               0.000              0.000              0.000
 Translational            0.889              2.981             40.409
 Rotational               0.889              2.981             28.656
 Vibrational            102.115             27.936             25.337
 Vibration     1          0.594              1.983              5.667
 Vibration     2          0.600              1.961              3.840
 Vibration     3          0.618              1.902              2.669
 Vibration     4          0.636              1.845              2.166
 Vibration     5          0.650              1.801              1.908
 Vibration     6          0.662              1.764              1.735
 Vibration     7          0.695              1.666              1.394
 Vibration     8          0.748              1.517              1.047
 Vibration     9          0.790              1.408              0.863
 Vibration    10          0.818              1.338              0.766
 Vibration    11          0.922              1.105              0.512
 Vibration    12          0.965              1.018              0.439

 Optimization completed.
    -- Stationary point found.
 Normal termination of Gaussian 09 at Mon Jan 27 16:07:07 2020.
