 Gaussian 09, Revision D.01,
 Gaussian 09:  ES64L-G09RevD.01 24-Apr-2013

 -----------------------------
 # b3lyp 6-31G(2df,p) opt Freq
 -----------------------------

 -----
 titel
 -----
 Symbolic Z-matrix:
 Charge =  0 Multiplicity = 1

 SCF Done:  E(RB3LYP) =  -423.240878129     A.U. after   14 cycles
 Optimization completed.
    -- Stationary point found.
 Normal termination of Gaussian 09 at Mon Jan 27 12:56:19 2020.

 ----------------------------------------------------------------------
 #N Geom=AllCheck Guess=TCheck SCRF=Check GenChk RB3LYP/6-31G(2df,p) Fr
 eq
 ----------------------------------------------------------------------

 Structure from the checkpoint file:  "/scratch/puck/g09_13b055a3-c6f6-4beb-a700-d0f8175ebb0a/Gau-20429.chk"
 -----
 titel
 -----
 Charge =  0 Multiplicity = 1

                         Standard orientation:
 ---------------------------------------------------------------------
 Center     Atomic      Atomic             Coordinates (Angstroms)
 Number     Number       Type             X           Y           Z
 ---------------------------------------------------------------------
      1          8           0       -3.070639   -0.183293   -0.532055
      2          6           0       -1.952408   -0.041112   -0.152513
      3          6           0       -1.235957    0.423899    1.113318
      4          6           0        0.047245    0.126307    0.318044
      5          6           0        0.957139   -1.024280    0.733361
      6          6           0        2.112847   -0.924401   -0.273254
      7          6           0        2.362213    0.597264   -0.397222
      8          6           0        0.994781    1.267620   -0.078200
      9          8           0       -0.797106   -0.287591   -0.841564
     10          1           0       -1.414338    1.470659    1.367234
     11          1           0       -1.416430   -0.201600    1.989728
     12          1           0        1.317668   -0.837801    1.753474
     13          1           0        0.435134   -1.984478    0.728247
     14          1           0        3.002634   -1.478181    0.036103
     15          1           0        1.785562   -1.334184   -1.234466
     16          1           0        3.115373    0.917534    0.329505
     17          1           0        2.738301    0.873117   -1.384933
     18          1           0        1.085044    1.976527    0.750514
     19          1           0        0.577844    1.813704   -0.927660
 ---------------------------------------------------------------------

 SCF Done:  E(RB3LYP) =  -423.240878129     A.U. after    1 cycles

 The electronic state is 1-A.
 Alpha  occ. eigenvalues --  -19.17223 -19.12748 -10.30347 -10.25785 -10.20635
 Alpha  occ. eigenvalues --  -10.19390 -10.19386 -10.19067 -10.18896  -1.09812
 Alpha  occ. eigenvalues --   -1.02518  -0.84489  -0.76674  -0.72652  -0.69563
 Alpha  occ. eigenvalues --   -0.58961  -0.57961  -0.53507  -0.50622  -0.49121
 Alpha  occ. eigenvalues --   -0.48311  -0.46147  -0.43988  -0.43186  -0.39169
 Alpha  occ. eigenvalues --   -0.39043  -0.36406  -0.35386  -0.35024  -0.34796
 Alpha  occ. eigenvalues --   -0.33476  -0.33087  -0.28977  -0.26858
 Alpha virt. eigenvalues --    0.01584   0.06623   0.07781   0.09910   0.12059
 Alpha virt. eigenvalues --    0.12969   0.14100   0.15352   0.15640   0.16549
 Alpha virt. eigenvalues --    0.17370   0.18154   0.19135   0.20599   0.22100

 Mulliken charges:
               1
     1  O   -0.322458
     2  C    0.441659
     3  C   -0.509571
     4  C    0.447622
     5  C   -0.260416
     6  C   -0.206847
     7  C   -0.205091
     8  C   -0.266112
     9  O   -0.278570
    10  H    0.139694
    11  H    0.139885
    12  H    0.104279
    13  H    0.111423
    14  H    0.099081
    15  H    0.121754
    16  H    0.103689
    17  H    0.108631
    18  H    0.108724
    19  H    0.122622
 Sum of Mulliken charges =   0.00000

 Dipole moment (field-independent basis, Debye):
    X=              3.4972    Y=              0.8769    Z=              2.3971  Tot=              4.3297
 Quadrupole moment (field-independent basis, Debye-Ang):
   XX=            -63.1561   YY=            -51.1404   ZZ=            -52.7212
   XY=             -1.4860   XZ=             -4.0589   YZ=             -0.7247

  Exact polarizability:  91.446   0.069  66.910  -0.070   0.656  66.615
 Approx polarizability: 124.058   1.442  96.556   3.813   3.029 103.609

                      1                      2                      3
                      A                      A                      A
 Frequencies --     43.2418                94.3607               170.5346
 Red. masses --      2.1255                 5.4850                 2.2845
 Frc consts  --      0.0023                 0.0288                 0.0391
 IR Inten    --      0.8765                 1.8813                 0.7207

                      4                      5                      6
                      A                      A                      A
 Frequencies --    263.5686               341.1894               419.0732
 Red. masses --      2.3926                 2.3616                 5.8308
 Frc consts  --      0.0979                 0.1620                 0.6033
 IR Inten    --      1.9027                 0.4679                 1.0357

                      7                      8                      9
                      A                      A                      A
 Frequencies --    434.5901               524.2679               539.9874
 Red. masses --      3.1397                 2.2433                 3.1587
 Frc consts  --      0.3494                 0.3633                 0.5427
 IR Inten    --      0.5856                 4.0582                 1.8455

                     10                     11                     12
                      A                      A                      A
 Frequencies --    588.6199               714.8510               762.9049
 Red. masses --      2.0075                 3.9812                 1.3732
 Frc consts  --      0.4098                 1.1987                 0.4709
 IR Inten    --      0.2538                 3.3198                 2.9418

                     13                     14                     15
                      A                      A                      A
 Frequencies --    818.3386               834.1543               856.5913
 Red. masses --      3.7211                 2.8589                 2.8811
 Frc consts  --      1.4682                 1.1720                 1.2455
 IR Inten    --     14.2413                56.2268                 9.5023

                     16                     17                     18
                      A                      A                      A
 Frequencies --    891.9578               902.5476               944.9503
 Red. masses --      2.0384                 2.7229                 2.0167
 Frc consts  --      0.9555                 1.3069                 1.0610
 IR Inten    --      0.2572                 0.5702                 2.0012

                     19                     20                     21
                      A                      A                      A
 Frequencies --    969.4080               978.8903              1022.2323
 Red. masses --      2.7517                 1.9217                 2.0529
 Frc consts  --      1.5236                 1.0850                 1.2639
 IR Inten    --     25.5091                24.5128                 1.4991

                     22                     23                     24
                      A                      A                      A
 Frequencies --   1047.4132              1087.3174              1120.7483
 Red. masses --      1.7730                 1.5143                 2.3944
 Frc consts  --      1.1460                 1.0548                 1.7720
 IR Inten    --      0.0617                 4.2426                60.3042

                     25                     26                     27
                      A                      A                      A
 Frequencies --   1146.1590              1198.4735              1214.5578
 Red. masses --      1.7502                 1.5258                 1.5914
 Frc consts  --      1.3547                 1.2912                 1.3832
 IR Inten    --     65.2547                 2.3376                 1.7029

                     28                     29                     30
                      A                      A                      A
 Frequencies --   1238.8882              1249.0902              1264.3184
 Red. masses --      2.0068                 1.7483                 1.9459
 Frc consts  --      1.8148                 1.6072                 1.8326
 IR Inten    --     34.5552                16.3462                21.2441

                     31                     32                     33
                      A                      A                      A
 Frequencies --   1287.2645              1302.0663              1338.4162
 Red. masses --      1.4221                 1.3424                 1.4007
 Frc consts  --      1.3884                 1.3409                 1.4784
 IR Inten    --      7.5820                 7.9440                 2.6423

                     34                     35                     36
                      A                      A                      A
 Frequencies --   1346.3930              1370.9960              1454.3049
 Red. masses --      1.3651                 1.8681                 1.1215
 Frc consts  --      1.4580                 2.0688                 1.3975
 IR Inten    --      1.0628                 9.8001                11.0934

                     37                     38                     39
                      A                      A                      A
 Frequencies --   1470.9895              1477.4851              1492.2067
 Red. masses --      1.0836                 1.0963                 1.0843
 Frc consts  --      1.3815                 1.4101                 1.4225
 IR Inten    --      4.0972                 1.6936                 3.0747

                     40                     41                     42
                      A                      A                      A
 Frequencies --   1511.1009              1934.7493              3029.2139
 Red. masses --      1.1012                12.8668                 1.0669
 Frc consts  --      1.4815                28.3773                 5.7682
 IR Inten    --      1.5504               504.3972                16.7764

                     43                     44                     45
                      A                      A                      A
 Frequencies --   3049.9088              3054.2270              3062.0605
 Red. masses --      1.0658                 1.0613                 1.0642
 Frc consts  --      5.8409                 5.8330                 5.8790
 IR Inten    --     21.7827                20.2570                28.4548

                     46                     47                     48
                      A                      A                      A
 Frequencies --   3082.2721              3094.2421              3101.6311
 Red. masses --      1.0596                 1.0973                 1.0970
 Frc consts  --      5.9308                 6.1901                 6.2179
 IR Inten    --      6.8615                15.9049                14.0445

                     49                     50                     51
                      A                      A                      A
 Frequencies --   3106.6775              3117.1268              3138.5219
 Red. masses --      1.1032                 1.1040                 1.1070
 Frc consts  --      6.2735                 6.3200                 6.4245
 IR Inten    --     13.4540                41.3538                 3.4859

 - Thermochemistry -
 -------------------
 Temperature   298.150 Kelvin.  Pressure   1.00000 Atm.
 Atom     1 has atomic number  8 and mass  15.99491

 Molecular mass:   126.06808 amu.
 Principal axes and moments of inertia in atomic units:
                           1         2         3
     Eigenvalues --   450.772721644.759711696.87575
           X            0.99982  -0.00698  -0.01787
           Y            0.00606   0.99869  -0.05076
           Z            0.01820   0.05064   0.99855
 This molecule is an asymmetric top.
 Rotational symmetry number  1.
 Warning -- assumption of classical behavior for rotation
           may cause significant error
 Rotational temperatures (Kelvin)      0.19215     0.05266     0.05104
 Rotational constants (GHZ):           4.00366     1.09727     1.06357
 Zero-point vibrational energy     421714.0 (Joules/Mol)
                                  100.79207 (Kcal/Mol)
 Warning -- explicit consideration of  10 degrees of freedom as
           vibrations may cause significant error
 Vibrational temperatures:     62.22   135.76   245.36   379.22   490.89
          (Kelvin)            602.95   625.28   754.30   776.92   846.89
                             1028.51  1097.65  1177.41  1200.16  1232.44
                             1283.33  1298.56  1359.57  1394.76  1408.40
                             1470.76  1506.99  1564.41  1612.50  1649.07
                             1724.33  1747.48  1782.48  1797.16  1819.07
                             1852.08  1873.38  1925.68  1937.16  1972.56
                             2092.42  2116.42  2125.77  2146.95  2174.13
                             2783.67  4358.36  4388.13  4394.35  4405.62
                             4434.70  4451.92  4462.55  4469.81  4484.84
                             4515.63

 Zero-point correction=                           0.160622 (Hartree/Particle)
 Thermal correction to Energy=                    0.168559
 Thermal correction to Enthalpy=                  0.169503
 Thermal correction to Gibbs Free Energy=         0.127343
 Sum of electronic and zero-point Energies=           -423.080256
 Sum of electronic and thermal Energies=              -423.072319
 Sum of electronic and thermal Enthalpies=            -423.071375
 Sum of electronic and thermal Free Energies=         -423.113535

                     E (Thermal)             CV                S
                      KCal/Mol        Cal/Mol-Kelvin    Cal/Mol-Kelvin
 Total                  105.772             30.395             88.733
 Electronic               0.000              0.000              0.000
 Translational            0.889              2.981             40.409
 Rotational               0.889              2.981             28.622
 Vibrational            103.995             24.433             19.702
 Vibration     1          0.595              1.980              5.105
 Vibration     2          0.603              1.953              3.568
 Vibration     3          0.626              1.879              2.430
 Vibration     4          0.670              1.740              1.638
 Vibration     5          0.721              1.593              1.207
 Vibration     6          0.782              1.429              0.895
 Vibration     7          0.795              1.395              0.844
 Vibration     8          0.879              1.196              0.600
 Vibration     9          0.895              1.162              0.565
 Vibration    10          0.946              1.056              0.470

 Optimization completed.
    -- Stationary point found.
 Normal termination of Gaussian 09 at Mon Jan 27 13:41:46 2020.
