 Gaussian 09, Revision D.01,
 Gaussian 09:  ES64L-G09RevD.01 24-Apr-2013

 -----------------------------
 # b3lyp 6-31G(2df,p) opt Freq
 -----------------------------

 -----
 titel
 -----
 Symbolic Z-matrix:
 Charge =  0 Multiplicity = 1

 SCF Done:  E(RB3LYP) =  -423.167915895     A.U. after   14 cycles
 Optimization completed.
    -- Stationary point found.
 Normal termination of Gaussian 09 at Tue Jan 28 00:42:22 2020.

 ----------------------------------------------------------------------
 #N Geom=AllCheck Guess=TCheck SCRF=Check GenChk RB3LYP/6-31G(2df,p) Fr
 eq
 ----------------------------------------------------------------------

 Structure from the checkpoint file:  "/scratch/puck/g09_cbfa9b65-dda0-4780-9926-3cfc8a622898/Gau-36888.chk"
 -----
 titel
 -----
 Charge =  0 Multiplicity = 1

                         Standard orientation:
 ---------------------------------------------------------------------
 Center     Atomic      Atomic             Coordinates (Angstroms)
 Number     Number       Type             X           Y           Z
 ---------------------------------------------------------------------
      1          8           0       -2.591466   -0.443917   -0.136764
      2          6           0       -1.189336   -0.278986   -0.323441
      3          6           0       -0.451216   -1.570883   -0.018291
      4          6           0        0.854576   -1.777897    0.166940
      5          6           0        2.011775   -0.810917    0.094885
      6          6           0        1.696157    0.575798   -0.487025
      7          6           0        0.730155    1.331004    0.397857
      8          8           0       -0.310164    2.096197   -0.222751
      9          6           0       -0.667860    0.905303    0.484150
     10          1           0       -2.735042   -0.728557    0.772800
     11          1           0       -1.088225   -0.025762   -1.384597
     12          1           0       -1.116509   -2.431539    0.023702
     13          1           0        1.157358   -2.802195    0.380948
     14          1           0        2.446959   -0.701954    1.100430
     15          1           0        2.805630   -1.278797   -0.502252
     16          1           0        2.623671    1.146641   -0.605774
     17          1           0        1.258964    0.471758   -1.484629
     18          1           0        1.171484    1.810892    1.273288
     19          1           0       -1.216756    1.080735    1.411746
 ---------------------------------------------------------------------

 SCF Done:  E(RB3LYP) =  -423.167915895     A.U. after    1 cycles

 The electronic state is 1-A.
 Alpha  occ. eigenvalues --  -19.14749 -19.13853 -10.23901 -10.23543 -10.23304
 Alpha  occ. eigenvalues --  -10.19793 -10.19203 -10.19106 -10.18516  -1.06899
 Alpha  occ. eigenvalues --   -1.02108  -0.81895  -0.76200  -0.71968  -0.66299
 Alpha  occ. eigenvalues --   -0.63563  -0.57148  -0.54821  -0.52007  -0.49028
 Alpha  occ. eigenvalues --   -0.46510  -0.45870  -0.44229  -0.41764  -0.40705
 Alpha  occ. eigenvalues --   -0.38889  -0.36509  -0.35777  -0.34430  -0.34018
 Alpha  occ. eigenvalues --   -0.29410  -0.27910  -0.26210  -0.24894
 Alpha virt. eigenvalues --    0.00766   0.07985   0.08792   0.09641   0.10792
 Alpha virt. eigenvalues --    0.12226   0.13533   0.14217   0.16028   0.17158
 Alpha virt. eigenvalues --    0.17909   0.18421   0.20111   0.21160   0.22862

 Mulliken charges:
               1
     1  O   -0.433292
     2  C    0.051980
     3  C   -0.103137
     4  C   -0.042822
     5  C   -0.253167
     6  C   -0.252793
     7  C    0.062701
     8  O   -0.259286
     9  C    0.028251
    10  H    0.276335
    11  H    0.121105
    12  H    0.092636
    13  H    0.091627
    14  H    0.112297
    15  H    0.111930
    16  H    0.101950
    17  H    0.119800
    18  H    0.088806
    19  H    0.085079
 Sum of Mulliken charges =   0.00000

 Dipole moment (field-independent basis, Debye):
    X=              1.9573    Y=             -1.7585    Z=              1.7748  Tot=              3.1739
 Quadrupole moment (field-independent basis, Debye-Ang):
   XX=            -53.0406   YY=            -56.8352   ZZ=            -51.3389
   XY=              1.9448   XZ=             -3.8831   YZ=              0.7080

  Exact polarizability:  93.654   0.293  75.189  -0.314  -0.658  58.826
 Approx polarizability: 139.977  -1.834 104.594   3.544  -4.576  93.834

                      1                      2                      3
                      A                      A                      A
 Frequencies --     84.0060               194.8294               248.0667
 Red. masses --      3.2867                 2.3233                 3.4185
 Frc consts  --      0.0137                 0.0520                 0.1239
 IR Inten    --      0.3844                 0.9901                 5.7525

                      4                      5                      6
                      A                      A                      A
 Frequencies --    291.6003               305.8697               351.7468
 Red. masses --      1.5080                 2.0646                 3.9908
 Frc consts  --      0.0756                 0.1138                 0.2909
 IR Inten    --     33.8367                44.5308                 2.6668

                      7                      8                      9
                      A                      A                      A
 Frequencies --    376.5189               402.6179               453.5599
 Red. masses --      4.8309                 2.9278                 4.3916
 Frc consts  --      0.4035                 0.2796                 0.5323
 IR Inten    --      2.8240                16.3669                19.3617

                     10                     11                     12
                      A                      A                      A
 Frequencies --    532.1836               604.9875               670.0970
 Red. masses --      3.2824                 2.3947                 1.5603
 Frc consts  --      0.5477                 0.5164                 0.4128
 IR Inten    --      6.2218                 1.5985                20.0033

                     13                     14                     15
                      A                      A                      A
 Frequencies --    767.8196               790.8309               845.9099
 Red. masses --      3.0081                 2.7733                 2.5932
 Frc consts  --      1.0449                 1.0219                 1.0933
 IR Inten    --      6.6450                12.5478                 2.7952

                     16                     17                     18
                      A                      A                      A
 Frequencies --    871.0513               906.6854               946.9021
 Red. masses --      3.0629                 2.6612                 2.7025
 Frc consts  --      1.3692                 1.2890                 1.4276
 IR Inten    --     18.0952                 9.2437                23.6001

                     19                     20                     21
                      A                      A                      A
 Frequencies --    993.9747              1014.8071              1046.1503
 Red. masses --      2.0307                 1.2068                 2.8158
 Frc consts  --      1.1821                 0.7322                 1.8157
 IR Inten    --     10.2518                 1.9795                38.0427

                     22                     23                     24
                      A                      A                      A
 Frequencies --   1051.8831              1081.5811              1093.2505
 Red. masses --      1.9928                 4.0430                 2.1526
 Frc consts  --      1.2991                 2.7866                 1.5158
 IR Inten    --      5.6973                74.9915                17.1634

                     25                     26                     27
                      A                      A                      A
 Frequencies --   1117.5398              1148.7341              1202.0158
 Red. masses --      1.5295                 1.4417                 1.3020
 Frc consts  --      1.1255                 1.1209                 1.1084
 IR Inten    --      1.9677                 1.2106                 2.1263

                     28                     29                     30
                      A                      A                      A
 Frequencies --   1227.3842              1254.0930              1264.5504
 Red. masses --      1.1459                 1.2705                 1.2943
 Frc consts  --      1.0171                 1.1772                 1.2195
 IR Inten    --     13.5690                 2.5433                 1.9778

                     31                     32                     33
                      A                      A                      A
 Frequencies --   1284.4468              1302.2417              1346.2869
 Red. masses --      1.2407                 1.3225                 1.4511
 Frc consts  --      1.2060                 1.3213                 1.5496
 IR Inten    --      5.3138                 1.7306                 2.2886

                     34                     35                     36
                      A                      A                      A
 Frequencies --   1379.6400              1394.4879              1410.1431
 Red. masses --      1.4455                 1.4775                 1.2852
 Frc consts  --      1.6210                 1.6928                 1.5058
 IR Inten    --      0.3875                10.8373                27.7542

                     37                     38                     39
                      A                      A                      A
 Frequencies --   1424.4294              1471.0555              1490.9413
 Red. masses --      1.3104                 1.1914                 1.8221
 Frc consts  --      1.5665                 1.5190                 2.3864
 IR Inten    --     22.9470                 2.0519                15.0776

                     40                     41                     42
                      A                      A                      A
 Frequencies --   1496.7309              1720.2345              2993.8623
 Red. masses --      1.3565                 7.3478                 1.0685
 Frc consts  --      1.7904                12.8110                 5.6427
 IR Inten    --      9.8535                 6.2459                27.3228

                     43                     44                     45
                      A                      A                      A
 Frequencies --   3029.6980              3046.5796              3051.9034
 Red. masses --      1.0868                 1.0695                 1.0809
 Frc consts  --      5.8773                 5.8489                 5.9316
 IR Inten    --     14.7411                21.5109                22.1182

                     46                     47                     48
                      A                      A                      A
 Frequencies --   3080.8953              3088.5026              3103.0875
 Red. masses --      1.0858                 1.0931                 1.0966
 Frc consts  --      6.0722                 6.1435                 6.2214
 IR Inten    --     10.4043                22.5864                53.5051

                     49                     50                     51
                      A                      A                      A
 Frequencies --   3125.0616              3150.4640              3797.4544
 Red. masses --      1.0832                 1.0934                 1.0661
 Frc consts  --      6.2328                 6.3944                 9.0579
 IR Inten    --      8.2985                26.5111                15.1879

 - Thermochemistry -
 -------------------
 Temperature   298.150 Kelvin.  Pressure   1.00000 Atm.
 Atom     1 has atomic number  8 and mass  15.99491

 Molecular mass:   126.06808 amu.
 Principal axes and moments of inertia in atomic units:
                           1         2         3
     Eigenvalues --   814.458931032.791481699.35767
           X            0.99992   0.00751  -0.01021
           Y           -0.00748   0.99997   0.00330
           Z            0.01023  -0.00322   0.99994
 This molecule is an asymmetric top.
 Rotational symmetry number  1.
 Warning -- assumption of classical behavior for rotation
           may cause significant error
 Rotational temperatures (Kelvin)      0.10635     0.08386     0.05097
 Rotational constants (GHZ):           2.21588     1.74744     1.06201
 Zero-point vibrational energy     420663.2 (Joules/Mol)
                                  100.54092 (Kcal/Mol)
 Warning -- explicit consideration of  11 degrees of freedom as
           vibrations may cause significant error
 Vibrational temperatures:    120.87   280.32   356.91   419.55   440.08
          (Kelvin)            506.08   541.73   579.28   652.57   765.69
                              870.44   964.12  1104.72  1137.83  1217.07
                             1253.25  1304.52  1362.38  1430.11  1460.08
                             1505.18  1513.42  1556.15  1572.94  1607.89
                             1652.77  1729.43  1765.93  1804.36  1819.40
                             1848.03  1873.63  1937.00  1984.99  2006.35
                             2028.88  2049.43  2116.52  2145.13  2153.46
                             2475.03  4307.49  4359.05  4383.34  4391.00
                             4432.72  4443.66  4464.65  4496.26  4532.81
                             5463.68

 Zero-point correction=                           0.160222 (Hartree/Particle)
 Thermal correction to Energy=                    0.168226
 Thermal correction to Enthalpy=                  0.169171
 Thermal correction to Gibbs Free Energy=         0.127840
 Sum of electronic and zero-point Energies=           -423.007694
 Sum of electronic and thermal Energies=              -422.999689
 Sum of electronic and thermal Enthalpies=            -422.998745
 Sum of electronic and thermal Free Energies=         -423.040076

                     E (Thermal)             CV                S
                      KCal/Mol        Cal/Mol-Kelvin    Cal/Mol-Kelvin
 Total                  105.564             31.642             86.988
 Electronic               0.000              0.000              0.000
 Translational            0.889              2.981             40.409
 Rotational               0.889              2.981             28.749
 Vibrational            103.786             25.680             17.831
 Vibration     1          0.601              1.960              3.795
 Vibration     2          0.635              1.847              2.181
 Vibration     3          0.662              1.766              1.744
 Vibration     4          0.687              1.689              1.465
 Vibration     5          0.696              1.663              1.385
 Vibration     6          0.728              1.572              1.158
 Vibration     7          0.747              1.520              1.053
 Vibration     8          0.768              1.464              0.953
 Vibration     9          0.812              1.353              0.785
 Vibration    10          0.887              1.179              0.582
 Vibration    11          0.964              1.021              0.441

 Optimization completed.
    -- Stationary point found.
 Normal termination of Gaussian 09 at Tue Jan 28 02:51:02 2020.
