 Gaussian 09, Revision D.01,
 Gaussian 09:  ES64L-G09RevD.01 24-Apr-2013

 -----------------------------
 # b3lyp 6-31G(2df,p) opt Freq
 -----------------------------

 -----
 titel
 -----
 Symbolic Z-matrix:
 Charge =  0 Multiplicity = 1

 SCF Done:  E(RB3LYP) =  -423.119039332     A.U. after   14 cycles
 SCF Done:  E(RB3LYP) =  -423.119039401     A.U. after    7 cycles
 SCF Done:  E(RB3LYP) =  -423.119038965     A.U. after    7 cycles
 SCF Done:  E(RB3LYP) =  -423.119039519     A.U. after    7 cycles
 SCF Done:  E(RB3LYP) =  -423.119039473     A.U. after    6 cycles
 Optimization completed.
    -- Stationary point found.
 Normal termination of Gaussian 09 at Mon Jan 27 14:33:49 2020.

 ----------------------------------------------------------------------
 #N Geom=AllCheck Guess=TCheck SCRF=Check GenChk RB3LYP/6-31G(2df,p) Fr
 eq
 ----------------------------------------------------------------------

 Structure from the checkpoint file:  "/scratch/puck/g09_60995d2b-04f0-4c40-9454-65d223798380/Gau-64270.chk"
 -----
 titel
 -----
 Charge =  0 Multiplicity = 1

                         Standard orientation:
 ---------------------------------------------------------------------
 Center     Atomic      Atomic             Coordinates (Angstroms)
 Number     Number       Type             X           Y           Z
 ---------------------------------------------------------------------
      1          6           0        0.183069    0.302408    1.807149
      2          6           0        0.493752    0.048214    0.339553
      3          6           0        1.146507   -1.303291   -0.041603
      4          8           0        2.209223   -0.636014   -0.751414
      5          6           0        1.806935    0.645092   -0.222085
      6          6           0       -0.694227    0.384976   -0.591105
      7          8           0       -1.023151    1.770652   -0.542421
      8          6           0       -1.859950   -0.462715   -0.323946
      9          6           0       -2.822276   -1.138050   -0.070750
     10          1           0       -0.049870    1.358990    1.979063
     11          1           0       -0.670847   -0.295425    2.141678
     12          1           0        1.042200    0.049993    2.435468
     13          1           0        1.520869   -1.876529    0.817621
     14          1           0        0.566444   -1.970499   -0.689930
     15          1           0        2.500694    1.004204    0.550271
     16          1           0        1.707502    1.409530   -0.999981
     17          1           0       -0.362060    0.208907   -1.621933
     18          1           0       -1.591669    1.912277    0.221746
     19          1           0       -3.674690   -1.738362    0.133404
 ---------------------------------------------------------------------

 SCF Done:  E(RB3LYP) =  -423.119039473     A.U. after    1 cycles

 The electronic state is 1-A.
 Alpha  occ. eigenvalues --  -19.15113 -19.13188 -10.26269 -10.22945 -10.22692
 Alpha  occ. eigenvalues --  -10.20521 -10.19298 -10.18892 -10.18458  -1.04008
 Alpha  occ. eigenvalues --   -1.03138  -0.80968  -0.75940  -0.70087  -0.69112
 Alpha  occ. eigenvalues --   -0.65917  -0.56116  -0.55087  -0.51402  -0.50095
 Alpha  occ. eigenvalues --   -0.48659  -0.45371  -0.43536  -0.41033  -0.40403
 Alpha  occ. eigenvalues --   -0.40215  -0.38294  -0.36276  -0.31727  -0.30798
 Alpha  occ. eigenvalues --   -0.29280  -0.28266  -0.27330  -0.24685
 Alpha virt. eigenvalues --    0.02354   0.03956   0.07132   0.09355   0.10706
 Alpha virt. eigenvalues --    0.11672   0.13246   0.13862   0.15324   0.16058
 Alpha virt. eigenvalues --    0.16393   0.17561   0.18311   0.18885   0.20930

 Mulliken charges:
               1
     1  C   -0.493286
     2  C    0.288035
     3  C   -0.116478
     4  O   -0.277882
     5  C   -0.123495
     6  C   -0.094514
     7  O   -0.429415
     8  C    0.285558
     9  C   -0.441421
    10  H    0.117628
    11  H    0.131451
    12  H    0.122507
    13  H    0.094629
    14  H    0.108578
    15  H    0.091004
    16  H    0.116782
    17  H    0.127178
    18  H    0.289807
    19  H    0.203335
 Sum of Mulliken charges =   0.00000

 Dipole moment (field-independent basis, Debye):
    X=             -1.6514    Y=             -0.2378    Z=              2.0486  Tot=              2.6421
 Quadrupole moment (field-independent basis, Debye-Ang):
   XX=            -53.5254   YY=            -52.7916   ZZ=            -54.0152
   XY=              3.9306   XZ=              0.4301   YZ=              1.1221

  Exact polarizability:  88.065  11.229  75.692  -1.983  -1.012  65.066
 Approx polarizability: 124.927  21.186 116.293  -8.608  -4.552  96.156

                      1                      2                      3
                      A                      A                      A
 Frequencies --     76.2538                87.3618               135.3353
 Red. masses --      4.3323                 4.3375                 3.6154
 Frc consts  --      0.0148                 0.0195                 0.0390
 IR Inten    --      0.6957                 3.8505                 0.8455

                      4                      5                      6
                      A                      A                      A
 Frequencies --    204.4885               215.1897               239.2843
 Red. masses --      2.7168                 1.1135                 3.4099
 Frc consts  --      0.0669                 0.0304                 0.1150
 IR Inten    --      6.4583                11.0623                 1.1602

                      7                      8                      9
                      A                      A                      A
 Frequencies --    275.4254               309.3786               335.6342
 Red. masses --      1.2978                 2.2075                 2.7262
 Frc consts  --      0.0580                 0.1245                 0.1809
 IR Inten    --     92.3014                 1.3379                 3.8220

                     10                     11                     12
                      A                      A                      A
 Frequencies --    367.8109               469.8441               507.6270
 Red. masses --      2.5363                 3.6695                 4.4225
 Frc consts  --      0.2022                 0.4773                 0.6714
 IR Inten    --      2.1994                 8.1477                 2.1112

                     13                     14                     15
                      A                      A                      A
 Frequencies --    587.6292               633.0376               677.6959
 Red. masses --      5.5749                 1.2475                 1.2516
 Frc consts  --      1.1342                 0.2945                 0.3387
 IR Inten    --      7.7406                40.9126                34.0594

                     16                     17                     18
                      A                      A                      A
 Frequencies --    730.9268               821.1667               884.5777
 Red. masses --      3.3327                 3.5942                 2.7626
 Frc consts  --      1.0490                 1.4279                 1.2736
 IR Inten    --      3.6107                15.9876                10.5951

                     19                     20                     21
                      A                      A                      A
 Frequencies --    898.8702               970.5568               985.5339
 Red. masses --      1.7196                 2.2440                 1.8449
 Frc consts  --      0.8186                 1.2454                 1.0558
 IR Inten    --      3.9260                28.7711                 6.2718

                     22                     23                     24
                      A                      A                      A
 Frequencies --   1001.2667              1014.2466              1029.2535
 Red. masses --      1.9523                 2.3158                10.8898
 Frc consts  --      1.1532                 1.4036                 6.7970
 IR Inten    --     26.9156                22.3693                57.1197

                     25                     26                     27
                      A                      A                      A
 Frequencies --   1075.3786              1153.6808              1162.1644
 Red. masses --      4.1059                 1.0797                 1.3130
 Frc consts  --      2.7976                 0.8467                 1.0448
 IR Inten    --    100.4252                 0.4928                 2.4821

                     28                     29                     30
                      A                      A                      A
 Frequencies --   1186.5347              1192.0466              1268.5626
 Red. masses --      2.5408                 2.3839                 1.2903
 Frc consts  --      2.1075                 1.9958                 1.2234
 IR Inten    --      1.1461                10.0404                16.4977

                     31                     32                     33
                      A                      A                      A
 Frequencies --   1288.3410              1304.3973              1344.1633
 Red. masses --      2.7130                 1.2790                 1.3535
 Frc consts  --      2.6532                 1.2822                 1.4408
 IR Inten    --      1.8654                 1.0968                 2.2155

                     34                     35                     36
                      A                      A                      A
 Frequencies --   1384.8549              1412.1605              1418.9627
 Red. masses --      1.6834                 1.2850                 1.2008
 Frc consts  --      1.9021                 1.5098                 1.4245
 IR Inten    --      2.3975                 7.3412                56.5449

                     37                     38                     39
                      A                      A                      A
 Frequencies --   1494.3311              1503.1594              1514.6390
 Red. masses --      1.0480                 1.0556                 1.0778
 Frc consts  --      1.3789                 1.4053                 1.4569
 IR Inten    --      3.7141                 3.9878                 0.7881

                     40                     41                     42
                      A                      A                      A
 Frequencies --   1539.1435              2229.2174              2999.8045
 Red. masses --      1.1067                 5.9084                 1.0577
 Frc consts  --      1.5447                17.2992                 5.6081
 IR Inten    --      2.6672                 1.5742                88.2654

                     43                     44                     45
                      A                      A                      A
 Frequencies --   3010.3124              3033.0856              3035.1486
 Red. masses --      1.0629                 1.0432                 1.0765
 Frc consts  --      5.6748                 5.6546                 5.8426
 IR Inten    --     29.0019                27.4602                 2.9703

                     46                     47                     48
                      A                      A                      A
 Frequencies --   3058.1930              3069.7621              3099.6445
 Red. masses --      1.1053                 1.1039                 1.1001
 Frc consts  --      6.0906                 6.1292                 6.2274
 IR Inten    --     34.8600                34.1568                19.5631

                     49                     50                     51
                      A                      A                      A
 Frequencies --   3109.8100              3500.2476              3819.9762
 Red. masses --      1.1016                 1.1623                 1.0663
 Frc consts  --      6.2769                 8.3903                 9.1674
 IR Inten    --     20.3445                65.6295                26.8609

 - Thermochemistry -
 -------------------
 Temperature   298.150 Kelvin.  Pressure   1.00000 Atm.
 Atom     1 has atomic number  6 and mass  12.00000

 Molecular mass:   126.06808 amu.
 Principal axes and moments of inertia in atomic units:
                           1         2         3
     Eigenvalues --   721.687111448.950901599.66268
           X            0.99976   0.02120   0.00568
           Y           -0.02133   0.99948   0.02406
           Z           -0.00516  -0.02417   0.99969
 This molecule is an asymmetric top.
 Rotational symmetry number  1.
 Warning -- assumption of classical behavior for rotation
           may cause significant error
 Rotational temperatures (Kelvin)      0.12002     0.05978     0.05415
 Rotational constants (GHZ):           2.50073     1.24555     1.12820
 Zero-point vibrational energy     410714.6 (Joules/Mol)
                                   98.16314 (Kcal/Mol)
 Warning -- explicit consideration of  13 degrees of freedom as
           vibrations may cause significant error
 Vibrational temperatures:    109.71   125.69   194.72   294.21   309.61
          (Kelvin)            344.28   396.28   445.13   482.90   529.20
                              676.00   730.36   845.47   910.80   975.05
                             1051.64  1181.47  1272.71  1293.27  1396.41
                             1417.96  1440.60  1459.27  1480.86  1547.23
                             1659.89  1672.09  1707.16  1715.09  1825.18
                             1853.63  1876.73  1933.95  1992.49  2031.78
                             2041.57  2150.01  2162.71  2179.22  2214.48
                             3207.34  4316.04  4331.16  4363.93  4366.90
                             4400.05  4416.70  4459.69  4474.32  5036.07
                             5496.09

 Zero-point correction=                           0.156433 (Hartree/Particle)
 Thermal correction to Energy=                    0.166202
 Thermal correction to Enthalpy=                  0.167146
 Thermal correction to Gibbs Free Energy=         0.121869
 Sum of electronic and zero-point Energies=           -422.962607
 Sum of electronic and thermal Energies=              -422.952837
 Sum of electronic and thermal Enthalpies=            -422.951893
 Sum of electronic and thermal Free Energies=         -422.997171

                     E (Thermal)             CV                S
                      KCal/Mol        Cal/Mol-Kelvin    Cal/Mol-Kelvin
 Total                  104.293             35.885             95.294
 Electronic               0.000              0.000              0.000
 Translational            0.889              2.981             40.409
 Rotational               0.889              2.981             28.905
 Vibrational            102.516             29.923             25.981
 Vibration     1          0.599              1.965              3.985
 Vibration     2          0.601              1.958              3.718
 Vibration     3          0.613              1.918              2.869
 Vibration     4          0.640              1.834              2.092
 Vibration     5          0.645              1.818              1.999
 Vibration     6          0.657              1.780              1.808
 Vibration     7          0.677              1.719              1.562
 Vibration     8          0.699              1.656              1.366
 Vibration     9          0.717              1.604              1.233
 Vibration    10          0.740              1.538              1.089
 Vibration    11          0.827              1.317              0.738
 Vibration    12          0.863              1.233              0.639
 Vibration    13          0.945              1.058              0.471

 Optimization completed.
    -- Stationary point found.
 Normal termination of Gaussian 09 at Mon Jan 27 15:28:33 2020.
