 Gaussian 09, Revision D.01,
 Gaussian 09:  ES64L-G09RevD.01 24-Apr-2013

 -----------------------------
 # b3lyp 6-31G(2df,p) opt Freq
 -----------------------------

 -----
 titel
 -----
 Symbolic Z-matrix:
 Charge =  0 Multiplicity = 1

 SCF Done:  E(RB3LYP) =  -423.107951132     A.U. after   12 cycles
 Optimization completed.
    -- Stationary point found.
 Normal termination of Gaussian 09 at Mon Jan 27 18:05:25 2020.

 ----------------------------------------------------------------------
 #N Geom=AllCheck Guess=TCheck SCRF=Check GenChk RB3LYP/6-31G(2df,p) Fr
 eq
 ----------------------------------------------------------------------

 Structure from the checkpoint file:  "/scratch/puck/g09_3c514e52-96f7-4a88-b3cb-ea3ed2a9ed39/Gau-181582.chk"
 -----
 titel
 -----
 Charge =  0 Multiplicity = 1

                         Standard orientation:
 ---------------------------------------------------------------------
 Center     Atomic      Atomic             Coordinates (Angstroms)
 Number     Number       Type             X           Y           Z
 ---------------------------------------------------------------------
      1          6           0       -2.631414   -0.767970    0.001742
      2          6           0       -1.291098   -0.087105    0.024016
      3          6           0       -0.466235    0.360198    1.254835
      4          6           0        0.364392    0.773926   -0.002476
      5          6           0       -0.935963    1.332739   -0.627264
      6          8           0        1.748200    0.930298   -0.010691
      7          6           0        2.206398   -0.443001    0.058606
      8          8           0        1.095034   -1.352187   -0.091155
      9          6           0        0.063617   -0.548504   -0.641781
     10          1           0       -2.587570   -1.723567    0.534380
     11          1           0       -3.395717   -0.149054    0.483947
     12          1           0       -2.957326   -0.968584   -1.024347
     13          1           0       -0.886634    1.172286    1.852269
     14          1           0       -0.049078   -0.435142    1.872285
     15          1           0       -1.400922    2.193580   -0.143182
     16          1           0       -0.979787    1.399928   -1.717182
     17          1           0        2.937231   -0.586725   -0.747330
     18          1           0        2.664276   -0.639642    1.034499
     19          1           0        0.051471   -0.609654   -1.736643
 ---------------------------------------------------------------------

 SCF Done:  E(RB3LYP) =  -423.107951132     A.U. after    1 cycles

 The electronic state is 1-A.
 Alpha  occ. eigenvalues --  -19.15308 -19.14998 -10.27879 -10.24318 -10.22588
 Alpha  occ. eigenvalues --  -10.22047 -10.20238 -10.18298 -10.18139  -1.08576
 Alpha  occ. eigenvalues --   -0.99653  -0.91198  -0.73419  -0.69755  -0.67737
 Alpha  occ. eigenvalues --   -0.64027  -0.57542  -0.53570  -0.50214  -0.49181
 Alpha  occ. eigenvalues --   -0.48185  -0.44886  -0.44460  -0.41695  -0.41216
 Alpha  occ. eigenvalues --   -0.38618  -0.36957  -0.35074  -0.34621  -0.32730
 Alpha  occ. eigenvalues --   -0.31507  -0.27670  -0.27213  -0.24489
 Alpha virt. eigenvalues --    0.07903   0.09413   0.10304   0.12596   0.13345
 Alpha virt. eigenvalues --    0.14000   0.14722   0.15246   0.15692   0.16264
 Alpha virt. eigenvalues --    0.17166   0.18142   0.18448   0.19324   0.20482

 Mulliken charges:
               1
     1  C   -0.509958
     2  C    0.256113
     3  C   -0.327882
     4  C    0.412614
     5  C   -0.340634
     6  O   -0.332779
     7  C    0.001291
     8  O   -0.299013
     9  C    0.061792
    10  H    0.130188
    11  H    0.122641
    12  H    0.121980
    13  H    0.088322
    14  H    0.107809
    15  H    0.105489
    16  H    0.103558
    17  H    0.113076
    18  H    0.117457
    19  H    0.067934
 Sum of Mulliken charges =   0.00000

 Dipole moment (field-independent basis, Debye):
    X=             -1.1287    Y=              0.0904    Z=             -0.1759  Tot=              1.1458
 Quadrupole moment (field-independent basis, Debye-Ang):
   XX=            -50.7758   YY=            -56.8480   ZZ=            -51.6954
   XY=             -2.3212   XZ=              0.3637   YZ=             -0.0054

  Exact polarizability:  89.148  -4.636  67.174   0.795  -0.367  70.093
 Approx polarizability: 118.564  -5.292 105.780   1.443  -0.600 105.948

                      1                      2                      3
                      A                      A                      A
 Frequencies --     80.2707               204.3800               212.4265
 Red. masses --      2.2268                 1.2257                 2.0952
 Frc consts  --      0.0085                 0.0302                 0.0557
 IR Inten    --      6.8478                 0.3586                 0.1781

                      4                      5                      6
                      A                      A                      A
 Frequencies --    244.0798               341.5680               407.1075
 Red. masses --      3.3813                 3.5205                 3.3280
 Frc consts  --      0.1187                 0.2420                 0.3250
 IR Inten    --      0.2185                 2.5971                 3.5490

                      7                      8                      9
                      A                      A                      A
 Frequencies --    489.3627               511.0026               562.3713
 Red. masses --      3.0774                 2.5375                 2.9739
 Frc consts  --      0.4342                 0.3904                 0.5541
 IR Inten    --      2.7859                 3.4372                 4.4398

                     10                     11                     12
                      A                      A                      A
 Frequencies --    617.4423               722.0599               736.8168
 Red. masses --      3.3592                 4.1605                 5.5824
 Frc consts  --      0.7545                 1.2780                 1.7856
 IR Inten    --      1.5315                 3.0280                 4.7147

                     13                     14                     15
                      A                      A                      A
 Frequencies --    757.5263               835.0002               872.5347
 Red. masses --      3.1261                 3.1458                 6.0789
 Frc consts  --      1.0569                 1.2923                 2.7267
 IR Inten    --      3.5008                 9.1664                37.5112

                     16                     17                     18
                      A                      A                      A
 Frequencies --    930.1699               959.4020               990.7787
 Red. masses --      2.5739                 1.8571                 1.5291
 Frc consts  --      1.3121                 1.0071                 0.8844
 IR Inten    --      9.0495                 0.4421                 4.4408

                     19                     20                     21
                      A                      A                      A
 Frequencies --    996.0212              1018.5493              1055.0429
 Red. masses --      1.8502                 2.2174                 2.6803
 Frc consts  --      1.0815                 1.3554                 1.7578
 IR Inten    --      7.9332                42.5777                22.2493

                     22                     23                     24
                      A                      A                      A
 Frequencies --   1070.5619              1073.2458              1108.9551
 Red. masses --      1.7869                 2.1664                 2.1498
 Frc consts  --      1.2066                 1.4702                 1.5576
 IR Inten    --      3.9405                46.1499                98.4983

                     25                     26                     27
                      A                      A                      A
 Frequencies --   1119.6787              1131.4580              1158.9141
 Red. masses --      1.4983                 1.4429                 1.5978
 Frc consts  --      1.1067                 1.0883                 1.2644
 IR Inten    --     11.5998                 7.3235                 0.5543

                     28                     29                     30
                      A                      A                      A
 Frequencies --   1172.5621              1193.9066              1201.3195
 Red. masses --      1.6237                 1.0958                 2.4438
 Frc consts  --      1.3153                 0.9203                 2.0779
 IR Inten    --      1.6196                 4.3235                 4.3333

                     31                     32                     33
                      A                      A                      A
 Frequencies --   1248.7827              1277.3721              1322.8339
 Red. masses --      3.1590                 2.6038                 2.1308
 Frc consts  --      2.9025                 2.5031                 2.1968
 IR Inten    --      3.2314               160.9352                 4.5607

                     34                     35                     36
                      A                      A                      A
 Frequencies --   1395.3173              1413.2093              1418.9016
 Red. masses --      1.3497                 1.3870                 1.3179
 Frc consts  --      1.5483                 1.6321                 1.5633
 IR Inten    --     31.4606                 1.8292                 9.3430

                     37                     38                     39
                      A                      A                      A
 Frequencies --   1487.3727              1489.5276              1490.8133
 Red. masses --      1.0846                 1.0619                 1.0466
 Frc consts  --      1.4137                 1.3881                 1.3705
 IR Inten    --      1.7890                 3.5990                 4.5026

                     40                     41                     42
                      A                      A                      A
 Frequencies --   1530.9366              1540.7582              3015.6308
 Red. masses --      1.1394                 1.2215                 1.0555
 Frc consts  --      1.5735                 1.7085                 5.6555
 IR Inten    --     12.8412                 4.2212               101.2436

                     43                     44                     45
                      A                      A                      A
 Frequencies --   3029.7137              3031.8292              3063.0943
 Red. masses --      1.0463                 1.0717                 1.0547
 Frc consts  --      5.6587                 5.8043                 5.8306
 IR Inten    --     32.4848                43.3687                40.2413

                     46                     47                     48
                      A                      A                      A
 Frequencies --   3068.7993              3072.6748              3097.2665
 Red. masses --      1.1129                 1.0578                 1.1011
 Frc consts  --      6.1748                 5.8841                 6.2237
 IR Inten    --     40.5617                27.5061                17.2071

                     49                     50                     51
                      A                      A                      A
 Frequencies --   3101.4473              3134.9692              3147.8237
 Red. masses --      1.1011                 1.1120                 1.1092
 Frc consts  --      6.2405                 6.4388                 6.4758
 IR Inten    --     15.7513                26.9843                21.7308

 - Thermochemistry -
 -------------------
 Temperature   298.150 Kelvin.  Pressure   1.00000 Atm.
 Atom     1 has atomic number  6 and mass  12.00000

 Molecular mass:   126.06808 amu.
 Principal axes and moments of inertia in atomic units:
                           1         2         3
     Eigenvalues --   516.929001199.030251394.70634
           X            0.99998  -0.00554   0.00247
           Y            0.00556   0.99994  -0.00960
           Z           -0.00242   0.00961   0.99995
 This molecule is an asymmetric top.
 Rotational symmetry number  1.
 Warning -- assumption of classical behavior for rotation
           may cause significant error
 Rotational temperatures (Kelvin)      0.16755     0.07224     0.06210
 Rotational constants (GHZ):           3.49127     1.50517     1.29399
 Zero-point vibrational energy     419611.6 (Joules/Mol)
                                  100.28959 (Kcal/Mol)
 Warning -- explicit consideration of  10 degrees of freedom as
           vibrations may cause significant error
 Vibrational temperatures:    115.49   294.06   305.63   351.18   491.44
          (Kelvin)            585.74   704.08   735.22   809.13   888.36
                             1038.88  1060.11  1089.91  1201.38  1255.38
                             1338.31  1380.36  1425.51  1433.05  1465.46
                             1517.97  1540.30  1544.16  1595.54  1610.97
                             1627.91  1667.42  1687.05  1717.76  1728.43
                             1796.72  1837.85  1903.26  2007.55  2033.29
                             2041.48  2139.99  2143.10  2144.95  2202.67
                             2216.80  4338.81  4359.08  4362.12  4407.10
                             4415.31  4420.89  4456.27  4462.29  4510.52
                             4529.01

 Zero-point correction=                           0.159822 (Hartree/Particle)
 Thermal correction to Energy=                    0.167404
 Thermal correction to Enthalpy=                  0.168348
 Thermal correction to Gibbs Free Energy=         0.127852
 Sum of electronic and zero-point Energies=           -422.948129
 Sum of electronic and thermal Energies=              -422.940547
 Sum of electronic and thermal Enthalpies=            -422.939603
 Sum of electronic and thermal Free Energies=         -422.980099

                     E (Thermal)             CV                S
                      KCal/Mol        Cal/Mol-Kelvin    Cal/Mol-Kelvin
 Total                  105.048             30.159             85.233
 Electronic               0.000              0.000              0.000
 Translational            0.889              2.981             40.409
 Rotational               0.889              2.981             28.249
 Vibrational            103.270             24.197             16.575
 Vibration     1          0.600              1.963              3.884
 Vibration     2          0.640              1.834              2.093
 Vibration     3          0.643              1.822              2.023
 Vibration     4          0.659              1.773              1.773
 Vibration     5          0.721              1.592              1.205
 Vibration     6          0.772              1.455              0.937
 Vibration     7          0.845              1.274              0.685
 Vibration     8          0.866              1.226              0.631
 Vibration     9          0.918              1.113              0.519
 Vibration    10          0.977              0.995              0.421

 Normal termination of Gaussian 09 at Mon Jan 27 18:49:52 2020.
