 Gaussian 09, Revision D.01,
 Gaussian 09:  ES64L-G09RevD.01 24-Apr-2013

 -----------------------------
 # b3lyp 6-31G(2df,p) opt Freq
 -----------------------------

 -----
 titel
 -----
 Symbolic Z-matrix:
 Charge =  0 Multiplicity = 1

 SCF Done:  E(RB3LYP) =  -423.150503489     A.U. after   14 cycles
 SCF Done:  E(RB3LYP) =  -423.150503264     A.U. after    6 cycles
 SCF Done:  E(RB3LYP) =  -423.150503477     A.U. after    7 cycles
 SCF Done:  E(RB3LYP) =  -423.150503449     A.U. after    6 cycles
 SCF Done:  E(RB3LYP) =  -423.150503530     A.U. after    6 cycles
 Optimization completed.
    -- Stationary point found.
 Normal termination of Gaussian 09 at Mon Jan 27 11:29:37 2020.

 ----------------------------------------------------------------------
 #N Geom=AllCheck Guess=TCheck SCRF=Check GenChk RB3LYP/6-31G(2df,p) Fr
 eq
 ----------------------------------------------------------------------

 Structure from the checkpoint file:  "/scratch/puck/g09_822296bd-2a3a-4712-92bf-860738480e17/Gau-94786.chk"
 -----
 titel
 -----
 Charge =  0 Multiplicity = 1

                         Standard orientation:
 ---------------------------------------------------------------------
 Center     Atomic      Atomic             Coordinates (Angstroms)
 Number     Number       Type             X           Y           Z
 ---------------------------------------------------------------------
      1          6           0       -3.508780   -0.105229   -0.324931
      2          6           0       -2.364960   -0.052923    0.041892
      3          6           0       -0.963857   -0.001819    0.448039
      4          6           0       -0.328675    1.356217    0.066524
      5          6           0        1.187150    1.425383    0.264627
      6          8           0        1.849910    0.572765   -0.665883
      7          6           0        2.139523   -0.711614   -0.190681
      8          8           0        1.077979   -1.318676    0.498099
      9          6           0       -0.193412   -1.217087   -0.125220
     10          1           0       -4.523657   -0.148441   -0.634207
     11          1           0       -0.910791   -0.112281    1.539918
     12          1           0       -0.537630    1.565095   -0.988443
     13          1           0       -0.809362    2.149708    0.649820
     14          1           0        1.534920    2.441512    0.052071
     15          1           0        1.472175    1.177804    1.296026
     16          1           0        2.426315   -1.284215   -1.084679
     17          1           0        2.968730   -0.705390    0.532251
     18          1           0       -0.106023   -1.140459   -1.216025
     19          1           0       -0.739728   -2.133609    0.114040
 ---------------------------------------------------------------------

 SCF Done:  E(RB3LYP) =  -423.150503530     A.U. after    1 cycles

 The electronic state is 1-A.
 Alpha  occ. eigenvalues --  -19.14796 -19.14585 -10.27488 -10.23503 -10.23322
 Alpha  occ. eigenvalues --  -10.21344 -10.19005 -10.18136 -10.17259  -1.07235
 Alpha  occ. eigenvalues --   -1.00792  -0.82508  -0.74947  -0.71720  -0.69859
 Alpha  occ. eigenvalues --   -0.60673  -0.59417  -0.53577  -0.51998  -0.50453
 Alpha  occ. eigenvalues --   -0.48497  -0.46503  -0.44130  -0.43622  -0.41680
 Alpha  occ. eigenvalues --   -0.38835  -0.36833  -0.35981  -0.33731  -0.30259
 Alpha  occ. eigenvalues --   -0.29786  -0.26756  -0.26109  -0.25422
 Alpha virt. eigenvalues --    0.05157   0.05515   0.09840   0.11188   0.12055
 Alpha virt. eigenvalues --    0.12950   0.13219   0.13845   0.15366   0.15812
 Alpha virt. eigenvalues --    0.16458   0.17054   0.18092   0.19351   0.23353

 Mulliken charges:
               1
     1  C   -0.445052
     2  C    0.303267
     3  C   -0.175275
     4  C   -0.191062
     5  C   -0.098817
     6  O   -0.237246
     7  C   -0.004647
     8  O   -0.240475
     9  C   -0.090525
    10  H    0.194628
    11  H    0.112371
    12  H    0.118934
    13  H    0.106965
    14  H    0.108163
    15  H    0.104513
    16  H    0.101361
    17  H    0.099631
    18  H    0.114690
    19  H    0.118576
 Sum of Mulliken charges =   0.00000

 Dipole moment (field-independent basis, Debye):
    X=             -0.1307    Y=              0.4695    Z=              0.2137  Tot=              0.5322
 Quadrupole moment (field-independent basis, Debye-Ang):
   XX=            -50.6487   YY=            -52.7233   ZZ=            -54.0259
   XY=              0.1584   XZ=              2.1080   YZ=              2.7544

  Exact polarizability: 103.981   0.425  69.759   5.708   2.359  60.270
 Approx polarizability: 141.425   0.920  96.403  12.488   0.702  97.541

                      1                      2                      3
                      A                      A                      A
 Frequencies --     96.4840               142.8921               174.6263
 Red. masses --      3.5882                 3.7201                 2.4677
 Frc consts  --      0.0197                 0.0448                 0.0443
 IR Inten    --      0.2606                 0.1928                 8.1397

                      4                      5                      6
                      A                      A                      A
 Frequencies --    244.7369               268.6979               338.2589
 Red. masses --      3.7158                 4.2448                 2.4821
 Frc consts  --      0.1311                 0.1806                 0.1673
 IR Inten    --      2.3703                 3.9503                 1.8046

                      7                      8                      9
                      A                      A                      A
 Frequencies --    364.7392               411.8001               481.3555
 Red. masses --      2.4595                 4.2695                 2.0719
 Frc consts  --      0.1928                 0.4266                 0.2828
 IR Inten    --      2.1555                 5.0937                 0.9521

                     10                     11                     12
                      A                      A                      A
 Frequencies --    511.0780               535.4492               631.3450
 Red. masses --      5.4979                 4.2037                 1.2329
 Frc consts  --      0.8461                 0.7101                 0.2895
 IR Inten    --      6.1566                 9.3277                40.5291

                     13                     14                     15
                      A                      A                      A
 Frequencies --    638.9674               644.8668               814.8378
 Red. masses --      3.4206                 1.2490                 2.8222
 Frc consts  --      0.8228                 0.3060                 1.1040
 IR Inten    --      3.0527                41.2379                 7.3459

                     16                     17                     18
                      A                      A                      A
 Frequencies --    847.7824               925.2509               944.2284
 Red. masses --      2.0564                 2.6604                 2.6121
 Frc consts  --      0.8708                 1.3419                 1.3721
 IR Inten    --      3.0823                 6.3385                15.3722

                     19                     20                     21
                      A                      A                      A
 Frequencies --    969.5791               994.1221              1048.8642
 Red. masses --      2.2465                 3.2815                 2.7592
 Frc consts  --      1.2443                 1.9108                 1.7884
 IR Inten    --      9.4164                10.0035                35.2048

                     22                     23                     24
                      A                      A                      A
 Frequencies --   1085.6496              1108.9954              1128.4687
 Red. masses --      2.9009                 3.3758                 2.4593
 Frc consts  --      2.0145                 2.4462                 1.8452
 IR Inten    --     61.6276                38.8262                35.5061

                     25                     26                     27
                      A                      A                      A
 Frequencies --   1159.0329              1168.1258              1250.9604
 Red. masses --      1.7703                 3.8565                 1.5160
 Frc consts  --      1.4011                 3.1004                 1.3978
 IR Inten    --     44.4940               176.5947                12.8188

                     28                     29                     30
                      A                      A                      A
 Frequencies --   1265.5623              1297.8513              1304.8272
 Red. masses --      1.2817                 1.1965                 1.2893
 Frc consts  --      1.2095                 1.1875                 1.2933
 IR Inten    --     47.7083                 7.7585                 6.2598

                     31                     32                     33
                      A                      A                      A
 Frequencies --   1325.8533              1343.8771              1373.4493
 Red. masses --      1.1433                 1.2181                 1.2675
 Frc consts  --      1.1841                 1.2961                 1.4087
 IR Inten    --      0.6313                 9.4905                 6.4661

                     34                     35                     36
                      A                      A                      A
 Frequencies --   1397.1215              1408.5498              1446.5867
 Red. masses --      1.2813                 1.3361                 1.1961
 Frc consts  --      1.4736                 1.5618                 1.4748
 IR Inten    --      9.6774                 9.1661                 7.1488

                     37                     38                     39
                      A                      A                      A
 Frequencies --   1473.8430              1491.4122              1496.1140
 Red. masses --      1.0899                 1.0839                 1.1035
 Frc consts  --      1.3949                 1.4204                 1.4553
 IR Inten    --      4.5568                 0.7829                 7.5814

                     40                     41                     42
                      A                      A                      A
 Frequencies --   1521.1587              2234.5204              2987.5426
 Red. masses --      1.0968                 5.9392                 1.0527
 Frc consts  --      1.4953                17.4721                 5.5358
 IR Inten    --      0.0080                 3.4378               108.6305

                     43                     44                     45
                      A                      A                      A
 Frequencies --   3012.9228              3016.6435              3030.1360
 Red. masses --      1.0802                 1.0623                 1.1066
 Frc consts  --      5.7773                 5.6957                 5.9861
 IR Inten    --      3.6755                35.8103                24.9101

                     46                     47                     48
                      A                      A                      A
 Frequencies --   3032.7546              3041.0861              3077.9323
 Red. masses --      1.0661                 1.0612                 1.1003
 Frc consts  --      5.7775                 5.7823                 6.1414
 IR Inten    --     56.1709                11.2583                39.7628

                     49                     50                     51
                      A                      A                      A
 Frequencies --   3088.0539              3096.7049              3504.6609
 Red. masses --      1.1041                 1.1053                 1.1618
 Frc consts  --      6.2037                 6.2449                 8.4075
 IR Inten    --     23.1025                27.0873                71.7112

 - Thermochemistry -
 -------------------
 Temperature   298.150 Kelvin.  Pressure   1.00000 Atm.
 Atom     1 has atomic number  6 and mass  12.00000

 Molecular mass:   126.06808 amu.
 Principal axes and moments of inertia in atomic units:
                           1         2         3
     Eigenvalues --   540.199001572.281041933.85385
           X            0.99998   0.00030   0.00624
           Y           -0.00052   0.99938   0.03515
           Z           -0.00623  -0.03516   0.99936
 This molecule is an asymmetric top.
 Rotational symmetry number  1.
 Warning -- assumption of classical behavior for rotation
           may cause significant error
 Rotational temperatures (Kelvin)      0.16034     0.05509     0.04479
 Rotational constants (GHZ):           3.34088     1.14785     0.93324
 Zero-point vibrational energy     419891.4 (Joules/Mol)
                                  100.35645 (Kcal/Mol)
 Warning -- explicit consideration of  11 degrees of freedom as
           vibrations may cause significant error
 Vibrational temperatures:    138.82   205.59   251.25   352.12   386.60
          (Kelvin)            486.68   524.78   592.49   692.56   735.33
                              770.39   908.36   919.33   927.82  1172.37
                             1219.77  1331.23  1358.53  1395.01  1430.32
                             1509.08  1562.01  1595.60  1623.61  1667.59
                             1680.67  1799.85  1820.86  1867.32  1877.35
                             1907.60  1933.54  1976.08  2010.14  2026.59
                             2081.31  2120.53  2145.81  2152.57  2188.61
                             3214.97  4298.40  4334.92  4340.27  4359.68
                             4363.45  4375.44  4428.45  4443.02  4455.46
                             5042.42

 Zero-point correction=                           0.159928 (Hartree/Particle)
 Thermal correction to Energy=                    0.168379
 Thermal correction to Enthalpy=                  0.169323
 Thermal correction to Gibbs Free Energy=         0.126982
 Sum of electronic and zero-point Energies=           -422.990575
 Sum of electronic and thermal Energies=              -422.982125
 Sum of electronic and thermal Enthalpies=            -422.981180
 Sum of electronic and thermal Free Energies=         -423.023521

                     E (Thermal)             CV                S
                      KCal/Mol        Cal/Mol-Kelvin    Cal/Mol-Kelvin
 Total                  105.659             32.470             89.114
 Electronic               0.000              0.000              0.000
 Translational            0.889              2.981             40.409
 Rotational               0.889              2.981             28.887
 Vibrational            103.882             26.509             19.819
 Vibration     1          0.603              1.952              3.524
 Vibration     2          0.616              1.910              2.765
 Vibration     3          0.627              1.874              2.385
 Vibration     4          0.660              1.771              1.768
 Vibration     5          0.673              1.731              1.605
 Vibration     6          0.719              1.599              1.220
 Vibration     7          0.738              1.545              1.102
 Vibration     8          0.776              1.445              0.920
 Vibration     9          0.838              1.291              0.706
 Vibration    10          0.866              1.225              0.631
 Vibration    11          0.890              1.172              0.575

 Optimization completed.
    -- Stationary point found.
 Normal termination of Gaussian 09 at Mon Jan 27 12:09:41 2020.
