 Gaussian 09, Revision D.01,
 Gaussian 09:  ES64L-G09RevD.01 24-Apr-2013

 -----------------------------
 # b3lyp 6-31G(2df,p) opt Freq
 -----------------------------

 -----
 titel
 -----
 Symbolic Z-matrix:
 Charge =  0 Multiplicity = 1

 SCF Done:  E(RB3LYP) =  -423.178397459     A.U. after   14 cycles
 Optimization completed.
    -- Stationary point found.
 Normal termination of Gaussian 09 at Mon Jan 27 16:00:50 2020.

 ----------------------------------------------------------------------
 #N Geom=AllCheck Guess=TCheck SCRF=Check GenChk RB3LYP/6-31G(2df,p) Fr
 eq
 ----------------------------------------------------------------------

 Structure from the checkpoint file:  "/scratch/puck/g09_45a1add1-7ef3-42cf-b249-3b2184c0533b/Gau-74914.chk"
 -----
 titel
 -----
 Charge =  0 Multiplicity = 1

                         Standard orientation:
 ---------------------------------------------------------------------
 Center     Atomic      Atomic             Coordinates (Angstroms)
 Number     Number       Type             X           Y           Z
 ---------------------------------------------------------------------
      1          6           0        1.200433   -1.370344   -1.076074
      2          6           0        1.032436   -0.270137   -0.049002
      3          8           0        2.204148    0.494462    0.114856
      4          6           0        0.195619   -0.359483    1.187887
      5          6           0       -1.078102   -1.179180    0.956719
      6          6           0       -1.438493   -0.163005   -0.159108
      7          8           0       -2.439496    0.033317   -0.790591
      8          6           0       -0.188433    0.646494    0.038686
      9          6           0       -0.108894    2.139424   -0.103827
     10          1           0        1.534998   -0.938659   -2.023780
     11          1           0        1.959413   -2.090748   -0.745359
     12          1           0        0.275515   -1.920733   -1.259428
     13          1           0        2.876917   -0.082154    0.493604
     14          1           0        0.606684   -0.094256    2.153923
     15          1           0       -0.975272   -2.234596    0.690145
     16          1           0       -1.801626   -1.090804    1.773272
     17          1           0       -0.287748    2.428261   -1.145169
     18          1           0       -0.869743    2.633275    0.508912
     19          1           0        0.876236    2.505568    0.188077
 ---------------------------------------------------------------------

 SCF Done:  E(RB3LYP) =  -423.178397459     A.U. after    1 cycles

 The electronic state is 1-A.
 Alpha  occ. eigenvalues --  -19.15462 -19.12728 -10.26440 -10.25967 -10.20601
 Alpha  occ. eigenvalues --  -10.20427 -10.19497 -10.18835 -10.17827  -1.04440
 Alpha  occ. eigenvalues --   -1.03648  -0.89737  -0.74346  -0.73848  -0.68927
 Alpha  occ. eigenvalues --   -0.62242  -0.57893  -0.51497  -0.49363  -0.47143
 Alpha  occ. eigenvalues --   -0.45845  -0.44756  -0.43193  -0.40613  -0.40434
 Alpha  occ. eigenvalues --   -0.39995  -0.39647  -0.37251  -0.36599  -0.35420
 Alpha  occ. eigenvalues --   -0.32054  -0.27294  -0.26211  -0.23791
 Alpha virt. eigenvalues --   -0.01030   0.06445   0.09395   0.10523   0.12143
 Alpha virt. eigenvalues --    0.12956   0.13343   0.14622   0.16645   0.17250
 Alpha virt. eigenvalues --    0.18413   0.18944   0.19470   0.21029   0.21836

 Mulliken charges:
               1
     1  C   -0.462574
     2  C    0.355677
     3  O   -0.467310
     4  C   -0.177640
     5  C   -0.375010
     6  C    0.349992
     7  O   -0.316247
     8  C    0.170590
     9  C   -0.500716
    10  H    0.136886
    11  H    0.109832
    12  H    0.134294
    13  H    0.285868
    14  H    0.101183
    15  H    0.118031
    16  H    0.133371
    17  H    0.135592
    18  H    0.123786
    19  H    0.144396
 Sum of Mulliken charges =   0.00000

 Dipole moment (field-independent basis, Debye):
    X=              2.8491    Y=             -1.3878    Z=              1.8404  Tot=              3.6648
 Quadrupole moment (field-independent basis, Debye-Ang):
   XX=            -57.6353   YY=            -51.7344   ZZ=            -52.1053
   XY=             -2.5430   XZ=             -2.4307   YZ=              0.0447

  Exact polarizability:  84.746  -1.230  77.335   1.474  -3.476  68.741
 Approx polarizability: 127.726  -2.385 108.339  10.730  -8.432 107.653

                      1                      2                      3
                      A                      A                      A
 Frequencies --     96.4049               112.9950               183.0084
 Red. masses --      2.7951                 1.2343                 2.7095
 Frc consts  --      0.0153                 0.0093                 0.0535
 IR Inten    --      3.0515                 0.7050                 0.4936

                      4                      5                      6
                      A                      A                      A
 Frequencies --    200.5779               223.2150               250.2429
 Red. masses --      1.1723                 1.1013                 3.0097
 Frc consts  --      0.0278                 0.0323                 0.1110
 IR Inten    --     28.5615                54.3744                 2.7156

                      7                      8                      9
                      A                      A                      A
 Frequencies --    262.5351               291.0501               390.9595
 Red. masses --      2.5362                 3.0689                 2.8981
 Frc consts  --      0.1030                 0.1532                 0.2610
 IR Inten    --      3.9979                12.7788                 2.7351

                     10                     11                     12
                      A                      A                      A
 Frequencies --    414.1359               471.4102               536.7742
 Red. masses --      3.5114                 3.3749                 3.7757
 Frc consts  --      0.3548                 0.4419                 0.6410
 IR Inten    --      3.8870                 2.2250                11.9791

                     13                     14                     15
                      A                      A                      A
 Frequencies --    569.4433               645.8961               674.3415
 Red. masses --      2.7004                 3.1395                 4.1937
 Frc consts  --      0.5159                 0.7717                 1.1236
 IR Inten    --      4.8137                 8.4481                15.3677

                     16                     17                     18
                      A                      A                      A
 Frequencies --    684.2994               814.6099               876.9730
 Red. masses --      3.5731                 2.7658                 3.0454
 Frc consts  --      0.9858                 1.0814                 1.3799
 IR Inten    --      3.9723                18.2033                 1.7785

                     19                     20                     21
                      A                      A                      A
 Frequencies --    929.2063               953.1059               991.9996
 Red. masses --      1.3041                 1.9372                 1.8516
 Frc consts  --      0.6634                 1.0368                 1.0736
 IR Inten    --      9.1140                 5.1132                30.0196

                     22                     23                     24
                      A                      A                      A
 Frequencies --    998.5697              1010.1361              1076.4739
 Red. masses --      2.0037                 2.5060                 1.4574
 Frc consts  --      1.1772                 1.5066                 0.9950
 IR Inten    --      6.8131                15.5075                24.1623

                     25                     26                     27
                      A                      A                      A
 Frequencies --   1096.7524              1112.5003              1144.6297
 Red. masses --      1.6429                 1.7820                 1.8597
 Frc consts  --      1.1644                 1.2994                 1.4355
 IR Inten    --      0.8424                12.3188                 3.3478

                     28                     29                     30
                      A                      A                      A
 Frequencies --   1199.3240              1216.0212              1248.0330
 Red. masses --      2.8140                 1.5992                 1.9933
 Frc consts  --      2.3848                 1.3933                 1.8293
 IR Inten    --     62.0560                14.0528                13.1282

                     31                     32                     33
                      A                      A                      A
 Frequencies --   1297.7100              1313.5393              1405.9216
 Red. masses --      1.5924                 4.5200                 1.2519
 Frc consts  --      1.5800                 4.5949                 1.4579
 IR Inten    --     32.1406                43.1470                 1.8898

                     34                     35                     36
                      A                      A                      A
 Frequencies --   1415.7414              1434.2931              1462.6598
 Red. masses --      1.2767                 2.7332                 1.2013
 Frc consts  --      1.5076                 3.3129                 1.5142
 IR Inten    --      3.1684                11.6473                 5.4946

                     37                     38                     39
                      A                      A                      A
 Frequencies --   1487.4803              1489.4511              1490.9032
 Red. masses --      1.0518                 1.0470                 1.0483
 Frc consts  --      1.3711                 1.3686                 1.3728
 IR Inten    --      1.3326                 3.4899                 9.6889

                     40                     41                     42
                      A                      A                      A
 Frequencies --   1499.5559              1870.1315              3027.7808
 Red. masses --      1.1242                12.6866                 1.0436
 Frc consts  --      1.4894                26.1421                 5.6368
 IR Inten    --      4.0440               315.7615                29.5787

                     43                     44                     45
                      A                      A                      A
 Frequencies --   3040.5731              3054.7208              3096.6089
 Red. masses --      1.0376                 1.0580                 1.1006
 Frc consts  --      5.6520                 5.8169                 6.2179
 IR Inten    --     25.9000                20.2006                14.9565

                     46                     47                     48
                      A                      A                      A
 Frequencies --   3098.2323              3104.6243              3134.1514
 Red. masses --      1.0937                 1.1059                 1.0996
 Frc consts  --      6.1853                 6.2804                 6.3642
 IR Inten    --     16.4465                13.5931                14.3125

                     49                     50                     51
                      A                      A                      A
 Frequencies --   3144.2638              3196.9849              3799.9248
 Red. masses --      1.0984                 1.0927                 1.0661
 Frc consts  --      6.3983                 6.5802                 9.0698
 IR Inten    --      4.9420                 6.3655                22.3487

 - Thermochemistry -
 -------------------
 Temperature   298.150 Kelvin.  Pressure   1.00000 Atm.
 Atom     1 has atomic number  6 and mass  12.00000

 Molecular mass:   126.06808 amu.
 Principal axes and moments of inertia in atomic units:
                           1         2         3
     Eigenvalues --   746.586211187.563391442.99001
           X            0.99925  -0.02352  -0.03067
           Y            0.02407   0.99955   0.01768
           Z            0.03024  -0.01841   0.99937
 This molecule is an asymmetric top.
 Rotational symmetry number  1.
 Warning -- assumption of classical behavior for rotation
           may cause significant error
 Rotational temperatures (Kelvin)      0.11601     0.07293     0.06002
 Rotational constants (GHZ):           2.41732     1.51970     1.25070
 Zero-point vibrational energy     409965.5 (Joules/Mol)
                                   97.98410 (Kcal/Mol)
 Warning -- explicit consideration of  13 degrees of freedom as
           vibrations may cause significant error
 Vibrational temperatures:    138.70   162.57   263.31   288.59   321.16
          (Kelvin)            360.04   377.73   418.76   562.50   595.85
                              678.25   772.30   819.30   929.30   970.23
                              984.55  1172.04  1261.77  1336.92  1371.31
                             1427.26  1436.72  1453.36  1548.80  1577.98
                             1600.64  1646.86  1725.56  1749.58  1795.64
                             1867.11  1889.89  2022.81  2036.93  2063.63
                             2104.44  2140.15  2142.99  2145.07  2157.52
                             2690.70  4356.30  4374.70  4395.06  4455.32
                             4457.66  4466.86  4509.34  4523.89  4599.74
                             5467.24

 Zero-point correction=                           0.156148 (Hartree/Particle)
 Thermal correction to Energy=                    0.165656
 Thermal correction to Enthalpy=                  0.166600
 Thermal correction to Gibbs Free Energy=         0.122346
 Sum of electronic and zero-point Energies=           -423.022250
 Sum of electronic and thermal Energies=              -423.012742
 Sum of electronic and thermal Enthalpies=            -423.011797
 Sum of electronic and thermal Free Energies=         -423.056052

                     E (Thermal)             CV                S
                      KCal/Mol        Cal/Mol-Kelvin    Cal/Mol-Kelvin
 Total                  103.951             35.596             93.141
 Electronic               0.000              0.000              0.000
 Translational            0.889              2.981             40.409
 Rotational               0.889              2.981             28.638
 Vibrational            102.173             29.635             24.094
 Vibration     1          0.603              1.952              3.526
 Vibration     2          0.607              1.939              3.217
 Vibration     3          0.631              1.863              2.298
 Vibration     4          0.638              1.839              2.128
 Vibration     5          0.649              1.806              1.933
 Vibration     6          0.663              1.762              1.729
 Vibration     7          0.670              1.741              1.645
 Vibration     8          0.687              1.690              1.468
 Vibration     9          0.759              1.490              0.996
 Vibration    10          0.778              1.440              0.912
 Vibration    11          0.828              1.313              0.734
 Vibration    12          0.892              1.169              0.572
 Vibration    13          0.925              1.097              0.505

 Optimization completed.
    -- Stationary point found.
 Normal termination of Gaussian 09 at Mon Jan 27 16:51:08 2020.
