 Gaussian 09, Revision D.01,
 Gaussian 09:  ES64L-G09RevD.01 24-Apr-2013

 -----------------------------
 # b3lyp 6-31G(2df,p) opt Freq
 -----------------------------

 -----
 titel
 -----
 Symbolic Z-matrix:
 Charge =  0 Multiplicity = 1

 SCF Done:  E(RB3LYP) =  -423.120397315     A.U. after   14 cycles
 Optimization completed.
    -- Stationary point found.
 Normal termination of Gaussian 09 at Tue Jan 28 02:24:31 2020.

 ----------------------------------------------------------------------
 #N Geom=AllCheck Guess=TCheck SCRF=Check GenChk RB3LYP/6-31G(2df,p) Fr
 eq
 ----------------------------------------------------------------------

 Structure from the checkpoint file:  "/scratch/puck/g09_3b305fbf-d7ff-4445-971c-f5623752bf09/Gau-194498.chk"
 -----
 titel
 -----
 Charge =  0 Multiplicity = 1

                         Standard orientation:
 ---------------------------------------------------------------------
 Center     Atomic      Atomic             Coordinates (Angstroms)
 Number     Number       Type             X           Y           Z
 ---------------------------------------------------------------------
      1          6           0       -2.709317   -0.309858   -0.248206
      2          6           0       -1.280832   -0.566839    0.213972
      3          6           0       -0.655946    0.542459    1.128617
      4          6           0        0.449455    0.794434    0.063434
      5          8           0        0.639608    2.076336   -0.457245
      6          6           0        1.739448   -0.083404    0.150230
      7          8           0        1.371513   -1.366833    0.658450
      8          6           0        1.140757   -1.095849   -0.734908
      9          6           0       -0.177096   -0.291498   -0.857479
     10          1           0       -3.409470   -0.356588    0.593309
     11          1           0       -2.805742    0.681132   -0.706501
     12          1           0       -3.025561   -1.052289   -0.989656
     13          1           0       -1.192688   -1.562945    0.652422
     14          1           0       -1.304543    1.417257    1.234330
     15          1           0       -0.314049    0.215956    2.112613
     16          1           0        1.049871    2.620994    0.224830
     17          1           0        2.766467    0.241295    0.288594
     18          1           0        1.591796   -1.783118   -1.441960
     19          1           0       -0.483856   -0.034399   -1.871571
 ---------------------------------------------------------------------

 SCF Done:  E(RB3LYP) =  -423.120397315     A.U. after    1 cycles

 The electronic state is 1-A.
 Alpha  occ. eigenvalues --  -19.15368 -19.14710 -10.23674 -10.23614 -10.23356
 Alpha  occ. eigenvalues --  -10.18431 -10.18306 -10.17317 -10.17158  -1.07951
 Alpha  occ. eigenvalues --   -1.02930  -0.84298  -0.74265  -0.69427  -0.65495
 Alpha  occ. eigenvalues --   -0.60433  -0.58208  -0.53844  -0.52638  -0.48552
 Alpha  occ. eigenvalues --   -0.47523  -0.42916  -0.41915  -0.40393  -0.39593
 Alpha  occ. eigenvalues --   -0.38133  -0.38059  -0.34634  -0.33297  -0.32095
 Alpha  occ. eigenvalues --   -0.30648  -0.27137  -0.25636  -0.24526
 Alpha virt. eigenvalues --    0.06753   0.07920   0.09586   0.10260   0.12888
 Alpha virt. eigenvalues --    0.14227   0.15145   0.15502   0.15838   0.16528
 Alpha virt. eigenvalues --    0.16942   0.17843   0.19119   0.20451   0.22513

 Mulliken charges:
               1
     1  C   -0.417406
     2  C    0.046611
     3  C   -0.316325
     4  C    0.378575
     5  O   -0.477439
     6  C   -0.063844
     7  O   -0.235389
     8  C    0.011621
     9  C   -0.116324
    10  H    0.113892
    11  H    0.117043
    12  H    0.112521
    13  H    0.084641
    14  H    0.096924
    15  H    0.102635
    16  H    0.279671
    17  H    0.100034
    18  H    0.103751
    19  H    0.078810
 Sum of Mulliken charges =   0.00000

 Dipole moment (field-independent basis, Debye):
    X=              0.3219    Y=              0.8671    Z=             -0.0046  Tot=              0.9250
 Quadrupole moment (field-independent basis, Debye-Ang):
   XX=            -50.9698   YY=            -53.1778   ZZ=            -53.2172
   XY=              3.2004   XZ=             -0.2984   YZ=              5.9895

  Exact polarizability:  82.757   1.251  72.901   0.847   4.870  67.294
 Approx polarizability: 106.971   2.755 112.154   3.806   3.801 106.926

                      1                      2                      3
                      A                      A                      A
 Frequencies --     97.8580               231.1098               244.4999
 Red. masses --      3.0737                 2.2182                 1.0590
 Frc consts  --      0.0173                 0.0698                 0.0373
 IR Inten    --      0.2303                 8.5602                14.3379

                      4                      5                      6
                      A                      A                      A
 Frequencies --    262.0604               275.6134               294.4077
 Red. masses --      1.4860                 3.2245                 2.8876
 Frc consts  --      0.0601                 0.1443                 0.1475
 IR Inten    --     51.7019                 5.4359                13.7225

                      7                      8                      9
                      A                      A                      A
 Frequencies --    357.0329               369.8130               482.0434
 Red. masses --      2.7949                 3.1801                 2.4019
 Frc consts  --      0.2099                 0.2562                 0.3288
 IR Inten    --      4.0236                28.3906                 0.7821

                     10                     11                     12
                      A                      A                      A
 Frequencies --    537.5103               622.0687               701.3018
 Red. masses --      5.0146                 4.6401                 3.7000
 Frc consts  --      0.8536                 1.0579                 1.0722
 IR Inten    --      5.1356                 4.2258                 5.6947

                     13                     14                     15
                      A                      A                      A
 Frequencies --    796.6131               801.6275               844.0812
 Red. masses --      3.0800                 3.7129                 1.5412
 Frc consts  --      1.1516                 1.4057                 0.6470
 IR Inten    --      0.6762                 2.7453                22.6105

                     16                     17                     18
                      A                      A                      A
 Frequencies --    863.2774               876.8388               892.6182
 Red. masses --      1.8530                 2.4626                 2.7686
 Frc consts  --      0.8136                 1.1155                 1.2997
 IR Inten    --      3.8274                 5.9176                 1.3964

                     19                     20                     21
                      A                      A                      A
 Frequencies --    947.2306               966.3919               998.3243
 Red. masses --      1.9636                 1.5840                 2.3478
 Frc consts  --      1.0381                 0.8716                 1.3787
 IR Inten    --      1.0420                 4.8863                21.4470

                     22                     23                     24
                      A                      A                      A
 Frequencies --   1023.7413              1038.8681              1055.7406
 Red. masses --      1.9801                 1.6501                 1.6897
 Frc consts  --      1.2227                 1.0493                 1.1097
 IR Inten    --     30.8710                 4.3883                 2.0082

                     25                     26                     27
                      A                      A                      A
 Frequencies --   1106.5472              1119.2265              1147.8744
 Red. masses --      1.8715                 1.8752                 2.2862
 Frc consts  --      1.3501                 1.3840                 1.7748
 IR Inten    --      3.5241                 1.3542                14.9591

                     28                     29                     30
                      A                      A                      A
 Frequencies --   1179.1962              1208.3332              1227.1983
 Red. masses --      1.7241                 1.6434                 1.5020
 Frc consts  --      1.4125                 1.4137                 1.3328
 IR Inten    --     18.6725                10.8574                23.8135

                     31                     32                     33
                      A                      A                      A
 Frequencies --   1240.3705              1257.3158              1281.1682
 Red. masses --      1.4827                 1.5806                 1.4313
 Frc consts  --      1.3440                 1.4722                 1.3842
 IR Inten    --      9.7076                 3.9126                 3.7140

                     34                     35                     36
                      A                      A                      A
 Frequencies --   1300.9305              1344.1954              1355.5291
 Red. masses --      1.9211                 2.0286                 1.9982
 Frc consts  --      1.9157                 2.1596                 2.1633
 IR Inten    --    103.9697                 6.8530                 2.3783

                     37                     38                     39
                      A                      A                      A
 Frequencies --   1392.1559              1409.8695              1460.9468
 Red. masses --      2.3320                 1.2693                 1.1463
 Frc consts  --      2.6629                 1.4866                 1.4415
 IR Inten    --      9.4504                 0.7525                 2.5873

                     40                     41                     42
                      A                      A                      A
 Frequencies --   1495.9667              1498.6140              3021.8953
 Red. masses --      1.0430                 1.0495                 1.0348
 Frc consts  --      1.3752                 1.3887                 5.5676
 IR Inten    --      4.5090                 1.3035                29.6965

                     43                     44                     45
                      A                      A                      A
 Frequencies --   3056.2534              3077.0332              3091.0402
 Red. masses --      1.0590                 1.0910                 1.1012
 Frc consts  --      5.8281                 6.0862                 6.1993
 IR Inten    --     25.5582                 0.4320                26.9616

                     46                     47                     48
                      A                      A                      A
 Frequencies --   3097.3307              3118.0494              3122.3889
 Red. masses --      1.0965                 1.0884                 1.1062
 Frc consts  --      6.1977                 6.2346                 6.3543
 IR Inten    --     35.9867                13.6306                24.1749

                     49                     50                     51
                      A                      A                      A
 Frequencies --   3158.4982              3181.2314              3784.2674
 Red. masses --      1.0891                 1.0995                 1.0658
 Frc consts  --      6.4017                 6.5560                 8.9924
 IR Inten    --     22.9373                28.6412                18.5191

 - Thermochemistry -
 -------------------
 Temperature   298.150 Kelvin.  Pressure   1.00000 Atm.
 Atom     1 has atomic number  6 and mass  12.00000

 Molecular mass:   126.06808 amu.
 Principal axes and moments of inertia in atomic units:
                           1         2         3
     Eigenvalues --   726.178061085.647811409.78591
           X            0.99955   0.02986  -0.00154
           Y           -0.02974   0.99817   0.05266
           Z            0.00311  -0.05259   0.99861
 This molecule is an asymmetric top.
 Rotational symmetry number  1.
 Warning -- assumption of classical behavior for rotation
           may cause significant error
 Rotational temperatures (Kelvin)      0.11927     0.07978     0.06144
 Rotational constants (GHZ):           2.48526     1.66236     1.28015
 Zero-point vibrational energy     414590.4 (Joules/Mol)
                                   99.08948 (Kcal/Mol)
 Warning -- explicit consideration of  10 degrees of freedom as
           vibrations may cause significant error
 Vibrational temperatures:    140.80   332.52   351.78   377.05   396.55
          (Kelvin)            423.59   513.69   532.08   693.55   773.36
                              895.02  1009.02  1146.15  1153.36  1214.44
                             1242.06  1261.57  1284.28  1362.85  1390.42
                             1436.36  1472.93  1494.70  1518.97  1592.07
                             1610.32  1651.53  1696.60  1738.52  1765.66
                             1784.61  1808.99  1843.31  1871.75  1933.99
                             1950.30  2003.00  2028.49  2101.97  2152.36
                             2156.17  4347.83  4397.26  4427.16  4447.31
                             4456.36  4486.17  4492.42  4544.37  4577.08
                             5444.71

 Zero-point correction=                           0.157909 (Hartree/Particle)
 Thermal correction to Energy=                    0.166063
 Thermal correction to Enthalpy=                  0.167007
 Thermal correction to Gibbs Free Energy=         0.125647
 Sum of electronic and zero-point Energies=           -422.962488
 Sum of electronic and thermal Energies=              -422.954335
 Sum of electronic and thermal Enthalpies=            -422.953390
 Sum of electronic and thermal Free Energies=         -422.994750

                     E (Thermal)             CV                S
                      KCal/Mol        Cal/Mol-Kelvin    Cal/Mol-Kelvin
 Total                  104.206             32.450             87.049
 Electronic               0.000              0.000              0.000
 Translational            0.889              2.981             40.409
 Rotational               0.889              2.981             28.499
 Vibrational            102.428             26.488             18.142
 Vibration     1          0.603              1.951              3.497
 Vibration     2          0.653              1.793              1.870
 Vibration     3          0.660              1.772              1.770
 Vibration     4          0.669              1.742              1.648
 Vibration     5          0.677              1.718              1.561
 Vibration     6          0.689              1.684              1.448
 Vibration     7          0.732              1.561              1.135
 Vibration     8          0.742              1.534              1.081
 Vibration     9          0.838              1.290              0.705
 Vibration    10          0.893              1.167              0.571

 Normal termination of Gaussian 09 at Tue Jan 28 03:09:49 2020.
