 Gaussian 09, Revision D.01,
 Gaussian 09:  ES64L-G09RevD.01 24-Apr-2013

 -----------------------------
 # b3lyp 6-31G(2df,p) opt Freq
 -----------------------------

 -----
 titel
 -----
 Symbolic Z-matrix:
 Charge =  0 Multiplicity = 1

 SCF Done:  E(RB3LYP) =  -423.127306664     A.U. after   14 cycles
 Optimization completed.
    -- Stationary point found.
 Normal termination of Gaussian 09 at Mon Jan 27 14:10:58 2020.

 ----------------------------------------------------------------------
 #N Geom=AllCheck Guess=TCheck SCRF=Check GenChk RB3LYP/6-31G(2df,p) Fr
 eq
 ----------------------------------------------------------------------

 Structure from the checkpoint file:  "/scratch/puck/g09_5169cf76-75dd-43d5-9b7b-eb2e467a4971/Gau-64281.chk"
 -----
 titel
 -----
 Charge =  0 Multiplicity = 1

                         Standard orientation:
 ---------------------------------------------------------------------
 Center     Atomic      Atomic             Coordinates (Angstroms)
 Number     Number       Type             X           Y           Z
 ---------------------------------------------------------------------
      1          6           0       -2.847638   -0.621913    0.819175
      2          6           0       -2.027644   -0.225271   -0.390439
      3          6           0       -1.272088    1.123470   -0.374042
      4          6           0       -0.021398    0.261855   -0.622352
      5          8           0       -0.773707   -0.956985   -0.479389
      6          6           0        1.112058    0.381006    0.407650
      7          8           0        1.654022    1.699163    0.379300
      8          6           0        2.135996   -0.642383    0.199738
      9          6           0        2.996803   -1.450714   -0.025231
     10          1           0       -2.284767   -0.458457    1.743388
     11          1           0       -3.770278   -0.032587    0.863353
     12          1           0       -3.120606   -1.680573    0.765986
     13          1           0       -2.612137   -0.375953   -1.308711
     14          1           0       -1.532238    1.840799   -1.152556
     15          1           0       -1.273731    1.627810    0.595077
     16          1           0        0.404274    0.356531   -1.632010
     17          1           0        0.673066    0.261973    1.405289
     18          1           0        2.266972    1.744493   -0.362820
     19          1           0        3.750392   -2.177759   -0.203277
 ---------------------------------------------------------------------

 SCF Done:  E(RB3LYP) =  -423.127306664     A.U. after    1 cycles

 The electronic state is 1-A.
 Alpha  occ. eigenvalues --  -19.14862 -19.13110 -10.25645 -10.23661 -10.23586
 Alpha  occ. eigenvalues --  -10.18660 -10.18460 -10.18079 -10.17786  -1.04116
 Alpha  occ. eigenvalues --   -1.02758  -0.78021  -0.75991  -0.73667  -0.69389
 Alpha  occ. eigenvalues --   -0.62082  -0.56158  -0.54935  -0.50569  -0.49780
 Alpha  occ. eigenvalues --   -0.47916  -0.46513  -0.44265  -0.41064  -0.39143
 Alpha  occ. eigenvalues --   -0.38452  -0.36831  -0.36098  -0.32270  -0.30468
 Alpha  occ. eigenvalues --   -0.29778  -0.27459  -0.27245  -0.24390
 Alpha virt. eigenvalues --    0.02689   0.04417   0.08972   0.09590   0.10762
 Alpha virt. eigenvalues --    0.12210   0.12544   0.13379   0.14500   0.15572
 Alpha virt. eigenvalues --    0.16799   0.17282   0.19009   0.20539   0.22634

 Mulliken charges:
               1
     1  C   -0.397233
     2  C    0.173173
     3  C   -0.323604
     4  C    0.148097
     5  O   -0.308097
     6  C   -0.074402
     7  O   -0.418255
     8  C    0.295451
     9  C   -0.438321
    10  H    0.118491
    11  H    0.117106
    12  H    0.129308
    13  H    0.075344
    14  H    0.108635
    15  H    0.115258
    16  H    0.071350
    17  H    0.117027
    18  H    0.288967
    19  H    0.201707
 Sum of Mulliken charges =   0.00000

 Dipole moment (field-independent basis, Debye):
    X=             -0.4302    Y=              0.6441    Z=             -0.8978  Tot=              1.1857
 Quadrupole moment (field-independent basis, Debye-Ang):
   XX=            -45.8166   YY=            -55.2400   ZZ=            -52.5638
   XY=             -3.1616   XZ=             -3.2552   YZ=             -2.7916

  Exact polarizability:  96.389  -9.904  75.604  -4.265  -0.288  62.097
 Approx polarizability: 124.107 -20.249 117.800  -7.888   4.044  93.247

                      1                      2                      3
                      A                      A                      A
 Frequencies --     53.7032                60.2874               122.3487
 Red. masses --      3.9265                 3.7971                 3.7215
 Frc consts  --      0.0067                 0.0081                 0.0328
 IR Inten    --      0.7771                 1.5477                 2.2025

                      4                      5                      6
                      A                      A                      A
 Frequencies --    199.1262               219.3319               245.3114
 Red. masses --      2.3704                 1.4649                 2.4184
 Frc consts  --      0.0554                 0.0415                 0.0857
 IR Inten    --      3.5653                 1.7937                 0.0704

                      7                      8                      9
                      A                      A                      A
 Frequencies --    274.1344               329.1302               362.3158
 Red. masses --      1.2694                 2.3167                 3.4275
 Frc consts  --      0.0562                 0.1479                 0.2651
 IR Inten    --     95.4556                 1.8938                 8.7386

                     10                     11                     12
                      A                      A                      A
 Frequencies --    399.2379               450.8966               504.4177
 Red. masses --      4.3093                 2.7697                 4.9170
 Frc consts  --      0.4047                 0.3318                 0.7371
 IR Inten    --      5.5291                 4.2152                 5.4903

                     13                     14                     15
                      A                      A                      A
 Frequencies --    587.3153               634.4672               673.9600
 Red. masses --      5.8598                 1.2288                 1.2514
 Frc consts  --      1.1909                 0.2914                 0.3349
 IR Inten    --     13.9985                43.7086                33.9866

                     16                     17                     18
                      A                      A                      A
 Frequencies --    728.5162               834.7358               893.8610
 Red. masses --      2.5696                 2.0219                 2.2661
 Frc consts  --      0.8035                 0.8301                 1.0668
 IR Inten    --      5.2716                 7.3839                18.7702

                     19                     20                     21
                      A                      A                      A
 Frequencies --    897.5373               931.5880               960.6064
 Red. masses --      4.1025                 1.3927                 2.5412
 Frc consts  --      1.9472                 0.7121                 1.3816
 IR Inten    --     20.1422                 3.8082                26.0380

                     22                     23                     24
                      A                      A                      A
 Frequencies --   1035.4948              1061.6503              1075.3698
 Red. masses --      8.0238                 3.4918                 2.4562
 Frc consts  --      5.0690                 2.3188                 1.6735
 IR Inten    --    163.6910                59.5166                24.5067

                     25                     26                     27
                      A                      A                      A
 Frequencies --   1097.7490              1126.3976              1147.1332
 Red. masses --      1.9679                 2.3133                 2.2631
 Frc consts  --      1.3972                 1.7293                 1.7546
 IR Inten    --     13.5923                 0.2828                 2.1939

                     28                     29                     30
                      A                      A                      A
 Frequencies --   1196.3041              1245.5091              1251.9999
 Red. masses --      1.7080                 1.2398                 1.4333
 Frc consts  --      1.4402                 1.1332                 1.3237
 IR Inten    --      1.8508                10.6404                 5.2354

                     31                     32                     33
                      A                      A                      A
 Frequencies --   1276.6045              1297.9814              1328.6977
 Red. masses --      1.2814                 1.2817                 1.4638
 Frc consts  --      1.2304                 1.2722                 1.5226
 IR Inten    --      0.7533                14.1133                 7.2171

                     34                     35                     36
                      A                      A                      A
 Frequencies --   1373.4012              1394.0225              1408.6237
 Red. masses --      1.2713                 1.2531                 1.3184
 Frc consts  --      1.4128                 1.4348                 1.5413
 IR Inten    --     23.1790                17.2186                37.3138

                     37                     38                     39
                      A                      A                      A
 Frequencies --   1420.5776              1481.8876              1491.2493
 Red. masses --      1.4542                 1.0518                 1.0985
 Frc consts  --      1.7290                 1.3609                 1.4393
 IR Inten    --     28.6181                 4.2231                 3.5426

                     40                     41                     42
                      A                      A                      A
 Frequencies --   1495.9091              2233.6702              2994.1514
 Red. masses --      1.0861                 5.9073                 1.0833
 Frc consts  --      1.4320                17.3650                 5.7218
 IR Inten    --      1.5194                 1.8506                43.9865

                     43                     44                     45
                      A                      A                      A
 Frequencies --   3003.8187              3032.8618              3046.3173
 Red. masses --      1.0857                 1.0350                 1.0844
 Frc consts  --      5.7717                 5.6094                 5.9291
 IR Inten    --     58.4530                12.7965                28.9919

                     46                     47                     48
                      A                      A                      A
 Frequencies --   3077.3441              3105.4076              3112.3601
 Red. masses --      1.0608                 1.1006                 1.1024
 Frc consts  --      5.9187                 6.2537                 6.2919
 IR Inten    --     17.4090                20.7305                26.0294

                     49                     50                     51
                      A                      A                      A
 Frequencies --   3137.1199              3502.5539              3809.5227
 Red. masses --      1.1070                 1.1626                 1.0662
 Frc consts  --      6.4191                 8.4031                 9.1169
 IR Inten    --     23.0980                64.4684                28.8143

 - Thermochemistry -
 -------------------
 Temperature   298.150 Kelvin.  Pressure   1.00000 Atm.
 Atom     1 has atomic number  6 and mass  12.00000

 Molecular mass:   126.06808 amu.
 Principal axes and moments of inertia in atomic units:
                           1         2         3
     Eigenvalues --   601.901901763.466672100.14636
           X            0.99987  -0.00504  -0.01534
           Y            0.00453   0.99944  -0.03312
           Z            0.01550   0.03304   0.99933
 This molecule is an asymmetric top.
 Rotational symmetry number  1.
 Warning -- assumption of classical behavior for rotation
           may cause significant error
 Rotational temperatures (Kelvin)      0.14390     0.04912     0.04124
 Rotational constants (GHZ):           2.99840     1.02341     0.85934
 Zero-point vibrational energy     410465.8 (Joules/Mol)
                                   98.10367 (Kcal/Mol)
 Warning -- explicit consideration of  13 degrees of freedom as
           vibrations may cause significant error
 Vibrational temperatures:     77.27    86.74   176.03   286.50   315.57
          (Kelvin)            352.95   394.42   473.54   521.29   574.41
                              648.74   725.74   845.01   912.86   969.68
                             1048.17  1201.00  1286.07  1291.35  1340.35
                             1382.10  1489.84  1527.48  1547.22  1579.41
                             1620.63  1650.47  1721.21  1792.01  1801.35
                             1836.75  1867.50  1911.70  1976.02  2005.69
                             2026.69  2043.89  2132.10  2145.57  2152.28
                             3213.75  4307.91  4321.82  4363.61  4382.97
                             4427.61  4467.98  4477.99  4513.61  5039.39
                             5481.05

 Zero-point correction=                           0.156338 (Hartree/Particle)
 Thermal correction to Energy=                    0.166155
 Thermal correction to Enthalpy=                  0.167099
 Thermal correction to Gibbs Free Energy=         0.121069
 Sum of electronic and zero-point Energies=           -422.970969
 Sum of electronic and thermal Energies=              -422.961152
 Sum of electronic and thermal Enthalpies=            -422.960207
 Sum of electronic and thermal Free Energies=         -423.006237

                     E (Thermal)             CV                S
                      KCal/Mol        Cal/Mol-Kelvin    Cal/Mol-Kelvin
 Total                  104.264             35.789             96.878
 Electronic               0.000              0.000              0.000
 Translational            0.889              2.981             40.409
 Rotational               0.889              2.981             29.190
 Vibrational            102.486             29.828             27.279
 Vibration     1          0.596              1.976              4.676
 Vibration     2          0.597              1.973              4.448
 Vibration     3          0.610              1.930              3.063
 Vibration     4          0.637              1.841              2.141
 Vibration     5          0.647              1.812              1.965
 Vibration     6          0.660              1.771              1.764
 Vibration     7          0.676              1.721              1.570
 Vibration     8          0.712              1.617              1.264
 Vibration     9          0.736              1.550              1.112
 Vibration    10          0.765              1.472              0.965
 Vibration    11          0.810              1.359              0.793
 Vibration    12          0.860              1.240              0.647
 Vibration    13          0.944              1.059              0.472

 Optimization completed.
    -- Stationary point found.
 Normal termination of Gaussian 09 at Mon Jan 27 15:03:17 2020.
