 Gaussian 09, Revision D.01,
 Gaussian 09:  ES64L-G09RevD.01 24-Apr-2013

 -----------------------------
 # b3lyp 6-31G(2df,p) opt Freq
 -----------------------------

 -----
 titel
 -----
 Symbolic Z-matrix:
 Charge =  0 Multiplicity = 1

 SCF Done:  E(RB3LYP) =  -423.123999492     A.U. after   13 cycles
 Optimization completed.
    -- Stationary point found.
 Normal termination of Gaussian 09 at Tue Jan 28 01:58:19 2020.

 ----------------------------------------------------------------------
 #N Geom=AllCheck Guess=TCheck SCRF=Check GenChk RB3LYP/6-31G(2df,p) Fr
 eq
 ----------------------------------------------------------------------

 Structure from the checkpoint file:  "/scratch/puck/g09_3804be32-4f1a-4365-8f1c-79c45eec3876/Gau-89612.chk"
 -----
 titel
 -----
 Charge =  0 Multiplicity = 1

                         Standard orientation:
 ---------------------------------------------------------------------
 Center     Atomic      Atomic             Coordinates (Angstroms)
 Number     Number       Type             X           Y           Z
 ---------------------------------------------------------------------
      1          8           0        2.459738   -0.685849   -0.805848
      2          6           0        1.927760    0.355941   -0.040067
      3          6           0        1.359620    0.059963    1.327916
      4          6           0        0.447667    0.339589    0.157573
      5          6           0       -0.520102    1.518328   -0.063324
      6          6           0       -1.506750    0.524357   -0.725231
      7          8           0       -2.426262   -0.061308    0.217828
      8          6           0       -1.592776   -1.235036    0.377685
      9          6           0       -0.499350   -0.648978   -0.530571
     10          1           0        3.294539   -0.953911   -0.408016
     11          1           0        2.400647    1.327655   -0.193327
     12          1           0        1.421940   -0.967985    1.672903
     13          1           0        1.454735    0.811252    2.105809
     14          1           0       -0.922708    1.997622    0.832770
     15          1           0       -0.132236    2.284651   -0.742666
     16          1           0       -1.989781    0.804598   -1.664685
     17          1           0       -1.319276   -1.414826    1.424760
     18          1           0       -2.088217   -2.128224   -0.024574
     19          1           0       -0.083869   -1.268561   -1.322699
 ---------------------------------------------------------------------

 SCF Done:  E(RB3LYP) =  -423.123999492     A.U. after    1 cycles

 The electronic state is 1-A.
 Alpha  occ. eigenvalues --  -19.14643 -19.12560 -10.23548 -10.22890 -10.22397
 Alpha  occ. eigenvalues --  -10.19594 -10.18592 -10.18467 -10.17994  -1.03339
 Alpha  occ. eigenvalues --   -1.02999  -0.86178  -0.77972  -0.71162  -0.63146
 Alpha  occ. eigenvalues --   -0.61043  -0.57930  -0.52035  -0.51548  -0.50160
 Alpha  occ. eigenvalues --   -0.47266  -0.45444  -0.44510  -0.41565  -0.39934
 Alpha  occ. eigenvalues --   -0.38397  -0.37421  -0.33709  -0.31836  -0.31176
 Alpha  occ. eigenvalues --   -0.29218  -0.26886  -0.25505  -0.23701
 Alpha virt. eigenvalues --    0.07377   0.07562   0.10008   0.11147   0.11343
 Alpha virt. eigenvalues --    0.12404   0.12827   0.15596   0.16675   0.17223
 Alpha virt. eigenvalues --    0.17570   0.19801   0.20483   0.21100   0.22210

 Mulliken charges:
               1
     1  O   -0.420716
     2  C    0.022735
     3  C   -0.392763
     4  C    0.354990
     5  C   -0.331200
     6  C    0.124097
     7  O   -0.295070
     8  C   -0.080631
     9  C   -0.158811
    10  H    0.289450
    11  H    0.084596
    12  H    0.113240
    13  H    0.113515
    14  H    0.110590
    15  H    0.100783
    16  H    0.075198
    17  H    0.099364
    18  H    0.097706
    19  H    0.092924
 Sum of Mulliken charges =   0.00000

 Dipole moment (field-independent basis, Debye):
    X=              2.3557    Y=             -0.0930    Z=              0.4275  Tot=              2.3960
 Quadrupole moment (field-independent basis, Debye-Ang):
   XX=            -53.9534   YY=            -50.0384   ZZ=            -53.4164
   XY=              0.2838   XZ=              4.0359   YZ=             -1.3423

  Exact polarizability:  82.784   0.904  75.061   2.920  -2.044  68.718
 Approx polarizability: 110.726  -1.342 108.022   1.397  -2.528 104.377

                      1                      2                      3
                      A                      A                      A
 Frequencies --     79.8290               147.3103               201.1595
 Red. masses --      3.9140                 4.3420                 3.2399
 Frc consts  --      0.0147                 0.0555                 0.0772
 IR Inten    --      1.8483                 1.8466                 1.8620

                      4                      5                      6
                      A                      A                      A
 Frequencies --    222.3827               289.8957               363.0930
 Red. masses --      2.5106                 1.1887                 2.9020
 Frc consts  --      0.0732                 0.0589                 0.2254
 IR Inten    --      7.2128                95.0508                 3.8725

                      7                      8                      9
                      A                      A                      A
 Frequencies --    421.0191               439.0979               533.5080
 Red. masses --      2.0678                 2.2394                 3.7011
 Frc consts  --      0.2160                 0.2544                 0.6207
 IR Inten    --      1.5801                 6.5547                 5.6199

                     10                     11                     12
                      A                      A                      A
 Frequencies --    548.8905               724.0743               787.2797
 Red. masses --      3.5481                 2.9089                 2.2269
 Frc consts  --      0.6298                 0.8986                 0.8132
 IR Inten    --      1.9671                 0.5964                 6.2846

                     13                     14                     15
                      A                      A                      A
 Frequencies --    817.1677               833.3008               869.2841
 Red. masses --      1.8996                 1.9664                 1.6459
 Frc consts  --      0.7474                 0.8045                 0.7328
 IR Inten    --      0.5885                 2.4664                 5.3902

                     16                     17                     18
                      A                      A                      A
 Frequencies --    895.5688               928.7842               962.9462
 Red. masses --      2.1048                 3.6213                 2.6152
 Frc consts  --      0.9946                 1.8405                 1.4288
 IR Inten    --      7.0379                10.1799                16.9379

                     19                     20                     21
                      A                      A                      A
 Frequencies --    992.0459              1006.4181              1010.3410
 Red. masses --      2.1914                 1.8900                 4.3709
 Frc consts  --      1.2707                 1.1279                 2.6288
 IR Inten    --     18.4396                10.5755                51.0878

                     22                     23                     24
                      A                      A                      A
 Frequencies --   1033.3444              1066.2225              1079.5939
 Red. masses --      1.3521                 2.1407                 2.2587
 Frc consts  --      0.8507                 1.4338                 1.5511
 IR Inten    --     12.0566                 3.5976                19.7983

                     25                     26                     27
                      A                      A                      A
 Frequencies --   1095.7730              1145.7771              1160.8517
 Red. masses --      1.6586                 1.4978                 1.5987
 Frc consts  --      1.1733                 1.1585                 1.2693
 IR Inten    --     25.7583                 1.1392                13.6317

                     28                     29                     30
                      A                      A                      A
 Frequencies --   1172.1760              1179.7620              1202.7650
 Red. masses --      2.2954                 1.5749                 1.6090
 Frc consts  --      1.8582                 1.2915                 1.3714
 IR Inten    --     32.0256                12.6430                 1.7823

                     31                     32                     33
                      A                      A                      A
 Frequencies --   1239.5854              1261.1800              1274.1223
 Red. masses --      1.6674                 1.5637                 1.7028
 Frc consts  --      1.5095                 1.4654                 1.6287
 IR Inten    --      0.3578                 6.4666                 5.8047

                     34                     35                     36
                      A                      A                      A
 Frequencies --   1294.4659              1312.6781              1347.9962
 Red. masses --      1.2414                 1.3789                 1.8009
 Frc consts  --      1.2255                 1.3999                 1.9280
 IR Inten    --     55.8168                15.3247                 3.1267

                     37                     38                     39
                      A                      A                      A
 Frequencies --   1364.6027              1422.5371              1464.5324
 Red. masses --      1.4749                 1.3390                 1.1138
 Frc consts  --      1.6181                 1.5965                 1.4075
 IR Inten    --      3.7806                 7.9366                 3.9048

                     40                     41                     42
                      A                      A                      A
 Frequencies --   1486.8338              1519.8239              3006.9700
 Red. masses --      1.9918                 1.1012                 1.0555
 Frc consts  --      2.5942                 1.4987                 5.6230
 IR Inten    --     15.7424                 0.7297                82.9538

                     43                     44                     45
                      A                      A                      A
 Frequencies --   3043.5296              3052.7725              3075.9735
 Red. masses --      1.0603                 1.1100                 1.0888
 Frc consts  --      5.7870                 6.0946                 6.0699
 IR Inten    --     24.8347                40.3774                63.3026

                     46                     47                     48
                      A                      A                      A
 Frequencies --   3082.7263              3106.1794              3118.7544
 Red. masses --      1.0870                 1.1055                 1.0540
 Frc consts  --      6.0861                 6.2844                 6.0401
 IR Inten    --     39.0398                19.0669                 9.6187

                     49                     50                     51
                      A                      A                      A
 Frequencies --   3137.0889              3208.0345              3807.2593
 Red. masses --      1.0898                 1.1167                 1.0663
 Frc consts  --      6.3189                 6.7713                 9.1066
 IR Inten    --     16.5361                 8.1167                23.7373

 - Thermochemistry -
 -------------------
 Temperature   298.150 Kelvin.  Pressure   1.00000 Atm.
 Atom     1 has atomic number  8 and mass  15.99491

 Molecular mass:   126.06808 amu.
 Principal axes and moments of inertia in atomic units:
                           1         2         3
     Eigenvalues --   523.520081483.086071583.31967
           X            0.99984   0.01012   0.01486
           Y           -0.00938   0.99875  -0.04914
           Z           -0.01534   0.04900   0.99868
 This molecule is an asymmetric top.
 Rotational symmetry number  1.
 Warning -- assumption of classical behavior for rotation
           may cause significant error
 Rotational temperatures (Kelvin)      0.16545     0.05840     0.05470
 Rotational constants (GHZ):           3.44732     1.21688     1.13985
 Zero-point vibrational energy     417719.9 (Joules/Mol)
                                   99.83744 (Kcal/Mol)
 Warning -- explicit consideration of  10 degrees of freedom as
           vibrations may cause significant error
 Vibrational temperatures:    114.86   211.95   289.42   319.96   417.09
          (Kelvin)            522.41   605.75   631.76   767.60   789.73
                             1041.78  1132.72  1175.72  1198.93  1250.70
                             1288.52  1336.31  1385.46  1427.33  1448.01
                             1453.65  1486.75  1534.05  1553.29  1576.57
                             1648.52  1670.20  1686.50  1697.41  1730.51
                             1783.48  1814.55  1833.18  1862.45  1888.65
                             1939.46  1963.36  2046.71  2107.13  2139.22
                             2186.68  4326.35  4378.95  4392.25  4425.63
                             4435.35  4469.09  4487.19  4513.57  4615.64
                             5477.79

 Zero-point correction=                           0.159101 (Hartree/Particle)
 Thermal correction to Energy=                    0.167128
 Thermal correction to Enthalpy=                  0.168072
 Thermal correction to Gibbs Free Energy=         0.126476
 Sum of electronic and zero-point Energies=           -422.964898
 Sum of electronic and thermal Energies=              -422.956872
 Sum of electronic and thermal Enthalpies=            -422.955928
 Sum of electronic and thermal Free Energies=         -422.997524

                     E (Thermal)             CV                S
                      KCal/Mol        Cal/Mol-Kelvin    Cal/Mol-Kelvin
 Total                  104.874             31.307             87.546
 Electronic               0.000              0.000              0.000
 Translational            0.889              2.981             40.409
 Rotational               0.889              2.981             28.599
 Vibrational            103.097             25.346             18.539
 Vibration     1          0.600              1.963              3.895
 Vibration     2          0.617              1.906              2.707
 Vibration     3          0.638              1.838              2.122
 Vibration     4          0.648              1.807              1.940
 Vibration     5          0.686              1.693              1.475
 Vibration     6          0.737              1.548              1.109
 Vibration     7          0.784              1.425              0.889
 Vibration     8          0.799              1.385              0.829
 Vibration     9          0.888              1.176              0.579
 Vibration    10          0.904              1.142              0.546

 Optimization completed.
    -- Stationary point found.
 Normal termination of Gaussian 09 at Tue Jan 28 02:45:28 2020.
