 Gaussian 09, Revision D.01,
 Gaussian 09:  ES64L-G09RevD.01 24-Apr-2013

 -----------------------------
 # b3lyp 6-31G(2df,p) opt Freq
 -----------------------------

 -----
 titel
 -----
 Symbolic Z-matrix:
 Charge =  0 Multiplicity = 1

 SCF Done:  E(RB3LYP) =  -423.141408695     A.U. after   14 cycles
 Optimization completed.
    -- Stationary point found.
 Normal termination of Gaussian 09 at Mon Jan 27 14:06:43 2020.

 ----------------------------------------------------------------------
 #N Geom=AllCheck Guess=TCheck SCRF=Check GenChk RB3LYP/6-31G(2df,p) Fr
 eq
 ----------------------------------------------------------------------

 Structure from the checkpoint file:  "/scratch/puck/g09_c7d34e02-9d6c-485d-8df0-acca4cb3d665/Gau-4358.chk"
 -----
 titel
 -----
 Charge =  0 Multiplicity = 1

                         Standard orientation:
 ---------------------------------------------------------------------
 Center     Atomic      Atomic             Coordinates (Angstroms)
 Number     Number       Type             X           Y           Z
 ---------------------------------------------------------------------
      1          6           0        3.876948   -0.041706   -0.032707
      2          6           0        2.445852   -0.188369    0.193967
      3          6           0        1.267171   -0.355055    0.395706
      4          6           0       -0.145854   -0.456576    0.600770
      5          6           0       -1.077746   -0.835347   -0.541399
      6          8           0       -2.113388   -1.702497   -0.188429
      7          6           0       -1.054149    0.594099   -0.059061
      8          6           0       -2.216035    1.163519    0.714132
      9          8           0       -0.437091    1.529979   -0.892591
     10          1           0        4.108502   -0.009801   -1.103068
     11          1           0        4.265366    0.877799    0.419075
     12          1           0        4.430595   -0.882745    0.399165
     13          1           0       -0.476627   -0.806638    1.574493
     14          1           0       -0.604981   -1.016754   -1.506397
     15          1           0       -2.874186   -1.497315   -0.743195
     16          1           0       -2.914467    1.653722    0.027031
     17          1           0       -2.749921    0.375480    1.249772
     18          1           0       -1.873002    1.913973    1.432928
     19          1           0        0.515438    1.489034   -0.730095
 ---------------------------------------------------------------------

 SCF Done:  E(RB3LYP) =  -423.141408695     A.U. after    1 cycles

 The electronic state is 1-A.
 Alpha  occ. eigenvalues --  -19.14975 -19.13563 -10.24228 -10.23494 -10.20795
 Alpha  occ. eigenvalues --  -10.20658 -10.18166 -10.17721 -10.17640  -1.03836
 Alpha  occ. eigenvalues --   -1.02155  -0.84654  -0.77888  -0.72889  -0.69903
 Alpha  occ. eigenvalues --   -0.61945  -0.58019  -0.53621  -0.52557  -0.46599
 Alpha  occ. eigenvalues --   -0.45097  -0.43609  -0.42978  -0.42927  -0.42314
 Alpha  occ. eigenvalues --   -0.39470  -0.38359  -0.37722  -0.33297  -0.32148
 Alpha  occ. eigenvalues --   -0.29782  -0.27105  -0.23624  -0.22868
 Alpha virt. eigenvalues --    0.04354   0.04809   0.07637   0.09794   0.11620
 Alpha virt. eigenvalues --    0.12779   0.14242   0.15150   0.15716   0.17407
 Alpha virt. eigenvalues --    0.17802   0.17926   0.20117   0.20894   0.22407

 Mulliken charges:
               1
     1  C   -0.501943
     2  C    0.137083
     3  C    0.015129
     4  C   -0.326808
     5  C    0.026182
     6  O   -0.416227
     7  C    0.359691
     8  C   -0.449127
     9  O   -0.469189
    10  H    0.150854
    11  H    0.148972
    12  H    0.153687
    13  H    0.119595
    14  H    0.099734
    15  H    0.292272
    16  H    0.123504
    17  H    0.127830
    18  H    0.124057
    19  H    0.284703
 Sum of Mulliken charges =   0.00000

 Dipole moment (field-independent basis, Debye):
    X=              0.6879    Y=              0.1552    Z=             -0.1734  Tot=              0.7262
 Quadrupole moment (field-independent basis, Debye-Ang):
   XX=            -40.4065   YY=            -58.2496   ZZ=            -52.6932
   XY=              1.4065   XZ=              0.5841   YZ=              2.8764

  Exact polarizability: 121.064   0.914  66.847  -2.000  -0.087  61.645
 Approx polarizability: 165.936   6.283  98.169  -3.514  -4.403  93.344

                      1                      2                      3
                      A                      A                      A
 Frequencies --     33.2927                79.6624                89.0225
 Red. masses --      1.0239                 3.8829                 3.6573
 Frc consts  --      0.0007                 0.0145                 0.0171
 IR Inten    --      0.0361                 2.0314                 2.7621

                      4                      5                      6
                      A                      A                      A
 Frequencies --    189.6228               193.9571               230.4996
 Red. masses --      1.6789                 1.5479                 1.9932
 Frc consts  --      0.0356                 0.0343                 0.0624
 IR Inten    --      0.3646                 8.3833                22.6504

                      7                      8                      9
                      A                      A                      A
 Frequencies --    252.4124               260.5961               298.3231
 Red. masses --      2.9973                 1.7286                 2.3504
 Frc consts  --      0.1125                 0.0692                 0.1232
 IR Inten    --      7.9792                 5.0533                 7.1031

                     10                     11                     12
                      A                      A                      A
 Frequencies --    305.4306               341.4824               404.5419
 Red. masses --      1.9860                 2.3586                 2.7899
 Frc consts  --      0.1092                 0.1620                 0.2690
 IR Inten    --    103.9279                36.1546                 6.1878

                     13                     14                     15
                      A                      A                      A
 Frequencies --    423.1329               464.7144               503.6412
 Red. masses --      4.0293                 4.9188                 5.3761
 Frc consts  --      0.4250                 0.6259                 0.8034
 IR Inten    --      5.8668                11.7506                 2.0643

                     16                     17                     18
                      A                      A                      A
 Frequencies --    601.7202               718.9826               790.4064
 Red. masses --      3.3368                 4.5163                 4.5623
 Frc consts  --      0.7118                 1.3755                 1.6793
 IR Inten    --      1.8990                 5.6070                16.4472

                     19                     20                     21
                      A                      A                      A
 Frequencies --    870.8774               946.2058               963.2782
 Red. masses --      3.4999                 2.6797                 1.4596
 Frc consts  --      1.5640                 1.4135                 0.7980
 IR Inten    --      4.8792                12.4517                21.7568

                     22                     23                     24
                      A                      A                      A
 Frequencies --   1010.4017              1050.6212              1054.7538
 Red. masses --      1.7589                 1.3971                 1.3881
 Frc consts  --      1.0580                 0.9086                 0.9099
 IR Inten    --      4.1544                 1.5974                 0.9379

                     25                     26                     27
                      A                      A                      A
 Frequencies --   1074.1641              1098.2520              1149.6381
 Red. masses --      1.3440                 1.6800                 3.9224
 Frc consts  --      0.9136                 1.1939                 3.0544
 IR Inten    --      1.5106                31.6789               110.1270

                     28                     29                     30
                      A                      A                      A
 Frequencies --   1198.9755              1216.6281              1273.0400
 Red. masses --      2.1610                 2.3556                 1.3153
 Frc consts  --      1.8303                 2.0543                 1.2559
 IR Inten    --      4.0365                68.6231                30.2126

                     31                     32                     33
                      A                      A                      A
 Frequencies --   1294.0226              1335.4084              1383.8427
 Red. masses --      2.0719                 1.4272                 1.2897
 Frc consts  --      2.0441                 1.4996                 1.4552
 IR Inten    --      8.7177                49.9733                21.3522

                     34                     35                     36
                      A                      A                      A
 Frequencies --   1414.1953              1422.6390              1450.8554
 Red. masses --      1.2618                 1.5186                 2.5298
 Frc consts  --      1.4868                 1.8109                 3.1375
 IR Inten    --     13.3126                 8.2928                29.2875

                     37                     38                     39
                      A                      A                      A
 Frequencies --   1476.4751              1479.3284              1484.3783
 Red. masses --      1.0396                 1.0398                 1.0509
 Frc consts  --      1.3353                 1.3407                 1.3643
 IR Inten    --      6.0536                 5.8232                 2.7011

                     40                     41                     42
                      A                      A                      A
 Frequencies --   1500.8698              2353.7855              3026.7920
 Red. masses --      1.1218                11.8038                 1.0347
 Frc consts  --      1.4889                38.5307                 5.5851
 IR Inten    --      4.5111                 2.3250                35.2319

                     43                     44                     45
                      A                      A                      A
 Frequencies --   3037.2174              3086.8406              3089.3068
 Red. masses --      1.0363                 1.1004                 1.1000
 Frc consts  --      5.6322                 6.1778                 6.1854
 IR Inten    --     27.3238                10.1809                 8.5267

                     46                     47                     48
                      A                      A                      A
 Frequencies --   3099.9189              3110.6516              3130.6604
 Red. masses --      1.1007                 1.0883                 1.1006
 Frc consts  --      6.2319                 6.2045                 6.3553
 IR Inten    --     17.8037                17.7642                11.0755

                     49                     50                     51
                      A                      A                      A
 Frequencies --   3153.2397              3730.3544              3796.8733
 Red. masses --      1.0865                 1.0661                 1.0661
 Frc consts  --      6.3649                 8.7411                 9.0551
 IR Inten    --      6.9454                91.7999                25.1684

 - Thermochemistry -
 -------------------
 Temperature   298.150 Kelvin.  Pressure   1.00000 Atm.
 Atom     1 has atomic number  6 and mass  12.00000

 Molecular mass:   126.06808 amu.
 Principal axes and moments of inertia in atomic units:
                           1         2         3
     Eigenvalues --   614.523101989.172882314.11519
           X            0.99990  -0.00856  -0.01120
           Y            0.00899   0.99918   0.03950
           Z            0.01085  -0.03959   0.99916
 This molecule is an asymmetric top.
 Rotational symmetry number  1.
 Warning -- assumption of classical behavior for rotation
           may cause significant error
 Rotational temperatures (Kelvin)      0.14094     0.04354     0.03743
 Rotational constants (GHZ):           2.93682     0.90728     0.77988
 Zero-point vibrational energy     406406.9 (Joules/Mol)
                                   97.13359 (Kcal/Mol)
 Warning -- explicit consideration of  16 degrees of freedom as
           vibrations may cause significant error
 Vibrational temperatures:     47.90   114.62   128.08   272.82   279.06
          (Kelvin)            331.64   363.16   374.94   429.22   439.45
                              491.32   582.04   608.79   668.62   724.63
                              865.74  1034.45  1137.22  1253.00  1361.38
                             1385.94  1453.74  1511.61  1517.55  1545.48
                             1580.14  1654.07  1725.06  1750.45  1831.62
                             1861.81  1921.35  1991.04  2034.71  2046.86
                             2087.45  2124.32  2128.42  2135.69  2159.41
                             3386.57  4354.87  4369.87  4441.27  4444.82
                             4460.09  4475.53  4504.32  4536.80  5367.14
                             5462.85

 Zero-point correction=                           0.154792 (Hartree/Particle)
 Thermal correction to Energy=                    0.165691
 Thermal correction to Enthalpy=                  0.166635
 Thermal correction to Gibbs Free Energy=         0.118179
 Sum of electronic and zero-point Energies=           -422.986616
 Sum of electronic and thermal Energies=              -422.975718
 Sum of electronic and thermal Enthalpies=            -422.974773
 Sum of electronic and thermal Free Energies=         -423.023230

                     E (Thermal)             CV                S
                      KCal/Mol        Cal/Mol-Kelvin    Cal/Mol-Kelvin
 Total                  103.973             38.536            101.985
 Electronic               0.000              0.000              0.000
 Translational            0.889              2.981             40.409
 Rotational               0.889              2.981             29.427
 Vibrational            102.195             32.575             32.150
 Vibration     1          0.594              1.983              5.623
 Vibration     2          0.600              1.963              3.899
 Vibration     3          0.602              1.957              3.681
 Vibration     4          0.633              1.854              2.232
 Vibration     5          0.635              1.848              2.190
 Vibration     6          0.652              1.794              1.875
 Vibration     7          0.664              1.759              1.714
 Vibration     8          0.669              1.745              1.658
 Vibration     9          0.691              1.677              1.426
 Vibration    10          0.696              1.663              1.387
 Vibration    11          0.721              1.593              1.205
 Vibration    12          0.770              1.460              0.946
 Vibration    13          0.785              1.420              0.881
 Vibration    14          0.822              1.328              0.753
 Vibration    15          0.859              1.242              0.649
 Vibration    16          0.960              1.028              0.447

 Optimization completed.
    -- Stationary point found.
 Normal termination of Gaussian 09 at Mon Jan 27 15:40:17 2020.
