 Gaussian 09, Revision D.01,
 Gaussian 09:  ES64L-G09RevD.01 24-Apr-2013

 -----------------------------
 # b3lyp 6-31G(2df,p) opt Freq
 -----------------------------

 -----
 titel
 -----
 Symbolic Z-matrix:
 Charge =  0 Multiplicity = 1

 SCF Done:  E(RB3LYP) =  -423.150994901     A.U. after   13 cycles
 Optimization completed.
    -- Stationary point found.
 Normal termination of Gaussian 09 at Mon Jan 27 23:47:02 2020.

 ----------------------------------------------------------------------
 #N Geom=AllCheck Guess=TCheck SCRF=Check GenChk RB3LYP/6-31G(2df,p) Fr
 eq
 ----------------------------------------------------------------------

 Structure from the checkpoint file:  "/scratch/puck/g09_a59c1f51-d35c-4e32-9402-a70b15af6f76/Gau-186089.chk"
 -----
 titel
 -----
 Charge =  0 Multiplicity = 1

                         Standard orientation:
 ---------------------------------------------------------------------
 Center     Atomic      Atomic             Coordinates (Angstroms)
 Number     Number       Type             X           Y           Z
 ---------------------------------------------------------------------
      1          8           0       -1.673480   -1.327509   -0.334097
      2          6           0       -0.619501   -0.482556   -0.764821
      3          6           0        0.827833   -0.988556   -0.645940
      4          6           0        0.968677   -1.286373    0.873777
      5          6           0        0.828838    0.235501    1.012555
      6          6           0        1.526332    0.422434   -0.368461
      7          6           0        0.565675    1.580888   -0.705186
      8          6           0       -0.417861    0.753809    0.146735
      9          8           0       -1.565993    1.295920    0.692598
     10          1           0       -1.356017   -1.875448    0.391182
     11          1           0       -0.887724   -0.188401   -1.783460
     12          1           0        1.193317   -1.683181   -1.401851
     13          1           0        0.260182   -1.962780    1.370793
     14          1           0        1.979379   -1.619566    1.126558
     15          1           0        1.088949    0.806818    1.902427
     16          1           0        2.606242    0.478266   -0.487046
     17          1           0        0.889514    2.497689   -0.204689
     18          1           0        0.290445    1.798614   -1.742212
     19          1           0       -2.228456    0.589821    0.668334
 ---------------------------------------------------------------------

 SCF Done:  E(RB3LYP) =  -423.150994901     A.U. after    1 cycles

 The electronic state is 1-A.
 Alpha  occ. eigenvalues --  -19.15036 -19.13405 -10.23260 -10.23081 -10.19860
 Alpha  occ. eigenvalues --  -10.19658 -10.19285 -10.18749 -10.17983  -1.04073
 Alpha  occ. eigenvalues --   -1.01370  -0.90844  -0.75565  -0.70765  -0.65220
 Alpha  occ. eigenvalues --   -0.61613  -0.58018  -0.53937  -0.52704  -0.48022
 Alpha  occ. eigenvalues --   -0.47201  -0.46284  -0.45057  -0.40398  -0.38840
 Alpha  occ. eigenvalues --   -0.37148  -0.34640  -0.34506  -0.33533  -0.32452
 Alpha  occ. eigenvalues --   -0.31147  -0.28570  -0.26835  -0.24588
 Alpha virt. eigenvalues --    0.06267   0.10204   0.10649   0.11987   0.12271
 Alpha virt. eigenvalues --    0.13994   0.14959   0.15516   0.16758   0.17176
 Alpha virt. eigenvalues --    0.17845   0.18772   0.20542   0.21496   0.22521

 Mulliken charges:
               1
     1  O   -0.463302
     2  C    0.102074
     3  C   -0.088923
     4  C   -0.273571
     5  C   -0.091899
     6  C   -0.032587
     7  C   -0.294660
     8  C    0.389747
     9  O   -0.495235
    10  H    0.285086
    11  H    0.085310
    12  H    0.067966
    13  H    0.076035
    14  H    0.106613
    15  H    0.072996
    16  H    0.075442
    17  H    0.105809
    18  H    0.092015
    19  H    0.281084
 Sum of Mulliken charges =   0.00000

 Dipole moment (field-independent basis, Debye):
    X=              1.5535    Y=             -1.3919    Z=              0.1660  Tot=              2.0924
 Quadrupole moment (field-independent basis, Debye-Ang):
   XX=            -54.0248   YY=            -54.3428   ZZ=            -52.6822
   XY=              1.5048   XZ=             -0.8987   YZ=             -3.1106

  Exact polarizability:  75.607   0.433  76.873   0.586  -3.256  68.944
 Approx polarizability: 112.697   1.138 111.815  -0.423  -3.016 106.864

                      1                      2                      3
                      A                      A                      A
 Frequencies --    200.8755               222.9258               257.8329
 Red. masses --      3.6788                 1.2721                 4.1020
 Frc consts  --      0.0875                 0.0372                 0.1607
 IR Inten    --      4.1250                24.4438                39.9392

                      4                      5                      6
                      A                      A                      A
 Frequencies --    337.9681               394.5799               443.3202
 Red. masses --      3.8896                 2.5422                 2.3109
 Frc consts  --      0.2618                 0.2332                 0.2676
 IR Inten    --      5.3818                 3.6582                 3.0531

                      7                      8                      9
                      A                      A                      A
 Frequencies --    477.5207               506.2775               521.2196
 Red. masses --      1.6707                 1.4716                 3.3072
 Frc consts  --      0.2245                 0.2222                 0.5294
 IR Inten    --     28.0826                36.3440                13.2447

                     10                     11                     12
                      A                      A                      A
 Frequencies --    637.7631               700.9061               706.9714
 Red. masses --      3.6154                 4.1975                 3.9125
 Frc consts  --      0.8664                 1.2150                 1.1521
 IR Inten    --      6.7872                 0.4416                 6.6653

                     13                     14                     15
                      A                      A                      A
 Frequencies --    800.6158               831.9306               842.9459
 Red. masses --      2.7011                 3.1533                 2.1474
 Frc consts  --      1.0201                 1.2858                 0.8990
 IR Inten    --      3.3097                 7.5389                 9.7021

                     16                     17                     18
                      A                      A                      A
 Frequencies --    858.0730               921.6030               959.1775
 Red. masses --      1.8682                 2.4058                 1.7094
 Frc consts  --      0.8104                 1.2039                 0.9266
 IR Inten    --      8.6440                12.4867                 6.4056

                     19                     20                     21
                      A                      A                      A
 Frequencies --    970.4227               992.8189              1001.8667
 Red. masses --      2.1036                 1.7380                 1.7933
 Frc consts  --      1.1672                 1.0093                 1.0605
 IR Inten    --      2.1200                 0.0825                 3.2637

                     22                     23                     24
                      A                      A                      A
 Frequencies --   1010.9498              1038.9077              1060.6177
 Red. masses --      2.4715                 1.1586                 1.5166
 Frc consts  --      1.4882                 0.7368                 1.0052
 IR Inten    --      6.6310                 1.9821                 3.1765

                     25                     26                     27
                      A                      A                      A
 Frequencies --   1101.6986              1122.2362              1124.6813
 Red. masses --      1.8563                 3.0929                 1.5075
 Frc consts  --      1.3275                 2.2950                 1.1235
 IR Inten    --     34.6023                75.2659                36.4652

                     28                     29                     30
                      A                      A                      A
 Frequencies --   1177.2382              1185.5640              1212.1369
 Red. masses --      1.5735                 1.4955                 1.8491
 Frc consts  --      1.2849                 1.2384                 1.6008
 IR Inten    --     14.3117                 1.0530                 5.2421

                     31                     32                     33
                      A                      A                      A
 Frequencies --   1230.2306              1253.3251              1262.2487
 Red. masses --      1.6415                 1.6619                 1.5608
 Frc consts  --      1.4637                 1.5381                 1.4651
 IR Inten    --      7.8305                11.8169                20.2624

                     34                     35                     36
                      A                      A                      A
 Frequencies --   1272.2987              1289.3987              1298.8541
 Red. masses --      1.7494                 1.8777                 1.6223
 Frc consts  --      1.6684                 1.8393                 1.6125
 IR Inten    --      4.1114                81.8421                12.8068

                     37                     38                     39
                      A                      A                      A
 Frequencies --   1355.9073              1404.0614              1436.1402
 Red. masses --      2.5944                 1.5120                 1.2375
 Frc consts  --      2.8103                 1.7562                 1.5038
 IR Inten    --     88.1464                28.4283                52.9691

                     40                     41                     42
                      A                      A                      A
 Frequencies --   1504.0126              1514.6438              3006.3688
 Red. masses --      1.1560                 1.1083                 1.0680
 Frc consts  --      1.5407                 1.4981                 5.6875
 IR Inten    --      8.2942                 1.7397                77.6748

                     43                     44                     45
                      A                      A                      A
 Frequencies --   3044.0002              3072.0955              3084.4303
 Red. masses --      1.0589                 1.0853                 1.0945
 Frc consts  --      5.7808                 6.0350                 6.1349
 IR Inten    --     33.1362                32.7666                21.8131

                     46                     47                     48
                      A                      A                      A
 Frequencies --   3104.9286              3116.5143              3127.7496
 Red. masses --      1.1068                 1.0900                 1.0890
 Frc consts  --      6.2867                 6.2377                 6.2771
 IR Inten    --     21.7781                42.1801                34.5630

                     49                     50                     51
                      A                      A                      A
 Frequencies --   3141.5518              3723.3620              3816.1100
 Red. masses --      1.0923                 1.0650                 1.0650
 Frc consts  --      6.3514                 8.6993                 9.1374
 IR Inten    --     33.0974                46.3073                19.3625

 - Thermochemistry -
 -------------------
 Temperature   298.150 Kelvin.  Pressure   1.00000 Atm.
 Atom     1 has atomic number  8 and mass  15.99491

 Molecular mass:   126.06808 amu.
 Principal axes and moments of inertia in atomic units:
                           1         2         3
     Eigenvalues --   783.91329 852.401211161.20513
           X            0.99960   0.02773   0.00523
           Y           -0.02742   0.99829  -0.05159
           Z           -0.00665   0.05142   0.99865
 This molecule is an asymmetric top.
 Rotational symmetry number  1.
 Warning -- assumption of classical behavior for rotation
           may cause significant error
 Rotational temperatures (Kelvin)      0.11049     0.10161     0.07459
 Rotational constants (GHZ):           2.30222     2.11724     1.55420
 Zero-point vibrational energy     422759.5 (Joules/Mol)
                                  101.04196 (Kcal/Mol)
 Warning -- explicit consideration of   9 degrees of freedom as
           vibrations may cause significant error
 Vibrational temperatures:    289.01   320.74   370.96   486.26   567.71
          (Kelvin)            637.84   687.04   728.42   749.92   917.60
                             1008.45  1017.17  1151.91  1196.96  1212.81
                             1234.57  1325.98  1380.04  1396.22  1428.44
                             1441.46  1454.53  1494.75  1525.99  1585.10
                             1614.65  1618.16  1693.78  1705.76  1743.99
                             1770.03  1803.25  1816.09  1830.55  1855.15
                             1868.76  1950.85  2020.13  2066.28  2163.94
                             2179.23  4325.49  4379.63  4420.05  4437.80
                             4467.29  4483.96  4500.13  4519.99  5357.08
                             5490.52

 Zero-point correction=                           0.161021 (Hartree/Particle)
 Thermal correction to Energy=                    0.168219
 Thermal correction to Enthalpy=                  0.169163
 Thermal correction to Gibbs Free Energy=         0.130040
 Sum of electronic and zero-point Energies=           -422.989974
 Sum of electronic and thermal Energies=              -422.982776
 Sum of electronic and thermal Enthalpies=            -422.981832
 Sum of electronic and thermal Free Energies=         -423.020955

                     E (Thermal)             CV                S
                      KCal/Mol        Cal/Mol-Kelvin    Cal/Mol-Kelvin
 Total                  105.559             30.512             82.341
 Electronic               0.000              0.000              0.000
 Translational            0.889              2.981             40.409
 Rotational               0.889              2.981             28.142
 Vibrational            103.782             24.550             13.791
 Vibration     1          0.638              1.839              2.125
 Vibration     2          0.649              1.806              1.935
 Vibration     3          0.667              1.750              1.676
 Vibration     4          0.718              1.600              1.222
 Vibration     5          0.762              1.482              0.983
 Vibration     6          0.803              1.376              0.816
 Vibration     7          0.834              1.300              0.717
 Vibration     8          0.862              1.236              0.643
 Vibration     9          0.876              1.203              0.607

 Normal termination of Gaussian 09 at Tue Jan 28 00:35:26 2020.
