 Gaussian 09, Revision D.01,
 Gaussian 09:  ES64L-G09RevD.01 24-Apr-2013

 -----------------------------
 # b3lyp 6-31G(2df,p) opt Freq
 -----------------------------

 -----
 titel
 -----
 Symbolic Z-matrix:
 Charge =  0 Multiplicity = 1

 SCF Done:  E(RB3LYP) =  -423.158263065     A.U. after   13 cycles
 Optimization completed.
    -- Stationary point found.
 Normal termination of Gaussian 09 at Mon Jan 27 12:17:10 2020.

 ----------------------------------------------------------------------
 #N Geom=AllCheck Guess=TCheck SCRF=Check GenChk RB3LYP/6-31G(2df,p) Fr
 eq
 ----------------------------------------------------------------------

 Structure from the checkpoint file:  "/scratch/puck/g09_95cff52c-7b58-4db9-aba7-5bc7ee211557/Gau-35226.chk"
 -----
 titel
 -----
 Charge =  0 Multiplicity = 1

                         Standard orientation:
 ---------------------------------------------------------------------
 Center     Atomic      Atomic             Coordinates (Angstroms)
 Number     Number       Type             X           Y           Z
 ---------------------------------------------------------------------
      1          6           0       -2.078982    0.443054   -0.108097
      2          8           0       -1.741932   -0.934225    0.255728
      3          6           0       -0.357332   -0.614024    0.114827
      4          6           0        0.749850   -1.410807   -0.555050
      5          8           0        1.815923   -0.427930   -0.476484
      6          6           0        1.402746    0.635361    0.430023
      7          6           0        0.470902    1.633122   -0.318935
      8          6           0       -0.660056    0.652153   -0.699288
      9          6           0        0.411486   -0.075692    1.346421
     10          1           0       -2.919944    0.474807   -0.805752
     11          1           0       -2.314714    1.043027    0.779914
     12          1           0        1.038536   -2.332856   -0.033013
     13          1           0        0.548971   -1.637662   -1.606931
     14          1           0        2.307126    1.065976    0.860604
     15          1           0        0.162425    2.447171    0.346195
     16          1           0        0.953877    2.072279   -1.194330
     17          1           0       -0.679875    0.448508   -1.771657
     18          1           0        0.855484   -0.862285    1.960257
     19          1           0       -0.175513    0.599281    1.971355
 ---------------------------------------------------------------------

 SCF Done:  E(RB3LYP) =  -423.158263065     A.U. after    1 cycles

 The electronic state is 1-A.
 Alpha  occ. eigenvalues --  -19.14083 -19.13698 -10.23800 -10.23690 -10.23644
 Alpha  occ. eigenvalues --  -10.22705 -10.19048 -10.18763 -10.18192  -1.04932
 Alpha  occ. eigenvalues --   -1.02378  -0.82164  -0.74495  -0.73240  -0.67592
 Alpha  occ. eigenvalues --   -0.62269  -0.57619  -0.53376  -0.51189  -0.50341
 Alpha  occ. eigenvalues --   -0.46279  -0.45367  -0.43581  -0.41645  -0.40425
 Alpha  occ. eigenvalues --   -0.38174  -0.36788  -0.36402  -0.34755  -0.33256
 Alpha  occ. eigenvalues --   -0.31450  -0.28715  -0.24704  -0.24651
 Alpha virt. eigenvalues --    0.06796   0.08309   0.09512   0.11733   0.12846
 Alpha virt. eigenvalues --    0.13153   0.14863   0.15645   0.15812   0.16806
 Alpha virt. eigenvalues --    0.17532   0.19159   0.20341   0.21327   0.21636

 Mulliken charges:
               1
     1  C   -0.148820
     2  O   -0.362082
     3  C    0.436355
     4  C   -0.142432
     5  O   -0.298492
     6  C    0.120364
     7  C   -0.271880
     8  C   -0.037814
     9  C   -0.299170
    10  H    0.113582
    11  H    0.104097
    12  H    0.097687
    13  H    0.105385
    14  H    0.077738
    15  H    0.099344
    16  H    0.107934
    17  H    0.090031
    18  H    0.104765
    19  H    0.103408
 Sum of Mulliken charges =   0.00000

 Dipole moment (field-independent basis, Debye):
    X=             -0.3818    Y=              1.5695    Z=              0.2206  Tot=              1.6302
 Quadrupole moment (field-independent basis, Debye-Ang):
   XX=            -57.4218   YY=            -52.2873   ZZ=            -51.6034
   XY=             -2.4287   XZ=              3.0680   YZ=              0.9637

  Exact polarizability:  77.669  -2.142  73.812   2.440   1.583  68.165
 Approx polarizability: 110.828  -0.885 108.882   0.818   2.352 103.032

                      1                      2                      3
                      A                      A                      A
 Frequencies --    198.8732               295.6151               331.2985
 Red. masses --      2.6656                 2.7180                 3.9802
 Frc consts  --      0.0621                 0.1399                 0.2574
 IR Inten    --      0.7037                 6.4228                 3.9216

                      4                      5                      6
                      A                      A                      A
 Frequencies --    390.8787               425.5641               454.3808
 Red. masses --      2.3535                 2.6355                 2.3848
 Frc consts  --      0.2119                 0.2812                 0.2901
 IR Inten    --      2.2337                 1.8274                 0.1762

                      7                      8                      9
                      A                      A                      A
 Frequencies --    518.0189               618.9187               706.1859
 Red. masses --      3.0607                 3.1078                 5.0002
 Frc consts  --      0.4839                 0.7014                 1.4692
 IR Inten    --      1.3542                 3.0402                 5.9803

                     10                     11                     12
                      A                      A                      A
 Frequencies --    751.5806               800.8264               834.1477
 Red. masses --      4.1148                 3.2284                 2.6834
 Frc consts  --      1.3695                 1.2199                 1.1001
 IR Inten    --      4.1598                 3.7197                 4.7850

                     13                     14                     15
                      A                      A                      A
 Frequencies --    857.0555               888.9730               916.4864
 Red. masses --      2.8192                 2.7513                 2.0198
 Frc consts  --      1.2201                 1.2810                 0.9996
 IR Inten    --      9.0570                15.3749                13.1139

                     16                     17                     18
                      A                      A                      A
 Frequencies --    946.6406               954.2578               962.7000
 Red. masses --      2.0750                 2.5065                 3.7886
 Frc consts  --      1.0955                 1.3448                 2.0688
 IR Inten    --     22.3743                43.1748                37.0626

                     19                     20                     21
                      A                      A                      A
 Frequencies --    984.2867              1018.9555              1041.8060
 Red. masses --      1.6411                 2.2399                 1.5926
 Frc consts  --      0.9367                 1.3702                 1.0184
 IR Inten    --      0.3359                31.8023                 7.6018

                     22                     23                     24
                      A                      A                      A
 Frequencies --   1090.2051              1101.3150              1137.3161
 Red. masses --      1.9454                 2.3824                 1.7529
 Frc consts  --      1.3623                 1.7025                 1.3359
 IR Inten    --     21.8539                 7.6010                 1.4486

                     25                     26                     27
                      A                      A                      A
 Frequencies --   1147.6800              1157.9637              1172.8176
 Red. masses --      1.5756                 1.4635                 1.5774
 Frc consts  --      1.2228                 1.1562                 1.2783
 IR Inten    --     11.4832                13.8365                11.9300

                     28                     29                     30
                      A                      A                      A
 Frequencies --   1203.1108              1228.5232              1237.2405
 Red. masses --      1.5226                 1.7704                 1.4011
 Frc consts  --      1.2985                 1.5743                 1.2637
 IR Inten    --      6.4061                11.7770                 0.4708

                     31                     32                     33
                      A                      A                      A
 Frequencies --   1267.8239              1301.9954              1311.7891
 Red. masses --      1.7421                 1.3768                 1.5590
 Frc consts  --      1.6498                 1.3751                 1.5806
 IR Inten    --     27.2037                 0.1177                 1.3824

                     34                     35                     36
                      A                      A                      A
 Frequencies --   1323.8768              1333.8497              1373.1427
 Red. masses --      1.5150                 1.6598                 1.5468
 Frc consts  --      1.5644                 1.7399                 1.7184
 IR Inten    --     21.2421                 2.5673                 3.2757

                     37                     38                     39
                      A                      A                      A
 Frequencies --   1376.8399              1477.3371              1497.9803
 Red. masses --      1.6201                 1.0987                 1.1167
 Frc consts  --      1.8095                 1.4129                 1.4764
 IR Inten    --      4.3116                 3.6009                 4.0683

                     40                     41                     42
                      A                      A                      A
 Frequencies --   1518.0194              1531.6110              3009.2917
 Red. masses --      1.1088                 1.1019                 1.0629
 Frc consts  --      1.5055                 1.5229                 5.6713
 IR Inten    --      2.4560                 1.0930                77.6023

                     43                     44                     45
                      A                      A                      A
 Frequencies --   3022.5713              3049.1230              3073.1679
 Red. masses --      1.0620                 1.0638                 1.0973
 Frc consts  --      5.7164                 5.8270                 6.1056
 IR Inten    --     50.0150                28.9063                14.4816

                     46                     47                     48
                      A                      A                      A
 Frequencies --   3076.8482              3080.2383              3098.1819
 Red. masses --      1.0654                 1.0880                 1.1021
 Frc consts  --      5.9424                 6.0820                 6.2330
 IR Inten    --     28.1326                 2.6135                44.9360

                     49                     50                     51
                      A                      A                      A
 Frequencies --   3112.9371              3116.8017              3134.8531
 Red. masses --      1.0975                 1.0925                 1.1087
 Frc consts  --      6.2662                 6.2530                 6.4194
 IR Inten    --     47.9424                31.1113                21.9175

 - Thermochemistry -
 -------------------
 Temperature   298.150 Kelvin.  Pressure   1.00000 Atm.
 Atom     1 has atomic number  6 and mass  12.00000

 Molecular mass:   126.06808 amu.
 Principal axes and moments of inertia in atomic units:
                           1         2         3
     Eigenvalues --   602.14001 981.450371178.03708
           X            0.99930  -0.03268   0.01844
           Y            0.03232   0.99929   0.01934
           Z           -0.01906  -0.01873   0.99964
 This molecule is an asymmetric top.
 Rotational symmetry number  1.
 Warning -- assumption of classical behavior for rotation
           may cause significant error
 Rotational temperatures (Kelvin)      0.14384     0.08825     0.07352
 Rotational constants (GHZ):           2.99721     1.83885     1.53199
 Zero-point vibrational energy     427437.1 (Joules/Mol)
                                  102.15992 (Kcal/Mol)
 Warning -- explicit consideration of   8 degrees of freedom as
           vibrations may cause significant error
 Vibrational temperatures:    286.13   425.32   476.66   562.39   612.29
          (Kelvin)            653.75   745.31   890.48  1016.04  1081.36
                             1152.21  1200.15  1233.11  1279.03  1318.62
                             1362.00  1372.96  1385.11  1416.17  1466.05
                             1498.92  1568.56  1584.54  1636.34  1651.25
                             1666.05  1687.42  1731.01  1767.57  1780.11
                             1824.11  1873.28  1887.37  1904.76  1919.11
                             1975.64  1980.96  2125.56  2155.26  2184.09
                             2203.64  4329.69  4348.80  4387.00  4421.60
                             4426.89  4431.77  4457.59  4478.82  4484.38
                             4510.35

 Zero-point correction=                           0.162802 (Hartree/Particle)
 Thermal correction to Energy=                    0.169255
 Thermal correction to Enthalpy=                  0.170200
 Thermal correction to Gibbs Free Energy=         0.132376
 Sum of electronic and zero-point Energies=           -422.995461
 Sum of electronic and thermal Energies=              -422.989008
 Sum of electronic and thermal Enthalpies=            -422.988063
 Sum of electronic and thermal Free Energies=         -423.025887

                     E (Thermal)             CV                S
                      KCal/Mol        Cal/Mol-Kelvin    Cal/Mol-Kelvin
 Total                  106.209             27.618             79.607
 Electronic               0.000              0.000              0.000
 Translational            0.889              2.981             40.409
 Rotational               0.889              2.981             28.034
 Vibrational            104.432             21.656             11.165
 Vibration     1          0.637              1.841              2.144
 Vibration     2          0.690              1.682              1.442
 Vibration     3          0.714              1.613              1.254
 Vibration     4          0.759              1.490              0.997
 Vibration     5          0.787              1.415              0.873
 Vibration     6          0.813              1.351              0.783
 Vibration     7          0.873              1.210              0.615
 Vibration     8          0.979              0.992              0.418

 Optimization completed.
    -- Stationary point found.
 Normal termination of Gaussian 09 at Mon Jan 27 13:06:35 2020.
