 Gaussian 09, Revision D.01,
 Gaussian 09:  ES64L-G09RevD.01 24-Apr-2013

 -----------------------------
 # b3lyp 6-31G(2df,p) opt Freq
 -----------------------------

 -----
 titel
 -----
 Symbolic Z-matrix:
 Charge =  0 Multiplicity = 1

 SCF Done:  E(RB3LYP) =  -423.161849336     A.U. after   14 cycles
 Optimization completed.
    -- Stationary point found.
 Normal termination of Gaussian 09 at Tue Jan 28 12:46:19 2020.

 ----------------------------------------------------------------------
 #N Geom=AllCheck Guess=TCheck SCRF=Check GenChk RB3LYP/6-31G(2df,p) Fr
 eq
 ----------------------------------------------------------------------

 Structure from the checkpoint file:  "/scratch/puck/g09_e33b7b02-4d89-4234-b712-763fe0e2fdfa/Gau-10603.chk"
 -----
 titel
 -----
 Charge =  0 Multiplicity = 1

                         Standard orientation:
 ---------------------------------------------------------------------
 Center     Atomic      Atomic             Coordinates (Angstroms)
 Number     Number       Type             X           Y           Z
 ---------------------------------------------------------------------
      1          6           0       -3.278265    0.314586    0.109422
      2          8           0       -2.270255   -0.653329   -0.126917
      3          6           0       -1.030496   -0.285133    0.366443
      4          6           0        0.125380   -0.947091   -0.260334
      5          6           0       -0.164772    0.548356   -0.605313
      6          6           0        1.125447    0.914404    0.045410
      7          8           0        1.797920    1.908349    0.067783
      8          6           0        1.419032   -0.553193    0.480536
      9          6           0        2.724581   -1.079539   -0.110579
     10          1           0       -3.052520    1.264812   -0.393553
     11          1           0       -4.209424   -0.092715   -0.289101
     12          1           0       -3.402918    0.508944    1.184444
     13          1           0       -1.022683   -0.043693    1.432658
     14          1           0        0.010312   -1.792859   -0.925397
     15          1           0       -0.634152    0.995263   -1.472918
     16          1           0        1.389444   -0.728139    1.562760
     17          1           0        3.574008   -0.543345    0.321015
     18          1           0        2.847774   -2.147234    0.095332
     19          1           0        2.753389   -0.935529   -1.195676
 ---------------------------------------------------------------------

 SCF Done:  E(RB3LYP) =  -423.161849336     A.U. after    1 cycles

 The electronic state is 1-A.
 Alpha  occ. eigenvalues --  -19.16211 -19.12630 -10.26407 -10.25815 -10.23627
 Alpha  occ. eigenvalues --  -10.21031 -10.20220 -10.20155 -10.18520  -1.05914
 Alpha  occ. eigenvalues --   -1.03620  -0.90324  -0.76662  -0.71209  -0.64785
 Alpha  occ. eigenvalues --   -0.63357  -0.59541  -0.52430  -0.51425  -0.49588
 Alpha  occ. eigenvalues --   -0.46697  -0.45175  -0.44632  -0.43245  -0.41136
 Alpha  occ. eigenvalues --   -0.39293  -0.38096  -0.37739  -0.35093  -0.34403
 Alpha  occ. eigenvalues --   -0.31353  -0.28893  -0.26500  -0.23521
 Alpha virt. eigenvalues --   -0.00914   0.08288   0.09963   0.10569   0.10935
 Alpha virt. eigenvalues --    0.12642   0.13244   0.14566   0.15140   0.16612
 Alpha virt. eigenvalues --    0.16908   0.17395   0.17929   0.19721   0.21275

 Mulliken charges:
               1
     1  C   -0.242434
     2  O   -0.245944
     3  C    0.111611
     4  C   -0.108906
     5  C   -0.219508
     6  C    0.412365
     7  O   -0.329754
     8  C   -0.132142
     9  C   -0.407987
    10  H    0.117598
    11  H    0.134646
    12  H    0.114842
    13  H    0.095490
    14  H    0.114109
    15  H    0.112287
    16  H    0.091239
    17  H    0.138814
    18  H    0.119888
    19  H    0.123786
 Sum of Mulliken charges =   0.00000

 Dipole moment (field-independent basis, Debye):
    X=             -1.8708    Y=             -1.7034    Z=              0.2359  Tot=              2.5411
 Quadrupole moment (field-independent basis, Debye-Ang):
   XX=            -51.7394   YY=            -59.0044   ZZ=            -51.2502
   XY=             -8.7693   XZ=             -0.6676   YZ=             -0.3653

  Exact polarizability:  98.640  -0.482  73.559   1.737  -1.229  62.449
 Approx polarizability: 123.546   9.588 120.556   3.357  -1.955  96.939

                      1                      2                      3
                      A                      A                      A
 Frequencies --     87.9180               123.9610               153.5237
 Red. masses --      2.8072                 4.3618                 2.8651
 Frc consts  --      0.0128                 0.0395                 0.0398
 IR Inten    --      4.3319                 1.9789                 0.4927

                      4                      5                      6
                      A                      A                      A
 Frequencies --    165.2069               201.6191               220.0505
 Red. masses --      1.2164                 1.9667                 1.2631
 Frc consts  --      0.0196                 0.0471                 0.0360
 IR Inten    --      0.3597                 1.8546                 0.3593

                      7                      8                      9
                      A                      A                      A
 Frequencies --    254.8938               332.6845               418.5262
 Red. masses --      3.0165                 3.9759                 4.9633
 Frc consts  --      0.1155                 0.2593                 0.5122
 IR Inten    --      6.2296                 2.1173                 3.5649

                     10                     11                     12
                      A                      A                      A
 Frequencies --    461.3511               499.8295               621.2627
 Red. masses --      3.5744                 3.2082                 4.5734
 Frc consts  --      0.4482                 0.4722                 1.0400
 IR Inten    --      0.3849                16.0461                 3.3744

                     13                     14                     15
                      A                      A                      A
 Frequencies --    740.6457               790.9449               821.7001
 Red. masses --      3.5653                 3.1271                 2.4472
 Frc consts  --      1.1523                 1.1526                 0.9735
 IR Inten    --      1.9687                 2.1729                 6.0904

                     16                     17                     18
                      A                      A                      A
 Frequencies --    862.2223               898.3662               909.5995
 Red. masses --      1.8403                 2.9535                 2.5340
 Frc consts  --      0.8061                 1.4044                 1.2352
 IR Inten    --     23.8947                49.4540                34.2943

                     19                     20                     21
                      A                      A                      A
 Frequencies --    991.2514              1006.4519              1045.6706
 Red. masses --      1.2624                 2.2646                 1.5595
 Frc consts  --      0.7308                 1.3515                 1.0046
 IR Inten    --     12.5018                20.5043                22.4275

                     22                     23                     24
                      A                      A                      A
 Frequencies --   1067.5139              1088.1448              1112.3435
 Red. masses --      1.5308                 1.7897                 1.8055
 Frc consts  --      1.0278                 1.2486                 1.3162
 IR Inten    --     17.5625                 2.3746                 9.6124

                     25                     26                     27
                      A                      A                      A
 Frequencies --   1124.9608              1165.9001              1170.5854
 Red. masses --      2.4039                 2.1868                 2.2029
 Frc consts  --      1.7924                 1.7514                 1.7785
 IR Inten    --     24.4700                14.9184                61.7066

                     28                     29                     30
                      A                      A                      A
 Frequencies --   1184.8743              1229.8395              1234.7895
 Red. masses --      1.3485                 1.8276                 1.8192
 Frc consts  --      1.1154                 1.6286                 1.6343
 IR Inten    --      4.3927                53.4493                53.9399

                     31                     32                     33
                      A                      A                      A
 Frequencies --   1250.9822              1293.3720              1344.5483
 Red. masses --      1.9297                 1.5791                 1.6891
 Frc consts  --      1.7793                 1.5563                 1.7991
 IR Inten    --      6.3802                11.6167                 0.4433

                     34                     35                     36
                      A                      A                      A
 Frequencies --   1406.3606              1419.4116              1486.2559
 Red. masses --      1.2275                 1.8528                 1.0580
 Frc consts  --      1.4304                 2.1993                 1.3770
 IR Inten    --      7.6233                79.5602                 6.6606

                     37                     38                     39
                      A                      A                      A
 Frequencies --   1486.7714              1493.4489              1497.1123
 Red. masses --      1.1987                 1.0465                 1.0489
 Frc consts  --      1.5612                 1.3752                 1.3852
 IR Inten    --      6.3456                 4.8166                 2.9630

                     40                     41                     42
                      A                      A                      A
 Frequencies --   1507.4922              1870.6250              2993.3273
 Red. masses --      1.0758                12.3788                 1.0358
 Frc consts  --      1.4404                25.5213                 5.4681
 IR Inten    --      3.9468               332.1992                51.0621

                     43                     44                     45
                      A                      A                      A
 Frequencies --   3034.3152              3037.8437              3048.4023
 Red. masses --      1.0835                 1.0348                 1.1032
 Frc consts  --      5.8776                 5.6267                 6.0404
 IR Inten    --     17.1608                24.1317                46.8305

                     46                     47                     48
                      A                      A                      A
 Frequencies --   3062.5534              3106.1804              3120.3422
 Red. masses --      1.0875                 1.1021                 1.1014
 Frc consts  --      6.0097                 6.2651                 6.3181
 IR Inten    --     27.4930                24.4253                13.6481

                     49                     50                     51
                      A                      A                      A
 Frequencies --   3129.4264              3197.9227              3210.9737
 Red. masses --      1.0984                 1.0916                 1.0952
 Frc consts  --      6.3377                 6.5776                 6.6533
 IR Inten    --     25.0396                 5.3311                 2.0136

 - Thermochemistry -
 -------------------
 Temperature   298.150 Kelvin.  Pressure   1.00000 Atm.
 Atom     1 has atomic number  6 and mass  12.00000

 Molecular mass:   126.06808 amu.
 Principal axes and moments of inertia in atomic units:
                           1         2         3
     Eigenvalues --   506.627161777.170742133.68502
           X            0.99881  -0.04852  -0.00402
           Y            0.04852   0.99882  -0.00073
           Z            0.00405   0.00053   0.99999
 This molecule is an asymmetric top.
 Rotational symmetry number  1.
 Warning -- assumption of classical behavior for rotation
           may cause significant error
 Rotational temperatures (Kelvin)      0.17096     0.04874     0.04059
 Rotational constants (GHZ):           3.56227     1.01551     0.84583
 Zero-point vibrational energy     412617.7 (Joules/Mol)
                                   98.61801 (Kcal/Mol)
 Warning -- explicit consideration of  11 degrees of freedom as
           vibrations may cause significant error
 Vibrational temperatures:    126.49   178.35   220.89   237.70   290.08
          (Kelvin)            316.60   366.73   478.66   602.17   663.78
                              719.14   893.86  1065.62  1137.99  1182.24
                             1240.54  1292.55  1308.71  1426.19  1448.06
                             1504.48  1535.91  1565.60  1600.41  1618.57
                             1677.47  1684.21  1704.77  1769.46  1776.58
                             1799.88  1860.87  1934.50  2023.44  2042.21
                             2138.39  2139.13  2148.74  2154.01  2168.94
                             2691.41  4306.72  4365.70  4370.77  4385.97
                             4406.33  4469.10  4489.47  4502.54  4601.09
                             4619.87

 Zero-point correction=                           0.157158 (Hartree/Particle)
 Thermal correction to Energy=                    0.166346
 Thermal correction to Enthalpy=                  0.167290
 Thermal correction to Gibbs Free Energy=         0.123065
 Sum of electronic and zero-point Energies=           -423.004692
 Sum of electronic and thermal Energies=              -422.995504
 Sum of electronic and thermal Enthalpies=            -422.994560
 Sum of electronic and thermal Free Energies=         -423.038784

                     E (Thermal)             CV                S
                      KCal/Mol        Cal/Mol-Kelvin    Cal/Mol-Kelvin
 Total                  104.383             33.537             93.078
 Electronic               0.000              0.000              0.000
 Translational            0.889              2.981             40.409
 Rotational               0.889              2.981             29.042
 Vibrational            102.606             27.576             23.627
 Vibration     1          0.601              1.958              3.706
 Vibration     2          0.610              1.929              3.038
 Vibration     3          0.619              1.899              2.628
 Vibration     4          0.624              1.885              2.489
 Vibration     5          0.639              1.838              2.118
 Vibration     6          0.647              1.811              1.959
 Vibration     7          0.665              1.755              1.696
 Vibration     8          0.715              1.610              1.247
 Vibration     9          0.781              1.430              0.897
 Vibration    10          0.819              1.336              0.762
 Vibration    11          0.855              1.250              0.659

 Optimization completed.
    -- Stationary point found.
 Normal termination of Gaussian 09 at Tue Jan 28 14:31:41 2020.
