 Gaussian 09, Revision D.01,
 Gaussian 09:  ES64L-G09RevD.01 24-Apr-2013

 -----------------------------
 # b3lyp 6-31G(2df,p) opt Freq
 -----------------------------

 -----
 titel
 -----
 Symbolic Z-matrix:
 Charge =  0 Multiplicity = 1

 SCF Done:  E(RB3LYP) =  -423.134255253     A.U. after   14 cycles
 Optimization completed.
    -- Stationary point found.
 Normal termination of Gaussian 09 at Tue Jan 28 02:55:50 2020.

 ----------------------------------------------------------------------
 #N Geom=AllCheck Guess=TCheck SCRF=Check GenChk RB3LYP/6-31G(2df,p) Fr
 eq
 ----------------------------------------------------------------------

 Structure from the checkpoint file:  "/scratch/puck/g09_0d0c6fe0-ca23-4246-9232-116e1ae2b7f4/Gau-65431.chk"
 -----
 titel
 -----
 Charge =  0 Multiplicity = 1

                         Standard orientation:
 ---------------------------------------------------------------------
 Center     Atomic      Atomic             Coordinates (Angstroms)
 Number     Number       Type             X           Y           Z
 ---------------------------------------------------------------------
      1          6           0        1.066797    1.890457    0.428586
      2          6           0        0.861104    0.452582    0.073889
      3          8           0        2.002131   -0.325573   -0.458974
      4          6           0        0.875223   -1.262831   -0.438155
      5          6           0        0.429257   -0.762148    0.962268
      6          6           0       -1.089351   -0.824266    1.054913
      7          6           0       -1.471949   -0.341806   -0.382711
      8          8           0       -2.116463    0.926821   -0.407057
      9          6           0       -0.090505   -0.181474   -0.992779
     10          1           0        1.791828    1.992735    1.241950
     11          1           0        1.437279    2.445587   -0.438656
     12          1           0        0.114357    2.330288    0.736716
     13          1           0        1.052624   -2.279855   -0.789640
     14          1           0        1.050894   -1.014001    1.821181
     15          1           0       -1.452766   -1.834345    1.271987
     16          1           0       -1.500611   -0.145951    1.809357
     17          1           0       -2.078568   -1.086977   -0.916833
     18          1           0       -2.988686    0.827178   -0.012725
     19          1           0        0.004848    0.132273   -2.031163
 ---------------------------------------------------------------------

 SCF Done:  E(RB3LYP) =  -423.134255253     A.U. after    1 cycles

 The electronic state is 1-A.
 Alpha  occ. eigenvalues --  -19.14009 -19.12011 -10.24299 -10.23961 -10.23504
 Alpha  occ. eigenvalues --  -10.19130 -10.18701 -10.18406 -10.17576  -1.04967
 Alpha  occ. eigenvalues --   -1.02035  -0.84006  -0.73933  -0.70513  -0.69231
 Alpha  occ. eigenvalues --   -0.60889  -0.58139  -0.52629  -0.50848  -0.48149
 Alpha  occ. eigenvalues --   -0.46693  -0.44188  -0.42000  -0.41560  -0.39176
 Alpha  occ. eigenvalues --   -0.37740  -0.36391  -0.35891  -0.33752  -0.31304
 Alpha  occ. eigenvalues --   -0.30518  -0.29461  -0.26913  -0.22369
 Alpha virt. eigenvalues --    0.06875   0.09466   0.11632   0.11958   0.12653
 Alpha virt. eigenvalues --    0.13987   0.14223   0.15547   0.15747   0.16805
 Alpha virt. eigenvalues --    0.17419   0.17804   0.18729   0.19758   0.20889

 Mulliken charges:
               1
     1  C   -0.523696
     2  C    0.439043
     3  O   -0.355188
     4  C    0.032883
     5  C   -0.073607
     6  C   -0.287324
     7  C    0.089430
     8  O   -0.437834
     9  C   -0.072202
    10  H    0.125730
    11  H    0.133220
    12  H    0.139903
    13  H    0.086295
    14  H    0.074192
    15  H    0.098956
    16  H    0.100519
    17  H    0.066930
    18  H    0.283657
    19  H    0.079093
 Sum of Mulliken charges =   0.00000

 Dipole moment (field-independent basis, Debye):
    X=             -2.5397    Y=             -0.8131    Z=              1.1150  Tot=              2.8905
 Quadrupole moment (field-independent basis, Debye-Ang):
   XX=            -53.6089   YY=            -51.3457   ZZ=            -52.5743
   XY=              2.0674   XZ=             -0.1889   YZ=              1.4428

  Exact polarizability:  77.855   1.225  76.519  -0.556   0.688  69.114
 Approx polarizability: 112.604  -0.446 111.853  -2.071   1.054 104.586

                      1                      2                      3
                      A                      A                      A
 Frequencies --    115.0512               189.4206               200.9051
 Red. masses --      3.7697                 1.0724                 2.4564
 Frc consts  --      0.0294                 0.0227                 0.0584
 IR Inten    --      1.7106                 0.1114                 1.9993

                      4                      5                      6
                      A                      A                      A
 Frequencies --    286.2483               296.6293               352.6998
 Red. masses --      2.8175                 1.0861                 3.2134
 Frc consts  --      0.1360                 0.0563                 0.2355
 IR Inten    --      3.0504                95.2872                 2.9518

                      7                      8                      9
                      A                      A                      A
 Frequencies --    413.4727               483.5548               516.6572
 Red. masses --      2.6341                 4.9297                 3.8327
 Frc consts  --      0.2653                 0.6792                 0.6028
 IR Inten    --      9.8876                 9.8098                 2.3532

                     10                     11                     12
                      A                      A                      A
 Frequencies --    630.6230               674.5015               714.4337
 Red. masses --      3.5112                 4.1736                 3.8402
 Frc consts  --      0.8227                 1.1187                 1.1549
 IR Inten    --      1.7709                 8.3581                 1.4980

                     13                     14                     15
                      A                      A                      A
 Frequencies --    754.8669               800.1127               855.8721
 Red. masses --      3.9392                 2.7977                 2.8568
 Frc consts  --      1.3225                 1.0552                 1.2330
 IR Inten    --     15.7984                 3.8167                 4.2917

                     16                     17                     18
                      A                      A                      A
 Frequencies --    890.7591               908.1265               930.3622
 Red. masses --      2.5598                 1.9530                 3.8821
 Frc consts  --      1.1967                 0.9489                 1.9798
 IR Inten    --     25.6010                 0.8291                11.6768

                     19                     20                     21
                      A                      A                      A
 Frequencies --    971.6937               980.6369              1018.2652
 Red. masses --      1.5006                 1.7068                 1.9848
 Frc consts  --      0.8348                 0.9671                 1.2125
 IR Inten    --      8.5458                 1.9738                16.9880

                     22                     23                     24
                      A                      A                      A
 Frequencies --   1021.1262              1040.2766              1082.3128
 Red. masses --      1.9145                 1.8065                 1.6984
 Frc consts  --      1.1761                 1.1518                 1.1722
 IR Inten    --     15.2018                 1.9245                18.1573

                     25                     26                     27
                      A                      A                      A
 Frequencies --   1106.3417              1159.6634              1161.9931
 Red. masses --      2.2545                 1.6338                 1.6424
 Frc consts  --      1.6258                 1.2945                 1.3066
 IR Inten    --     19.4362                 8.5525                14.1942

                     28                     29                     30
                      A                      A                      A
 Frequencies --   1206.3220              1218.1535              1237.1514
 Red. masses --      1.4315                 1.8633                 1.3744
 Frc consts  --      1.2273                 1.6291                 1.2394
 IR Inten    --      8.9824                11.5412                33.5336

                     31                     32                     33
                      A                      A                      A
 Frequencies --   1239.1140              1261.0750              1273.4370
 Red. masses --      1.5679                 1.9123                 1.8360
 Frc consts  --      1.4183                 1.7918                 1.7542
 IR Inten    --     21.4039                 4.4061                 2.8228

                     34                     35                     36
                      A                      A                      A
 Frequencies --   1300.7962              1339.0646              1389.2561
 Red. masses --      1.8431                 1.4210                 1.3932
 Frc consts  --      1.8374                 1.5012                 1.5842
 IR Inten    --     28.4025                23.2695                 2.8345

                     37                     38                     39
                      A                      A                      A
 Frequencies --   1421.0949              1429.8064              1477.3622
 Red. masses --      2.1830                 1.7581                 1.0554
 Frc consts  --      2.5975                 2.1177                 1.3572
 IR Inten    --      7.2291                14.9021                 4.7419

                     40                     41                     42
                      A                      A                      A
 Frequencies --   1485.0285              1490.3306              2994.5455
 Red. masses --      1.0921                 1.0534                 1.0845
 Frc consts  --      1.4191                 1.3785                 5.7301
 IR Inten    --      0.8154                 3.8601                56.4112

                     43                     44                     45
                      A                      A                      A
 Frequencies --   3040.8455              3043.1767              3087.8391
 Red. masses --      1.0355                 1.0588                 1.1054
 Frc consts  --      5.6412                 5.7772                 6.2098
 IR Inten    --     23.0332                33.3091                22.5057

                     46                     47                     48
                      A                      A                      A
 Frequencies --   3109.0439              3111.6679              3125.9881
 Red. masses --      1.0897                 1.1017                 1.1003
 Frc consts  --      6.2062                 6.2849                 6.3346
 IR Inten    --     50.5818                12.5513                 7.6320

                     49                     50                     51
                      A                      A                      A
 Frequencies --   3127.7702              3140.8748              3816.4859
 Red. masses --      1.0905                 1.0916                 1.0663
 Frc consts  --      6.2855                 6.3447                 9.1507
 IR Inten    --     43.2038                19.0132                18.9232

 - Thermochemistry -
 -------------------
 Temperature   298.150 Kelvin.  Pressure   1.00000 Atm.
 Atom     1 has atomic number  6 and mass  12.00000

 Molecular mass:   126.06808 amu.
 Principal axes and moments of inertia in atomic units:
                           1         2         3
     Eigenvalues --   672.519031072.962571282.92835
           X            0.99833   0.05773   0.00123
           Y           -0.05775   0.99812   0.02060
           Z           -0.00004  -0.02064   0.99979
 This molecule is an asymmetric top.
 Rotational symmetry number  1.
 Warning -- assumption of classical behavior for rotation
           may cause significant error
 Rotational temperatures (Kelvin)      0.12879     0.08072     0.06751
 Rotational constants (GHZ):           2.68355     1.68202     1.40674
 Zero-point vibrational energy     418231.4 (Joules/Mol)
                                   99.95971 (Kcal/Mol)
 Warning -- explicit consideration of   9 degrees of freedom as
           vibrations may cause significant error
 Vibrational temperatures:    165.53   272.53   289.06   411.85   426.78
          (Kelvin)            507.46   594.89   695.73   743.35   907.32
                              970.46  1027.91  1086.08  1151.18  1231.41
                             1281.60  1306.59  1338.58  1398.05  1410.92
                             1465.05  1469.17  1496.72  1557.20  1591.78
                             1668.49  1671.85  1735.63  1752.65  1779.98
                             1782.81  1814.40  1832.19  1871.55  1926.61
                             1998.83  2044.64  2057.17  2125.59  2136.62
                             2144.25  4308.48  4375.09  4378.45  4442.71
                             4473.22  4476.99  4497.59  4500.16  4519.01
                             5491.07

 Zero-point correction=                           0.159296 (Hartree/Particle)
 Thermal correction to Energy=                    0.167117
 Thermal correction to Enthalpy=                  0.168061
 Thermal correction to Gibbs Free Energy=         0.127356
 Sum of electronic and zero-point Energies=           -422.974959
 Sum of electronic and thermal Energies=              -422.967138
 Sum of electronic and thermal Enthalpies=            -422.966194
 Sum of electronic and thermal Free Energies=         -423.006899

                     E (Thermal)             CV                S
                      KCal/Mol        Cal/Mol-Kelvin    Cal/Mol-Kelvin
 Total                  104.867             31.329             85.671
 Electronic               0.000              0.000              0.000
 Translational            0.889              2.981             40.409
 Rotational               0.889              2.981             28.317
 Vibrational            103.090             25.367             16.945
 Vibration     1          0.608              1.937              3.182
 Vibration     2          0.633              1.854              2.233
 Vibration     3          0.638              1.839              2.125
 Vibration     4          0.684              1.699              1.496
 Vibration     5          0.690              1.680              1.436
 Vibration     6          0.729              1.570              1.154
 Vibration     7          0.777              1.441              0.914
 Vibration     8          0.840              1.287              0.701
 Vibration     9          0.872              1.213              0.618

 Optimization completed.
    -- Stationary point found.
 Normal termination of Gaussian 09 at Tue Jan 28 03:59:02 2020.
