 Gaussian 09, Revision D.01,
 Gaussian 09:  ES64L-G09RevD.01 24-Apr-2013

 -----------------------------
 # b3lyp 6-31G(2df,p) opt Freq
 -----------------------------

 -----
 titel
 -----
 Symbolic Z-matrix:
 Charge =  0 Multiplicity = 1

 SCF Done:  E(RB3LYP) =  -423.153625989     A.U. after   14 cycles
 Optimization completed.
    -- Stationary point found.
 Normal termination of Gaussian 09 at Tue Jan 28 14:11:54 2020.

 ----------------------------------------------------------------------
 #N Geom=AllCheck Guess=TCheck SCRF=Check GenChk RB3LYP/6-31G(2df,p) Fr
 eq
 ----------------------------------------------------------------------

 Structure from the checkpoint file:  "/scratch/puck/g09_6ce6abcd-5d0f-4b32-aa91-a6824da9e5b1/Gau-111613.chk"
 -----
 titel
 -----
 Charge =  0 Multiplicity = 1

                         Standard orientation:
 ---------------------------------------------------------------------
 Center     Atomic      Atomic             Coordinates (Angstroms)
 Number     Number       Type             X           Y           Z
 ---------------------------------------------------------------------
      1          6           0        2.659217   -0.664132   -0.602745
      2          6           0        1.613463   -0.898928    0.492653
      3          6           0        0.198324   -0.944592   -0.048056
      4          6           0       -0.946115   -0.680875    0.885924
      5          6           0       -2.270786   -0.818321    0.144656
      6          8           0       -1.822157    0.063991   -0.921310
      7          6           0       -0.607262    0.333205   -0.215224
      8          6           0       -0.139710    1.725358   -0.151433
      9          8           0        0.805656    2.119068    0.493932
     10          1           0        2.595747   -1.428638   -1.384974
     11          1           0        2.520497    0.314018   -1.071626
     12          1           0        3.670465   -0.695083   -0.186536
     13          1           0        1.814633   -1.851577    0.999830
     14          1           0        1.691673   -0.109415    1.244530
     15          1           0        0.028326   -1.663882   -0.849527
     16          1           0       -0.813412   -0.560320    1.953067
     17          1           0       -2.535907   -1.814536   -0.227018
     18          1           0       -3.122669   -0.378065    0.674181
     19          1           0       -0.760129    2.412736   -0.767564
 ---------------------------------------------------------------------

 SCF Done:  E(RB3LYP) =  -423.153625989     A.U. after    1 cycles

 The electronic state is 1-A.
 Alpha  occ. eigenvalues --  -19.15252 -19.13847 -10.27382 -10.25406 -10.24964
 Alpha  occ. eigenvalues --  -10.21673 -10.21231 -10.18871 -10.17420  -1.06846
 Alpha  occ. eigenvalues --   -1.04302  -0.85715  -0.76143  -0.72942  -0.66422
 Alpha  occ. eigenvalues --   -0.62713  -0.58185  -0.53557  -0.51415  -0.49249
 Alpha  occ. eigenvalues --   -0.47158  -0.45338  -0.43516  -0.42490  -0.41032
 Alpha  occ. eigenvalues --   -0.39544  -0.38474  -0.35508  -0.34863  -0.34756
 Alpha  occ. eigenvalues --   -0.32615  -0.29232  -0.25837  -0.24148
 Alpha virt. eigenvalues --   -0.03589   0.07237   0.10569   0.11024   0.11406
 Alpha virt. eigenvalues --    0.11862   0.13709   0.14586   0.15063   0.16111
 Alpha virt. eigenvalues --    0.17580   0.17886   0.18789   0.20836   0.21326

 Mulliken charges:
               1
     1  C   -0.379889
     2  C   -0.217797
     3  C   -0.059220
     4  C   -0.184668
     5  C   -0.104413
     6  O   -0.320059
     7  C    0.345500
     8  C    0.065809
     9  O   -0.273770
    10  H    0.111704
    11  H    0.131398
    12  H    0.116081
    13  H    0.099131
    14  H    0.128331
    15  H    0.097153
    16  H    0.119946
    17  H    0.113518
    18  H    0.117880
    19  H    0.093365
 Sum of Mulliken charges =   0.00000

 Dipole moment (field-independent basis, Debye):
    X=             -1.0557    Y=             -2.2100    Z=              0.6334  Tot=              2.5298
 Quadrupole moment (field-independent basis, Debye-Ang):
   XX=            -52.7539   YY=            -55.3403   ZZ=            -53.8521
   XY=             -1.9156   XZ=             -3.7602   YZ=             -2.0945

  Exact polarizability:  89.185   2.640  80.320   0.854  -2.283  63.429
 Approx polarizability: 119.446   8.790 121.889   6.267  -3.388 102.246

                      1                      2                      3
                      A                      A                      A
 Frequencies --     84.4707               118.8605               162.1112
 Red. masses --      3.0153                 2.9601                 2.6589
 Frc consts  --      0.0127                 0.0246                 0.0412
 IR Inten    --      2.6194                 3.7010                 3.2625

                      4                      5                      6
                      A                      A                      A
 Frequencies --    178.7748               206.1145               225.1117
 Red. masses --      2.0479                 2.1020                 2.2967
 Frc consts  --      0.0386                 0.0526                 0.0686
 IR Inten    --      2.2454                 6.1603                 4.2852

                      7                      8                      9
                      A                      A                      A
 Frequencies --    294.9378               384.9039               388.6535
 Red. masses --      1.8583                 3.5520                 3.4791
 Frc consts  --      0.0952                 0.3100                 0.3096
 IR Inten    --      0.0890                 0.0701                 5.8365

                     10                     11                     12
                      A                      A                      A
 Frequencies --    457.7746               542.0377               719.4616
 Red. masses --      2.9901                 5.7779                 2.2851
 Frc consts  --      0.3692                 1.0002                 0.6969
 IR Inten    --      0.3452                 3.6754                16.9955

                     13                     14                     15
                      A                      A                      A
 Frequencies --    739.7560               760.6367               833.6194
 Red. masses --      2.5620                 4.3552                 1.6316
 Frc consts  --      0.8260                 1.4846                 0.6680
 IR Inten    --      1.6385                28.4878                 0.1909

                     16                     17                     18
                      A                      A                      A
 Frequencies --    901.9399               947.1872               964.5021
 Red. masses --      1.7731                 2.1334                 1.6542
 Frc consts  --      0.8498                 1.1277                 0.9066
 IR Inten    --      4.4735                20.0215                 5.7506

                     19                     20                     21
                      A                      A                      A
 Frequencies --    991.6034              1008.0006              1020.7498
 Red. masses --      4.8059                 1.5744                 2.2627
 Frc consts  --      2.7842                 0.9425                 1.3890
 IR Inten    --     28.8810                 4.3481                37.3709

                     22                     23                     24
                      A                      A                      A
 Frequencies --   1049.5272              1065.5384              1100.4225
 Red. masses --      1.7214                 2.4386                 2.7196
 Frc consts  --      1.1172                 1.6312                 1.9403
 IR Inten    --     25.4023                39.6551                23.4370

                     25                     26                     27
                      A                      A                      A
 Frequencies --   1119.7787              1144.6947              1166.9715
 Red. masses --      1.9854                 1.3841                 2.0429
 Frc consts  --      1.4668                 1.0686                 1.6391
 IR Inten    --      1.2349                 3.4150                30.1273

                     28                     29                     30
                      A                      A                      A
 Frequencies --   1177.1189              1248.4258              1304.1539
 Red. masses --      1.3670                 1.5929                 1.3176
 Frc consts  --      1.1160                 1.4627                 1.3203
 IR Inten    --      2.2603                13.4632                 2.1524

                     31                     32                     33
                      A                      A                      A
 Frequencies --   1324.7365              1338.3047              1370.3892
 Red. masses --      1.5561                 1.4101                 1.6322
 Frc consts  --      1.6089                 1.4880                 1.8060
 IR Inten    --      5.2622                 9.4962                16.2145

                     34                     35                     36
                      A                      A                      A
 Frequencies --   1414.1112              1417.7615              1431.8803
 Red. masses --      1.2535                 1.4019                 2.5171
 Frc consts  --      1.4769                 1.6602                 3.0406
 IR Inten    --      3.7583                17.0317                21.2085

                     37                     38                     39
                      A                      A                      A
 Frequencies --   1478.4970              1499.7445              1504.2527
 Red. masses --      1.0759                 1.0477                 1.0577
 Frc consts  --      1.3857                 1.3884                 1.4101
 IR Inten    --      5.0314                 4.7393                 3.7472

                     40                     41                     42
                      A                      A                      A
 Frequencies --   1516.5462              1794.4388              2896.9423
 Red. masses --      1.1137                 9.9789                 1.0827
 Frc consts  --      1.5092                18.9317                 5.3536
 IR Inten    --      1.6997               153.3518               105.8889

                     43                     44                     45
                      A                      A                      A
 Frequencies --   3024.5449              3029.9956              3037.2599
 Red. masses --      1.0687                 1.0548                 1.0367
 Frc consts  --      5.7603                 5.7055                 5.6346
 IR Inten    --     29.6014                75.9845                22.6300

                     46                     47                     48
                      A                      A                      A
 Frequencies --   3080.8452              3090.8093              3103.1994
 Red. masses --      1.1118                 1.0922                 1.0932
 Frc consts  --      6.2177                 6.1473                 6.2027
 IR Inten    --     29.8763                 6.2745                 4.0798

                     49                     50                     51
                      A                      A                      A
 Frequencies --   3113.4591              3120.6390              3204.8346
 Red. masses --      1.0947                 1.1013                 1.0934
 Frc consts  --      6.2519                 6.3189                 6.6168
 IR Inten    --     29.5726                30.5504                 4.5040

 - Thermochemistry -
 -------------------
 Temperature   298.150 Kelvin.  Pressure   1.00000 Atm.
 Atom     1 has atomic number  6 and mass  12.00000

 Molecular mass:   126.06808 amu.
 Principal axes and moments of inertia in atomic units:
                           1         2         3
     Eigenvalues --   760.239451265.813101693.86373
           X            0.99918  -0.03470  -0.02102
           Y            0.03444   0.99933  -0.01241
           Z            0.02143   0.01167   0.99970
 This molecule is an asymmetric top.
 Rotational symmetry number  1.
 Warning -- assumption of classical behavior for rotation
           may cause significant error
 Rotational temperatures (Kelvin)      0.11393     0.06843     0.05113
 Rotational constants (GHZ):           2.37391     1.42576     1.06546
 Zero-point vibrational energy     413315.9 (Joules/Mol)
                                   98.78488 (Kcal/Mol)
 Warning -- explicit consideration of  11 degrees of freedom as
           vibrations may cause significant error
 Vibrational temperatures:    121.53   171.01   233.24   257.22   296.55
          (Kelvin)            323.89   424.35   553.79   559.19   658.63
                              779.87  1035.14  1064.34  1094.39  1199.39
                             1297.69  1362.79  1387.70  1426.69  1450.29
                             1468.63  1510.03  1533.07  1583.26  1611.11
                             1646.96  1679.01  1693.61  1796.20  1876.38
                             1906.00  1925.52  1971.68  2034.59  2039.84
                             2060.15  2127.22  2157.80  2164.28  2181.97
                             2581.79  4168.05  4351.64  4359.48  4369.93
                             4432.64  4446.98  4464.81  4479.57  4489.90
                             4611.04

 Zero-point correction=                           0.157424 (Hartree/Particle)
 Thermal correction to Energy=                    0.166406
 Thermal correction to Enthalpy=                  0.167350
 Thermal correction to Gibbs Free Energy=         0.123589
 Sum of electronic and zero-point Energies=           -422.996202
 Sum of electronic and thermal Energies=              -422.987220
 Sum of electronic and thermal Enthalpies=            -422.986276
 Sum of electronic and thermal Free Energies=         -423.030037

                     E (Thermal)             CV                S
                      KCal/Mol        Cal/Mol-Kelvin    Cal/Mol-Kelvin
 Total                  104.421             32.953             92.103
 Electronic               0.000              0.000              0.000
 Translational            0.889              2.981             40.409
 Rotational               0.889              2.981             28.879
 Vibrational            102.644             26.991             22.816
 Vibration     1          0.601              1.960              3.784
 Vibration     2          0.609              1.934              3.119
 Vibration     3          0.622              1.889              2.525
 Vibration     4          0.629              1.868              2.341
 Vibration     5          0.641              1.831              2.078
 Vibration     6          0.650              1.803              1.918
 Vibration     7          0.689              1.683              1.445
 Vibration     8          0.754              1.502              1.020
 Vibration     9          0.757              1.494              1.005
 Vibration    10          0.816              1.344              0.773
 Vibration    11          0.897              1.157              0.561

 Normal termination of Gaussian 09 at Tue Jan 28 14:52:39 2020.
