 Gaussian 09, Revision D.01,
 Gaussian 09:  ES64L-G09RevD.01 24-Apr-2013

 -----------------------------
 # b3lyp 6-31G(2df,p) opt Freq
 -----------------------------

 -----
 titel
 -----
 Symbolic Z-matrix:
 Charge =  0 Multiplicity = 1

 SCF Done:  E(RB3LYP) =  -423.162710431     A.U. after   14 cycles
 Optimization completed.
    -- Stationary point found.
 Normal termination of Gaussian 09 at Tue Jan 28 14:09:12 2020.

 ----------------------------------------------------------------------
 #N Geom=AllCheck Guess=TCheck SCRF=Check GenChk RB3LYP/6-31G(2df,p) Fr
 eq
 ----------------------------------------------------------------------

 Structure from the checkpoint file:  "/scratch/puck/g09_903937c3-83a7-4bf5-aa96-c63267702220/Gau-3934.chk"
 -----
 titel
 -----
 Charge =  0 Multiplicity = 1

                         Standard orientation:
 ---------------------------------------------------------------------
 Center     Atomic      Atomic             Coordinates (Angstroms)
 Number     Number       Type             X           Y           Z
 ---------------------------------------------------------------------
      1          6           0        3.514362   -0.366257   -0.127938
      2          8           0        2.224289   -0.170809    0.402116
      3          6           0        1.257555    0.090838   -0.594801
      4          6           0       -0.080296    0.212728    0.061367
      5          6           0       -0.607672    1.469620    0.651242
      6          6           0       -1.360483    0.868004   -0.533457
      7          6           0       -2.142386   -0.324453   -0.068558
      8          8           0       -3.249930   -0.723410   -0.291386
      9          6           0       -0.901689   -0.971021    0.605005
     10          1           0        3.876059    0.525854   -0.663844
     11          1           0        4.184305   -0.569870    0.710563
     12          1           0        3.545530   -1.219168   -0.824533
     13          1           0        1.500419    1.020649   -1.138181
     14          1           0        1.246464   -0.725558   -1.337890
     15          1           0       -1.057447    1.471491    1.639988
     16          1           0       -0.070601    2.380436    0.405089
     17          1           0       -1.508180    1.429099   -1.448452
     18          1           0       -0.913373   -1.108199    1.689501
     19          1           0       -0.674385   -1.927740    0.124752
 ---------------------------------------------------------------------

 SCF Done:  E(RB3LYP) =  -423.162710431     A.U. after    1 cycles

 The electronic state is 1-A.
 Alpha  occ. eigenvalues --  -19.14764 -19.12767 -10.26839 -10.24257 -10.23064
 Alpha  occ. eigenvalues --  -10.21909 -10.20885 -10.20711 -10.19395  -1.04128
 Alpha  occ. eigenvalues --   -1.03851  -0.91277  -0.74478  -0.73024  -0.66053
 Alpha  occ. eigenvalues --   -0.63943  -0.56427  -0.53576  -0.49669  -0.48957
 Alpha  occ. eigenvalues --   -0.48833  -0.46219  -0.44949  -0.42646  -0.41007
 Alpha  occ. eigenvalues --   -0.40319  -0.39582  -0.37408  -0.35317  -0.32775
 Alpha  occ. eigenvalues --   -0.30796  -0.28470  -0.26386  -0.24062
 Alpha virt. eigenvalues --   -0.00860   0.06887   0.10333   0.10444   0.11149
 Alpha virt. eigenvalues --    0.12843   0.14042   0.14524   0.14980   0.15849
 Alpha virt. eigenvalues --    0.16200   0.17244   0.17613   0.19851   0.21290

 Mulliken charges:
               1
     1  C   -0.222360
     2  O   -0.234296
     3  C   -0.183149
     4  C    0.359981
     5  C   -0.316099
     6  C   -0.236168
     7  C    0.428383
     8  O   -0.317537
     9  C   -0.412712
    10  H    0.104453
    11  H    0.130729
    12  H    0.105677
    13  H    0.087346
    14  H    0.090460
    15  H    0.124406
    16  H    0.126877
    17  H    0.109588
    18  H    0.123664
    19  H    0.130757
 Sum of Mulliken charges =   0.00000

 Dipole moment (field-independent basis, Debye):
    X=              3.3827    Y=              1.1569    Z=             -0.5804  Tot=              3.6218
 Quadrupole moment (field-independent basis, Debye-Ang):
   XX=            -62.7731   YY=            -51.4659   ZZ=            -51.8839
   XY=             -3.8272   XZ=             -3.8874   YZ=             -0.5264

  Exact polarizability:  95.652   1.828  73.843   2.247  -1.342  64.998
 Approx polarizability: 128.167   5.774 109.442   7.218  -1.331 101.070

                      1                      2                      3
                      A                      A                      A
 Frequencies --     58.0169                91.3225                95.4400
 Red. masses --      3.7569                 3.6706                 2.4498
 Frc consts  --      0.0075                 0.0180                 0.0131
 IR Inten    --      1.0891                 2.0839                 4.4619

                      4                      5                      6
                      A                      A                      A
 Frequencies --    171.5197               230.3978               328.2316
 Red. masses --      3.7406                 1.2681                 2.4264
 Frc consts  --      0.0648                 0.0397                 0.1540
 IR Inten    --      3.6153                 2.4499                 2.4725

                      7                      8                      9
                      A                      A                      A
 Frequencies --    342.9772               371.1531               410.6545
 Red. masses --      3.4451                 2.8571                 2.1058
 Frc consts  --      0.2388                 0.2319                 0.2092
 IR Inten    --      0.9167                 0.5072                 1.4409

                     10                     11                     12
                      A                      A                      A
 Frequencies --    466.2515               551.7690               634.3948
 Red. masses --      3.7748                 2.7595                 3.3707
 Frc consts  --      0.4835                 0.4950                 0.7993
 IR Inten    --      0.6855                 2.1109                 0.5572

                     13                     14                     15
                      A                      A                      A
 Frequencies --    739.7068               782.1774               848.0916
 Red. masses --      2.7540                 2.7078                 4.4647
 Frc consts  --      0.8878                 0.9761                 1.8920
 IR Inten    --      0.2740                33.0319                 3.4626

                     16                     17                     18
                      A                      A                      A
 Frequencies --    919.0822               946.7872               961.1917
 Red. masses --      1.5061                 1.6678                 2.4062
 Frc consts  --      0.7496                 0.8808                 1.3098
 IR Inten    --     16.8000                 9.9603                 3.3104

                     19                     20                     21
                      A                      A                      A
 Frequencies --    982.3683               998.1467              1015.7754
 Red. masses --      2.0125                 2.2701                 1.5229
 Frc consts  --      1.1443                 1.3325                 0.9258
 IR Inten    --     21.8039                14.2811                 4.4533

                     22                     23                     24
                      A                      A                      A
 Frequencies --   1055.6784              1093.2546              1105.8994
 Red. masses --      2.1382                 1.4386                 1.3522
 Frc consts  --      1.4040                 1.0131                 0.9743
 IR Inten    --     21.0663                 0.7873                 0.5123

                     25                     26                     27
                      A                      A                      A
 Frequencies --   1126.5019              1150.9140              1181.0542
 Red. masses --      2.2145                 5.4781                 1.3051
 Frc consts  --      1.6557                 4.2753                 1.0726
 IR Inten    --     14.4481               177.4043                 4.5025

                     28                     29                     30
                      A                      A                      A
 Frequencies --   1207.2624              1220.7861              1230.7921
 Red. masses --      1.5201                 1.6175                 1.6097
 Frc consts  --      1.3053                 1.4203                 1.4367
 IR Inten    --     24.1331                21.3184                 5.7720

                     31                     32                     33
                      A                      A                      A
 Frequencies --   1239.3549              1316.3132              1382.0329
 Red. masses --      1.9494                 1.7768                 1.6400
 Frc consts  --      1.7641                 1.8139                 1.8455
 IR Inten    --     12.3468                 6.3085                19.7964

                     34                     35                     36
                      A                      A                      A
 Frequencies --   1436.8545              1457.3620              1481.0769
 Red. masses --      1.7073                 1.1211                 1.1707
 Frc consts  --      2.0768                 1.4029                 1.5131
 IR Inten    --     31.4417                 5.8030                 1.0041

                     37                     38                     39
                      A                      A                      A
 Frequencies --   1485.8975              1501.7052              1504.0112
 Red. masses --      1.0554                 1.3233                 1.1162
 Frc consts  --      1.3729                 1.7583                 1.4876
 IR Inten    --      4.7263                 2.1912                 4.9251

                     40                     41                     42
                      A                      A                      A
 Frequencies --   1522.4672              1883.3335              2943.6387
 Red. masses --      1.0919                12.3773                 1.0532
 Frc consts  --      1.4912                25.8660                 5.3768
 IR Inten    --      1.4640               384.4766                31.4080

                     43                     44                     45
                      A                      A                      A
 Frequencies --   2970.4274              2972.3057              3013.1578
 Red. masses --      1.0384                 1.1048                 1.1031
 Frc consts  --      5.3982                 5.7508                 5.9009
 IR Inten    --     76.6774                55.8845                53.2642

                     46                     47                     48
                      A                      A                      A
 Frequencies --   3059.2948              3113.0277              3117.8927
 Red. masses --      1.0580                 1.1066                 1.0953
 Frc consts  --      5.8344                 6.3183                 6.2736
 IR Inten    --     14.1570                 9.5698                25.8127

                     49                     50                     51
                      A                      A                      A
 Frequencies --   3118.9127              3191.6843              3205.7537
 Red. masses --      1.0553                 1.0960                 1.1138
 Frc consts  --      6.0484                 6.5784                 6.7440
 IR Inten    --     16.4890                 4.5354                 7.4745

 - Thermochemistry -
 -------------------
 Temperature   298.150 Kelvin.  Pressure   1.00000 Atm.
 Atom     1 has atomic number  6 and mass  12.00000

 Molecular mass:   126.06808 amu.
 Principal axes and moments of inertia in atomic units:
                           1         2         3
     Eigenvalues --   396.685362121.527022276.07186
           X            0.99984  -0.01152  -0.01334
           Y            0.01131   0.99982  -0.01555
           Z            0.01352   0.01540   0.99979
 This molecule is an asymmetric top.
 Rotational symmetry number  1.
 Rotational temperatures (Kelvin)      0.21834     0.04083     0.03805
 Rotational constants (GHZ):           4.54955     0.85068     0.79292
 Zero-point vibrational energy     414111.9 (Joules/Mol)
                                   98.97512 (Kcal/Mol)
 Warning -- explicit consideration of  11 degrees of freedom as
           vibrations may cause significant error
 Vibrational temperatures:     83.47   131.39   137.32   246.78   331.49
          (Kelvin)            472.25   493.47   534.01   590.84   670.83
                              793.87   912.75  1064.27  1125.38  1220.21
                             1322.35  1362.21  1382.94  1413.41  1436.11
                             1461.47  1518.88  1572.95  1591.14  1620.78
                             1655.91  1699.27  1736.98  1756.44  1770.83
                             1783.15  1893.88  1988.43  2067.31  2096.82
                             2130.94  2137.87  2160.62  2163.93  2190.49
                             2709.69  4235.23  4273.78  4276.48  4335.26
                             4401.64  4478.95  4485.95  4487.41  4592.12
                             4612.36

 Zero-point correction=                           0.157727 (Hartree/Particle)
 Thermal correction to Energy=                    0.166722
 Thermal correction to Enthalpy=                  0.167666
 Thermal correction to Gibbs Free Energy=         0.123230
 Sum of electronic and zero-point Energies=           -423.004984
 Sum of electronic and thermal Energies=              -422.995989
 Sum of electronic and thermal Enthalpies=            -422.995045
 Sum of electronic and thermal Free Energies=         -423.039480

                     E (Thermal)             CV                S
                      KCal/Mol        Cal/Mol-Kelvin    Cal/Mol-Kelvin
 Total                  104.619             32.789             93.522
 Electronic               0.000              0.000              0.000
 Translational            0.889              2.981             40.409
 Rotational               0.889              2.981             29.039
 Vibrational            102.842             26.827             24.074
 Vibration     1          0.596              1.974              4.524
 Vibration     2          0.602              1.955              3.632
 Vibration     3          0.603              1.952              3.545
 Vibration     4          0.626              1.878              2.419
 Vibration     5          0.652              1.795              1.876
 Vibration     6          0.711              1.619              1.269
 Vibration     7          0.722              1.590              1.198
 Vibration     8          0.743              1.531              1.075
 Vibration     9          0.775              1.447              0.924
 Vibration    10          0.824              1.325              0.748
 Vibration    11          0.907              1.136              0.541

 Optimization completed.
    -- Stationary point found.
 Normal termination of Gaussian 09 at Tue Jan 28 14:54:59 2020.
