 Gaussian 09, Revision D.01,
 Gaussian 09:  ES64L-G09RevD.01 24-Apr-2013

 -----------------------------
 # b3lyp 6-31G(2df,p) opt Freq
 -----------------------------

 -----
 titel
 -----
 Symbolic Z-matrix:
 Charge =  0 Multiplicity = 1

 SCF Done:  E(RB3LYP) =  -423.160948721     A.U. after   14 cycles
 Optimization completed.
    -- Stationary point found.
 Normal termination of Gaussian 09 at Mon Jan 27 22:01:07 2020.

 ----------------------------------------------------------------------
 #N Geom=AllCheck Guess=TCheck SCRF=Check GenChk RB3LYP/6-31G(2df,p) Fr
 eq
 ----------------------------------------------------------------------

 Structure from the checkpoint file:  "/scratch/puck/g09_e91ff06d-3602-485c-89e2-e2d2c3a8f8e6/Gau-179142.chk"
 -----
 titel
 -----
 Charge =  0 Multiplicity = 1

                         Standard orientation:
 ---------------------------------------------------------------------
 Center     Atomic      Atomic             Coordinates (Angstroms)
 Number     Number       Type             X           Y           Z
 ---------------------------------------------------------------------
      1          6           0       -0.438566    2.229131    0.234396
      2          6           0       -0.176723    0.838451   -0.327133
      3          6           0        0.856275   -0.106848    0.416017
      4          6           0        2.052213   -0.420314   -0.438237
      5          8           0        3.198423   -0.225506   -0.123006
      6          6           0       -0.220686   -1.206429    0.438558
      7          6           0       -1.415906   -0.714111    1.224798
      8          6           0       -1.234154   -0.266112   -0.196606
      9          8           0       -2.147078   -0.560854   -1.192806
     10          1           0        0.456986    2.855424    0.168164
     11          1           0       -1.235315    2.729070   -0.327658
     12          1           0       -0.741220    2.191398    1.285671
     13          1           0        0.107539    0.909019   -1.383557
     14          1           0        1.193436    0.246719    1.394488
     15          1           0        1.795980   -0.852791   -1.435125
     16          1           0       -0.047670   -2.260889    0.262900
     17          1           0       -2.197000   -1.457627    1.350036
     18          1           0       -1.289392   -0.043030    2.071200
     19          1           0       -2.988833   -0.149026   -0.970375
 ---------------------------------------------------------------------

 SCF Done:  E(RB3LYP) =  -423.160948722     A.U. after    1 cycles

 The electronic state is 1-A.
 Alpha  occ. eigenvalues --  -19.15667 -19.13510 -10.26620 -10.24897 -10.20491
 Alpha  occ. eigenvalues --  -10.20328 -10.20019 -10.19737 -10.18440  -1.04372
 Alpha  occ. eigenvalues --   -1.04171  -0.90203  -0.77271  -0.72563  -0.64903
 Alpha  occ. eigenvalues --   -0.59763  -0.58959  -0.55183  -0.52646  -0.48486
 Alpha  occ. eigenvalues --   -0.45945  -0.44632  -0.43550  -0.42139  -0.40368
 Alpha  occ. eigenvalues --   -0.40058  -0.38999  -0.36769  -0.35751  -0.33573
 Alpha  occ. eigenvalues --   -0.31478  -0.27791  -0.26126  -0.24367
 Alpha virt. eigenvalues --   -0.02064   0.07019   0.08856   0.10324   0.10740
 Alpha virt. eigenvalues --    0.12626   0.13619   0.14324   0.15245   0.16370
 Alpha virt. eigenvalues --    0.16643   0.17441   0.18879   0.21042   0.22733

 Mulliken charges:
               1
     1  C   -0.423415
     2  C   -0.067183
     3  C   -0.088883
     4  C    0.151146
     5  O   -0.259757
     6  C   -0.130296
     7  C   -0.357743
     8  C    0.397609
     9  O   -0.462555
    10  H    0.128881
    11  H    0.118803
    12  H    0.118477
    13  H    0.090126
    14  H    0.086485
    15  H    0.075755
    16  H    0.103670
    17  H    0.118877
    18  H    0.110851
    19  H    0.289151
 Sum of Mulliken charges =   0.00000

 Dipole moment (field-independent basis, Debye):
    X=             -3.5587    Y=              0.6409    Z=              0.6139  Tot=              3.6677
 Quadrupole moment (field-independent basis, Debye-Ang):
   XX=            -60.1670   YY=            -51.6457   ZZ=            -54.2575
   XY=             -1.2282   XZ=             -1.9549   YZ=             -1.2130

  Exact polarizability:  89.798  -0.467  72.235  -0.810   0.186  68.187
 Approx polarizability: 130.353  -1.095 101.196   4.193   0.789 106.105

                      1                      2                      3
                      A                      A                      A
 Frequencies --     71.9203                95.4785               199.4780
 Red. masses --      4.9669                 4.8619                 2.3449
 Frc consts  --      0.0151                 0.0261                 0.0550
 IR Inten    --      4.1126                 1.2132                25.9845

                      4                      5                      6
                      A                      A                      A
 Frequencies --    211.0832               226.2098               247.2823
 Red. masses --      1.2845                 2.0588                 1.1827
 Frc consts  --      0.0337                 0.0621                 0.0426
 IR Inten    --      2.4424                 0.8227                63.9322

                      7                      8                      9
                      A                      A                      A
 Frequencies --    287.3563               386.4073               390.9666
 Red. masses --      2.3075                 2.4893                 4.1677
 Frc consts  --      0.1123                 0.2190                 0.3753
 IR Inten    --      0.2231                 0.7355                14.7474

                     10                     11                     12
                      A                      A                      A
 Frequencies --    402.0141               483.1421               529.6278
 Red. masses --      4.8621                 2.8001                 2.7328
 Frc consts  --      0.4630                 0.3851                 0.4516
 IR Inten    --      1.8279                12.1874                 8.8224

                     13                     14                     15
                      A                      A                      A
 Frequencies --    651.1246               709.1926               825.3396
 Red. masses --      3.3810                 3.5361                 2.5351
 Frc consts  --      0.8445                 1.0479                 1.0174
 IR Inten    --      2.1472                 3.7771                 6.6290

                     16                     17                     18
                      A                      A                      A
 Frequencies --    859.3235               880.5533               919.7291
 Red. masses --      2.3472                 1.7724                 1.8030
 Frc consts  --      1.0212                 0.8097                 0.8986
 IR Inten    --      6.1067                17.6556                10.6222

                     19                     20                     21
                      A                      A                      A
 Frequencies --    982.7617              1006.4303              1014.7660
 Red. masses --      1.5275                 1.7680                 1.5353
 Frc consts  --      0.8692                 1.0551                 0.9315
 IR Inten    --      2.3564                13.1924                 5.4904

                     22                     23                     24
                      A                      A                      A
 Frequencies --   1037.9412              1066.3560              1084.2221
 Red. masses --      1.6276                 1.6943                 1.6757
 Frc consts  --      1.0331                 1.1352                 1.1606
 IR Inten    --     10.2644                18.0804                 2.7386

                     25                     26                     27
                      A                      A                      A
 Frequencies --   1097.0769              1119.3014              1159.5094
 Red. masses --      1.7361                 2.8009                 2.7743
 Frc consts  --      1.2311                 2.0675                 2.1977
 IR Inten    --      1.5412                 8.7015                17.4721

                     28                     29                     30
                      A                      A                      A
 Frequencies --   1194.0163              1224.7908              1240.8368
 Red. masses --      1.6884                 1.3950                 1.4601
 Frc consts  --      1.4182                 1.2330                 1.3245
 IR Inten    --     74.5560                15.7019                 1.9977

                     31                     32                     33
                      A                      A                      A
 Frequencies --   1268.8712              1283.5241              1327.1285
 Red. masses --      1.7723                 2.1260                 1.4677
 Frc consts  --      1.6813                 2.0636                 1.5231
 IR Inten    --     56.8620                 4.7769                30.3282

                     34                     35                     36
                      A                      A                      A
 Frequencies --   1372.0336              1406.3492              1413.1317
 Red. masses --      1.6757                 1.3820                 1.6285
 Frc consts  --      1.8586                 1.6104                 1.9160
 IR Inten    --      6.4361                15.6959                20.3280

                     37                     38                     39
                      A                      A                      A
 Frequencies --   1432.5543              1493.5952              1494.6710
 Red. masses --      1.2139                 1.1979                 1.0972
 Frc consts  --      1.4678                 1.5745                 1.4442
 IR Inten    --      3.9667                 3.4967                 5.2225

                     40                     41                     42
                      A                      A                      A
 Frequencies --   1500.2994              1828.3710              2846.6477
 Red. masses --      1.1941                10.2176                 1.0814
 Frc consts  --      1.5837                20.1246                 5.1632
 IR Inten    --     19.1132               218.6334                90.0158

                     43                     44                     45
                      A                      A                      A
 Frequencies --   3030.8936              3039.9773              3075.0693
 Red. masses --      1.0358                 1.0838                 1.0859
 Frc consts  --      5.6064                 5.9011                 6.0501
 IR Inten    --     22.2628                12.0050                18.2417

                     46                     47                     48
                      A                      A                      A
 Frequencies --   3097.2017              3103.8254              3108.1879
 Red. masses --      1.1003                 1.0919                 1.0650
 Frc consts  --      6.2188                 6.1979                 6.0621
 IR Inten    --     21.7705                 9.9636                31.6162

                     49                     50                     51
                      A                      A                      A
 Frequencies --   3190.4878              3202.2500              3802.3568
 Red. masses --      1.0965                 1.1100                 1.0663
 Frc consts  --      6.5764                 6.7063                 9.0834
 IR Inten    --      4.3861                12.2078                26.9631

 - Thermochemistry -
 -------------------
 Temperature   298.150 Kelvin.  Pressure   1.00000 Atm.
 Atom     1 has atomic number  6 and mass  12.00000

 Molecular mass:   126.06808 amu.
 Principal axes and moments of inertia in atomic units:
                           1         2         3
     Eigenvalues --   696.011691534.343371766.58331
           X            0.99988  -0.00489  -0.01447
           Y            0.00496   0.99998   0.00467
           Z            0.01444  -0.00475   0.99988
 This molecule is an asymmetric top.
 Rotational symmetry number  1.
 Warning -- assumption of classical behavior for rotation
           may cause significant error
 Rotational temperatures (Kelvin)      0.12444     0.05645     0.04903
 Rotational constants (GHZ):           2.59298     1.17623     1.02160
 Zero-point vibrational energy     412243.1 (Joules/Mol)
                                   98.52846 (Kcal/Mol)
 Warning -- explicit consideration of  12 degrees of freedom as
           vibrations may cause significant error
 Vibrational temperatures:    103.48   137.37   287.00   303.70   325.47
          (Kelvin)            355.78   413.44   555.95   562.51   578.41
                              695.13   762.02   936.82  1020.37  1187.48
                             1236.37  1266.92  1323.28  1413.97  1448.03
                             1460.02  1493.36  1534.25  1559.95  1578.45
                             1610.42  1668.27  1717.92  1762.20  1785.29
                             1825.62  1846.70  1909.44  1974.05  2023.42
                             2033.18  2061.12  2148.95  2150.50  2158.59
                             2630.61  4095.69  4360.77  4373.84  4424.33
                             4456.18  4465.71  4471.98  4590.39  4607.32
                             5470.74

 Zero-point correction=                           0.157015 (Hartree/Particle)
 Thermal correction to Energy=                    0.166199
 Thermal correction to Enthalpy=                  0.167143
 Thermal correction to Gibbs Free Energy=         0.122991
 Sum of electronic and zero-point Energies=           -423.003934
 Sum of electronic and thermal Energies=              -422.994750
 Sum of electronic and thermal Enthalpies=            -422.993806
 Sum of electronic and thermal Free Energies=         -423.037958

                     E (Thermal)             CV                S
                      KCal/Mol        Cal/Mol-Kelvin    Cal/Mol-Kelvin
 Total                  104.291             34.193             92.926
 Electronic               0.000              0.000              0.000
 Translational            0.889              2.981             40.409
 Rotational               0.889              2.981             29.024
 Vibrational            102.514             28.232             23.493
 Vibration     1          0.598              1.967              4.100
 Vibration     2          0.603              1.952              3.545
 Vibration     3          0.638              1.841              2.138
 Vibration     4          0.643              1.824              2.034
 Vibration     5          0.650              1.801              1.909
 Vibration     6          0.661              1.767              1.750
 Vibration     7          0.685              1.697              1.489
 Vibration     8          0.755              1.499              1.014
 Vibration     9          0.759              1.489              0.996
 Vibration    10          0.768              1.466              0.955
 Vibration    11          0.839              1.287              0.702
 Vibration    12          0.885              1.184              0.588

 Optimization completed.
    -- Stationary point found.
 Normal termination of Gaussian 09 at Mon Jan 27 22:46:07 2020.
