 Gaussian 09, Revision D.01,
 Gaussian 09:  ES64L-G09RevD.01 24-Apr-2013

 -----------------------------
 # b3lyp 6-31G(2df,p) opt Freq
 -----------------------------

 -----
 titel
 -----
 Symbolic Z-matrix:
 Charge =  0 Multiplicity = 1

 SCF Done:  E(RB3LYP) =  -423.175406351     A.U. after   14 cycles
 Optimization completed.
    -- Stationary point found.
 Normal termination of Gaussian 09 at Mon Jan 27 17:13:48 2020.

 ----------------------------------------------------------------------
 #N Geom=AllCheck Guess=TCheck SCRF=Check GenChk RB3LYP/6-31G(2df,p) Fr
 eq
 ----------------------------------------------------------------------

 Structure from the checkpoint file:  "/scratch/puck/g09_05ab0167-ed3e-438b-ad8e-b97070a3a83d/Gau-179309.chk"
 -----
 titel
 -----
 Charge =  0 Multiplicity = 1

                         Standard orientation:
 ---------------------------------------------------------------------
 Center     Atomic      Atomic             Coordinates (Angstroms)
 Number     Number       Type             X           Y           Z
 ---------------------------------------------------------------------
      1          6           0       -0.278494    2.098762   -0.066165
      2          6           0        0.358195    0.731772   -0.027285
      3          6           0        0.963267    0.074178    1.265741
      4          6           0        1.610086   -0.846765    0.207739
      5          6           0        1.737829    0.399116   -0.694705
      6          8           0        0.483464   -1.546915   -0.362530
      7          6           0       -0.453144   -0.477803   -0.572471
      8          6           0       -1.753659   -0.746539    0.162177
      9          8           0       -2.739270   -0.065238    0.035330
     10          1           0       -0.496754    2.398687   -1.097179
     11          1           0       -1.222584    2.115096    0.485745
     12          1           0        0.389161    2.849257    0.368568
     13          1           0        1.678965    0.733902    1.759501
     14          1           0        0.292848   -0.382747    1.997494
     15          1           0        2.413207   -1.552588    0.409017
     16          1           0        2.521965    1.090389   -0.379195
     17          1           0        1.768697    0.236148   -1.774880
     18          1           0       -0.680267   -0.358131   -1.640386
     19          1           0       -1.723267   -1.629113    0.838729
 ---------------------------------------------------------------------

 SCF Done:  E(RB3LYP) =  -423.175406351     A.U. after    1 cycles

 The electronic state is 1-A.
 Alpha  occ. eigenvalues --  -19.14589 -19.14477 -10.27106 -10.24435 -10.23977
 Alpha  occ. eigenvalues --  -10.21822 -10.19331 -10.19250 -10.18254  -1.05761
 Alpha  occ. eigenvalues --   -1.04572  -0.85051  -0.76347  -0.70656  -0.67772
 Alpha  occ. eigenvalues --   -0.61317  -0.58094  -0.55115  -0.50308  -0.48463
 Alpha  occ. eigenvalues --   -0.47317  -0.45471  -0.42706  -0.41825  -0.40785
 Alpha  occ. eigenvalues --   -0.39518  -0.38468  -0.36655  -0.36189  -0.34090
 Alpha  occ. eigenvalues --   -0.32133  -0.30499  -0.26840  -0.24300
 Alpha virt. eigenvalues --   -0.03299   0.09088   0.09434   0.11380   0.12042
 Alpha virt. eigenvalues --    0.13372   0.14505   0.15011   0.15462   0.16806
 Alpha virt. eigenvalues --    0.17193   0.18000   0.19410   0.19925   0.20815

 Mulliken charges:
               1
     1  C   -0.501005
     2  C    0.277594
     3  C   -0.280677
     4  C    0.107162
     5  C   -0.274407
     6  O   -0.295503
     7  C    0.009971
     8  C    0.128142
     9  O   -0.250558
    10  H    0.124182
    11  H    0.143101
    12  H    0.116214
    13  H    0.105736
    14  H    0.102885
    15  H    0.085207
    16  H    0.103891
    17  H    0.102800
    18  H    0.102776
    19  H    0.092490
 Sum of Mulliken charges =   0.00000

 Dipole moment (field-independent basis, Debye):
    X=              2.5581    Y=              0.8215    Z=              0.3918  Tot=              2.7152
 Quadrupole moment (field-independent basis, Debye-Ang):
   XX=            -58.8769   YY=            -54.5451   ZZ=            -51.4803
   XY=              2.2851   XZ=              0.8043   YZ=             -1.0301

  Exact polarizability:  84.025  -1.185  73.376   0.358  -3.173  67.626
 Approx polarizability: 121.086  -4.958 108.748   1.942  -3.517 103.237

                      1                      2                      3
                      A                      A                      A
 Frequencies --     66.3965               151.1777               200.2269
 Red. masses --      3.7995                 3.4636                 1.6335
 Frc consts  --      0.0099                 0.0466                 0.0386
 IR Inten    --      8.9704                 3.1460                 1.7698

                      4                      5                      6
                      A                      A                      A
 Frequencies --    211.7159               299.3497               320.9392
 Red. masses --      1.4706                 2.4316                 2.6570
 Frc consts  --      0.0388                 0.1284                 0.1612
 IR Inten    --      1.7369                 0.3165                 1.9328

                      7                      8                      9
                      A                      A                      A
 Frequencies --    428.0717               467.6797               521.9804
 Red. masses --      4.2283                 3.6879                 2.3168
 Frc consts  --      0.4565                 0.4753                 0.3719
 IR Inten    --      0.1155                17.6669                 2.6898

                     10                     11                     12
                      A                      A                      A
 Frequencies --    531.9655               616.8992               682.2038
 Red. masses --      2.1131                 4.2117                 3.5411
 Frc consts  --      0.3523                 0.9444                 0.9710
 IR Inten    --      4.7089                 2.7316                 1.1715

                     13                     14                     15
                      A                      A                      A
 Frequencies --    809.8635               822.3979               859.7452
 Red. masses --      3.2386                 2.5506                 2.0388
 Frc consts  --      1.2515                 1.0164                 0.8879
 IR Inten    --      4.0639                 2.1085                 1.5653

                     16                     17                     18
                      A                      A                      A
 Frequencies --    909.8656               928.7687               957.5974
 Red. masses --      3.7671                 2.5491                 1.9532
 Frc consts  --      1.8374                 1.2955                 1.0552
 IR Inten    --     28.3422                13.4871                 9.8794

                     19                     20                     21
                      A                      A                      A
 Frequencies --    965.6698              1008.5821              1015.2932
 Red. masses --      1.4402                 1.7993                 2.5300
 Frc consts  --      0.7913                 1.0784                 1.5366
 IR Inten    --      1.5717                12.6965                52.1167

                     22                     23                     24
                      A                      A                      A
 Frequencies --   1030.9516              1053.7938              1097.4830
 Red. masses --      1.2225                 1.6372                 2.8192
 Frc consts  --      0.7655                 1.0712                 2.0007
 IR Inten    --      8.3799                 6.1899                 6.5287

                     25                     26                     27
                      A                      A                      A
 Frequencies --   1117.4867              1126.6403              1188.9891
 Red. masses --      1.9647                 1.5343                 1.5746
 Frc consts  --      1.4455                 1.1475                 1.3115
 IR Inten    --      2.3462                20.9148                 0.7086

                     28                     29                     30
                      A                      A                      A
 Frequencies --   1221.9728              1233.1076              1245.0387
 Red. masses --      1.8570                 1.5137                 1.9859
 Frc consts  --      1.6338                 1.3561                 1.8137
 IR Inten    --      4.0103                 3.7469                 7.0794

                     31                     32                     33
                      A                      A                      A
 Frequencies --   1252.7814              1308.1413              1320.2394
 Red. masses --      1.7070                 1.9437                 1.5217
 Frc consts  --      1.5785                 1.9597                 1.5628
 IR Inten    --      1.2062                24.8208                 3.8926

                     34                     35                     36
                      A                      A                      A
 Frequencies --   1332.5078              1395.7167              1421.1213
 Red. masses --      1.6502                 1.2679                 1.3165
 Frc consts  --      1.7263                 1.4552                 1.5665
 IR Inten    --      4.0611                 3.4763                 4.6342

                     37                     38                     39
                      A                      A                      A
 Frequencies --   1475.5690              1490.2765              1491.6780
 Red. masses --      1.1030                 1.0472                 1.0494
 Frc consts  --      1.4149                 1.3704                 1.3758
 IR Inten    --      2.7533                 5.3667                 3.3974

                     40                     41                     42
                      A                      A                      A
 Frequencies --   1513.4390              1824.2667              2892.6841
 Red. masses --      1.1413                10.7867                 1.0843
 Frc consts  --      1.5402                21.1503                 5.3458
 IR Inten    --      2.7119               136.7360                82.9296

                     43                     44                     45
                      A                      A                      A
 Frequencies --   3019.2195              3034.7839              3063.6899
 Red. masses --      1.0836                 1.0368                 1.0559
 Frc consts  --      5.8196                 5.6257                 5.8395
 IR Inten    --     24.4036                22.0382                40.1973

                     46                     47                     48
                      A                      A                      A
 Frequencies --   3070.9640              3098.3555              3115.5392
 Red. masses --      1.0581                 1.1005                 1.1007
 Frc consts  --      5.8795                 6.2242                 6.2946
 IR Inten    --      7.3580                17.2109                 9.5889

                     49                     50                     51
                      A                      A                      A
 Frequencies --   3129.4609              3136.1647              3147.9006
 Red. masses --      1.1107                 1.1085                 1.0921
 Frc consts  --      6.4092                 6.4234                 6.3762
 IR Inten    --     13.6722                32.2507                44.2686

 - Thermochemistry -
 -------------------
 Temperature   298.150 Kelvin.  Pressure   1.00000 Atm.
 Atom     1 has atomic number  6 and mass  12.00000

 Molecular mass:   126.06808 amu.
 Principal axes and moments of inertia in atomic units:
                           1         2         3
     Eigenvalues --   680.839971125.503781466.76334
           X            0.99996   0.00907   0.00093
           Y           -0.00905   0.99969  -0.02314
           Z           -0.00114   0.02313   0.99973
 This molecule is an asymmetric top.
 Rotational symmetry number  1.
 Warning -- assumption of classical behavior for rotation
           may cause significant error
 Rotational temperatures (Kelvin)      0.12722     0.07696     0.05905
 Rotational constants (GHZ):           2.65076     1.60350     1.23042
 Zero-point vibrational energy     416458.1 (Joules/Mol)
                                   99.53587 (Kcal/Mol)
 Warning -- explicit consideration of  11 degrees of freedom as
           vibrations may cause significant error
 Vibrational temperatures:     95.53   217.51   288.08   304.61   430.70
          (Kelvin)            461.76   615.90   672.89   751.01   765.38
                              887.58   981.54  1165.21  1183.25  1236.98
                             1309.09  1336.29  1377.77  1389.38  1451.12
                             1460.78  1483.31  1516.17  1579.03  1607.81
                             1620.98  1710.69  1758.14  1774.16  1791.33
                             1802.47  1882.12  1899.53  1917.18  2008.12
                             2044.67  2123.01  2144.17  2146.19  2177.50
                             2624.71  4161.92  4343.98  4366.37  4407.96
                             4418.43  4457.84  4482.56  4502.59  4512.24
                             4529.12

 Zero-point correction=                           0.158621 (Hartree/Particle)
 Thermal correction to Energy=                    0.166769
 Thermal correction to Enthalpy=                  0.167713
 Thermal correction to Gibbs Free Energy=         0.125828
 Sum of electronic and zero-point Energies=           -423.016786
 Sum of electronic and thermal Energies=              -423.008637
 Sum of electronic and thermal Enthalpies=            -423.007693
 Sum of electronic and thermal Free Energies=         -423.049578

                     E (Thermal)             CV                S
                      KCal/Mol        Cal/Mol-Kelvin    Cal/Mol-Kelvin
 Total                  104.649             31.465             88.155
 Electronic               0.000              0.000              0.000
 Translational            0.889              2.981             40.409
 Rotational               0.889              2.981             28.510
 Vibrational            102.872             25.503             19.237
 Vibration     1          0.598              1.970              4.257
 Vibration     2          0.619              1.901              2.657
 Vibration     3          0.638              1.840              2.131
 Vibration     4          0.643              1.823              2.029
 Vibration     5          0.692              1.675              1.421
 Vibration     6          0.706              1.633              1.305
 Vibration     7          0.790              1.409              0.865
 Vibration     8          0.825              1.322              0.744
 Vibration     9          0.877              1.201              0.605
 Vibration    10          0.887              1.179              0.583
 Vibration    11          0.977              0.996              0.421

 Optimization completed.
    -- Stationary point found.
 Normal termination of Gaussian 09 at Mon Jan 27 17:59:29 2020.
