 Gaussian 09, Revision D.01,
 Gaussian 09:  ES64L-G09RevD.01 24-Apr-2013

 -----------------------------
 # b3lyp 6-31G(2df,p) opt Freq
 -----------------------------

 -----
 titel
 -----
 Symbolic Z-matrix:
 Charge =  0 Multiplicity = 1

 SCF Done:  E(RB3LYP) =  -423.203732338     A.U. after   14 cycles
 SCF Done:  E(RB3LYP) =  -423.203732388     A.U. after    6 cycles
 Optimization completed.
    -- Stationary point found.
 Normal termination of Gaussian 09 at Tue Jan 28 04:00:37 2020.

 ----------------------------------------------------------------------
 #N Geom=AllCheck Guess=TCheck SCRF=Check GenChk RB3LYP/6-31G(2df,p) Fr
 eq
 ----------------------------------------------------------------------

 Structure from the checkpoint file:  "/scratch/puck/g09_d40b4d16-c073-4310-88af-ad65eb022c54/Gau-62875.chk"
 -----
 titel
 -----
 Charge =  0 Multiplicity = 1

                         Standard orientation:
 ---------------------------------------------------------------------
 Center     Atomic      Atomic             Coordinates (Angstroms)
 Number     Number       Type             X           Y           Z
 ---------------------------------------------------------------------
      1          6           0        0.497533   -0.465879    1.725144
      2          6           0        0.274748   -0.474440    0.191316
      3          6           0        1.628279   -0.746532   -0.431553
      4          8           0        2.321815    0.105768   -0.931799
      5          6           0       -0.800375   -1.474026   -0.192159
      6          6           0       -1.961512   -0.865991   -0.437886
      7          6           0       -1.857476    0.634039   -0.296665
      8          6           0       -0.336308    0.858516   -0.346621
      9          8           0        0.046828    2.021614    0.352420
     10          1           0        1.167482    0.347327    2.014577
     11          1           0       -0.456211   -0.325098    2.239648
     12          1           0        0.926884   -1.415201    2.062958
     13          1           0        1.983192   -1.801226   -0.365201
     14          1           0       -0.630026   -2.545603   -0.200953
     15          1           0       -2.888259   -1.372137   -0.683950
     16          1           0       -2.387128    1.188425   -1.077543
     17          1           0       -2.261398    0.977258    0.665735
     18          1           0       -0.036494    0.936219   -1.400294
     19          1           0        0.963477    2.196857    0.110608
 ---------------------------------------------------------------------

 SCF Done:  E(RB3LYP) =  -423.203732388     A.U. after    1 cycles

 The electronic state is 1-A.
 Alpha  occ. eigenvalues --  -19.14854 -19.13608 -10.27493 -10.23279 -10.20383
 Alpha  occ. eigenvalues --  -10.19175 -10.19016 -10.18752 -10.18633  -1.05477
 Alpha  occ. eigenvalues --   -1.01995  -0.85586  -0.76498  -0.70594  -0.67077
 Alpha  occ. eigenvalues --   -0.61884  -0.55481  -0.54862  -0.50963  -0.50497
 Alpha  occ. eigenvalues --   -0.45794  -0.43581  -0.43061  -0.41710  -0.40653
 Alpha  occ. eigenvalues --   -0.38797  -0.38125  -0.37049  -0.35914  -0.35070
 Alpha  occ. eigenvalues --   -0.31762  -0.27727  -0.25843  -0.24437
 Alpha virt. eigenvalues --   -0.03022   0.01474   0.08432   0.10353   0.10991
 Alpha virt. eigenvalues --    0.13019   0.14276   0.15282   0.16682   0.17123
 Alpha virt. eigenvalues --    0.17640   0.18620   0.19181   0.20567   0.21897

 Mulliken charges:
               1
     1  C   -0.419007
     2  C    0.110589
     3  C    0.121093
     4  O   -0.267168
     5  C   -0.115087
     6  C   -0.078465
     7  C   -0.288906
     8  C    0.108358
     9  O   -0.437269
    10  H    0.130794
    11  H    0.133582
    12  H    0.114720
    13  H    0.080073
    14  H    0.098052
    15  H    0.100934
    16  H    0.110202
    17  H    0.120572
    18  H    0.086130
    19  H    0.290804
 Sum of Mulliken charges =   0.00000

 Dipole moment (field-independent basis, Debye):
    X=             -1.0350    Y=             -1.7887    Z=              0.4549  Tot=              2.1161
 Quadrupole moment (field-independent basis, Debye-Ang):
   XX=            -54.8853   YY=            -52.6779   ZZ=            -54.3791
   XY=              0.1842   XZ=              3.6664   YZ=             -1.0319

  Exact polarizability:  87.982  -2.505  78.371   2.842  -1.921  63.329
 Approx polarizability: 130.722  -4.021 119.105   0.794  -4.659  96.087

                      1                      2                      3
                      A                      A                      A
 Frequencies --     65.6638               114.4097               181.7023
 Red. masses --      5.0883                 2.8642                 4.4455
 Frc consts  --      0.0129                 0.0221                 0.0865
 IR Inten    --      5.9063                 1.4381                 5.6288

                      4                      5                      6
                      A                      A                      A
 Frequencies --    202.0418               255.0240               262.0640
 Red. masses --      1.1001                 2.4826                 3.1067
 Frc consts  --      0.0265                 0.0951                 0.1257
 IR Inten    --      0.3348                 0.9319                 1.6677

                      7                      8                      9
                      A                      A                      A
 Frequencies --    310.3751               392.0391               433.8414
 Red. masses --      2.1982                 3.3196                 1.0874
 Frc consts  --      0.1248                 0.3006                 0.1206
 IR Inten    --      0.7468                 9.1085               103.6545

                     10                     11                     12
                      A                      A                      A
 Frequencies --    462.3660               482.2310               558.0961
 Red. masses --      3.9363                 2.3968                 4.3947
 Frc consts  --      0.4958                 0.3284                 0.8065
 IR Inten    --      1.1257                 0.3548                16.9511

                     13                     14                     15
                      A                      A                      A
 Frequencies --    649.8900               715.6483               747.9029
 Red. masses --      3.8496                 3.4311                 1.3351
 Frc consts  --      0.9579                 1.0353                 0.4400
 IR Inten    --     11.8052                 5.1356                37.4342

                     16                     17                     18
                      A                      A                      A
 Frequencies --    772.0589               912.0132               931.3584
 Red. masses --      4.5834                 1.8727                 1.6247
 Frc consts  --      1.6097                 0.9177                 0.8303
 IR Inten    --     10.1277                13.4485                 5.1775

                     19                     20                     21
                      A                      A                      A
 Frequencies --    963.5224               970.7501               977.5960
 Red. masses --      2.1420                 1.2901                 2.0180
 Frc consts  --      1.1717                 0.7163                 1.1363
 IR Inten    --     12.4032                 0.5084                 6.5866

                     22                     23                     24
                      A                      A                      A
 Frequencies --   1012.6814              1027.1489              1108.0933
 Red. masses --      1.9849                 2.0759                 1.6947
 Frc consts  --      1.1993                 1.2904                 1.2260
 IR Inten    --     25.6516                 4.8532                16.6905

                     25                     26                     27
                      A                      A                      A
 Frequencies --   1111.2178              1136.9570              1174.5568
 Red. masses --      1.8608                 2.0180                 1.8332
 Frc consts  --      1.3538                 1.5369                 1.4901
 IR Inten    --     33.8196                27.1033                 4.9043

                     28                     29                     30
                      A                      A                      A
 Frequencies --   1194.6355              1242.3350              1281.6572
 Red. masses --      2.3217                 2.6976                 1.2031
 Frc consts  --      1.9522                 2.4531                 1.1644
 IR Inten    --      8.5045                 6.9505                43.2444

                     31                     32                     33
                      A                      A                      A
 Frequencies --   1306.2702              1338.0599              1378.1192
 Red. masses --      1.5361                 1.4425                 1.4146
 Frc consts  --      1.5443                 1.5217                 1.5829
 IR Inten    --     30.7411                 4.7690                 7.7175

                     34                     35                     36
                      A                      A                      A
 Frequencies --   1399.8547              1417.4465              1437.6943
 Red. masses --      1.2572                 1.2410                 1.4382
 Frc consts  --      1.4515                 1.4691                 1.7514
 IR Inten    --      5.2214                 2.0376                 4.5301

                     37                     38                     39
                      A                      A                      A
 Frequencies --   1485.6219              1486.2975              1493.9924
 Red. masses --      1.0821                 1.0616                 1.0753
 Frc consts  --      1.4072                 1.3818                 1.4141
 IR Inten    --      0.3118                 9.9061                 5.2984

                     40                     41                     42
                      A                      A                      A
 Frequencies --   1673.0946              1812.2328              2863.1211
 Red. masses --      6.4754                10.7031                 1.0829
 Frc consts  --     10.6796                20.7103                 5.2301
 IR Inten    --      2.4615               153.8532               119.7293

                     43                     44                     45
                      A                      A                      A
 Frequencies --   3010.2007              3021.9597              3039.4199
 Red. masses --      1.0827                 1.0678                 1.0353
 Frc consts  --      5.7805                 5.7456                 5.6353
 IR Inten    --     17.6955                29.8814                20.9633

                     46                     47                     48
                      A                      A                      A
 Frequencies --   3077.3989              3111.5627              3131.1364
 Red. masses --      1.0950                 1.0994                 1.1026
 Frc consts  --      6.1101                 6.2714                 6.3690
 IR Inten    --     28.2587                14.2820                12.5399

                     49                     50                     51
                      A                      A                      A
 Frequencies --   3177.7378              3204.6703              3801.9294
 Red. masses --      1.0852                 1.1028                 1.0658
 Frc consts  --      6.4563                 6.6727                 9.0769
 IR Inten    --      4.8151                21.1705                33.1631

 - Thermochemistry -
 -------------------
 Temperature   298.150 Kelvin.  Pressure   1.00000 Atm.
 Atom     1 has atomic number  6 and mass  12.00000

 Molecular mass:   126.06808 amu.
 Principal axes and moments of inertia in atomic units:
                           1         2         3
     Eigenvalues --   804.275031151.862691407.52300
           X            0.99931  -0.01492   0.03406
           Y            0.01617   0.99920  -0.03657
           Z           -0.03349   0.03710   0.99875
 This molecule is an asymmetric top.
 Rotational symmetry number  1.
 Warning -- assumption of classical behavior for rotation
           may cause significant error
 Rotational temperatures (Kelvin)      0.10769     0.07519     0.06154
 Rotational constants (GHZ):           2.24394     1.56680     1.28221
 Zero-point vibrational energy     414611.9 (Joules/Mol)
                                   99.09462 (Kcal/Mol)
 Warning -- explicit consideration of  12 degrees of freedom as
           vibrations may cause significant error
 Vibrational temperatures:     94.48   164.61   261.43   290.69   366.92
          (Kelvin)            377.05   446.56   564.06   624.20   665.24
                              693.82   802.97   935.05  1029.66  1076.06
                             1110.82  1312.18  1340.02  1386.29  1396.69
                             1406.54  1457.02  1477.84  1594.30  1598.79
                             1635.83  1689.92  1718.81  1787.44  1844.02
                             1879.43  1925.17  1982.80  2014.08  2039.39
                             2068.52  2137.48  2138.45  2149.52  2407.21
                             2607.40  4119.39  4331.00  4347.92  4373.04
                             4427.69  4476.84  4505.00  4572.05  4610.80
                             5470.12

 Zero-point correction=                           0.157917 (Hartree/Particle)
 Thermal correction to Energy=                    0.166949
 Thermal correction to Enthalpy=                  0.167893
 Thermal correction to Gibbs Free Energy=         0.124239
 Sum of electronic and zero-point Energies=           -423.045815
 Sum of electronic and thermal Energies=              -423.036784
 Sum of electronic and thermal Enthalpies=            -423.035839
 Sum of electronic and thermal Free Energies=         -423.079494

                     E (Thermal)             CV                S
                      KCal/Mol        Cal/Mol-Kelvin    Cal/Mol-Kelvin
 Total                  104.762             33.951             91.878
 Electronic               0.000              0.000              0.000
 Translational            0.889              2.981             40.409
 Rotational               0.889              2.981             28.657
 Vibrational            102.984             27.989             22.812
 Vibration     1          0.597              1.971              4.279
 Vibration     2          0.607              1.937              3.193
 Vibration     3          0.630              1.865              2.311
 Vibration     4          0.639              1.837              2.114
 Vibration     5          0.665              1.754              1.696
 Vibration     6          0.669              1.742              1.648
 Vibration     7          0.699              1.654              1.360
 Vibration     8          0.759              1.487              0.992
 Vibration     9          0.795              1.396              0.846
 Vibration    10          0.820              1.334              0.759
 Vibration    11          0.838              1.289              0.704
 Vibration    12          0.914              1.122              0.528

 Optimization completed.
    -- Stationary point found.
 Normal termination of Gaussian 09 at Tue Jan 28 04:47:25 2020.
