 Gaussian 09, Revision D.01,
 Gaussian 09:  ES64L-G09RevD.01 24-Apr-2013

 -----------------------------
 # b3lyp 6-31G(2df,p) opt Freq
 -----------------------------

 -----
 titel
 -----
 Symbolic Z-matrix:
 Charge =  0 Multiplicity = 1

 SCF Done:  E(RB3LYP) =  -423.190912184     A.U. after   14 cycles
 Optimization completed.
    -- Stationary point found.
 Normal termination of Gaussian 09 at Mon Jan 27 15:29:02 2020.

 ----------------------------------------------------------------------
 #N Geom=AllCheck Guess=TCheck SCRF=Check GenChk RB3LYP/6-31G(2df,p) Fr
 eq
 ----------------------------------------------------------------------

 Structure from the checkpoint file:  "/scratch/puck/g09_2c149baa-8007-41d9-b7a1-509f61768370/Gau-67199.chk"
 -----
 titel
 -----
 Charge =  0 Multiplicity = 1

                         Standard orientation:
 ---------------------------------------------------------------------
 Center     Atomic      Atomic             Coordinates (Angstroms)
 Number     Number       Type             X           Y           Z
 ---------------------------------------------------------------------
      1          6           0       -2.148532   -0.123969   -1.097100
      2          6           0       -1.382909   -0.471826    0.190936
      3          6           0       -1.792178    0.446283    1.353406
      4          6           0        0.103957   -0.410223   -0.058272
      5          6           0        0.956671   -1.563614   -0.622459
      6          6           0        1.329401   -0.920275    0.661461
      7          8           0        2.065982    0.303439    0.374800
      8          6           0        0.932612    0.845296   -0.221355
      9          8           0        0.787413    1.955231   -0.621147
     10          1           0       -3.228903   -0.179819   -0.931930
     11          1           0       -1.904921    0.891725   -1.424204
     12          1           0       -1.891677   -0.810934   -1.909381
     13          1           0       -1.624713   -1.507253    0.467077
     14          1           0       -1.270066    0.176940    2.277091
     15          1           0       -1.558001    1.490820    1.124010
     16          1           0       -2.868101    0.375659    1.540040
     17          1           0        0.467547   -2.531952   -0.556562
     18          1           0        1.590003   -1.421647   -1.492516
     19          1           0        1.467537   -1.362922    1.637440
 ---------------------------------------------------------------------

 SCF Done:  E(RB3LYP) =  -423.190912184     A.U. after    1 cycles

 The electronic state is 1-A.
 Alpha  occ. eigenvalues --  -19.17722 -19.13786 -10.31003 -10.26350 -10.22093
 Alpha  occ. eigenvalues --  -10.21820 -10.20898 -10.18088 -10.17999  -1.10875
 Alpha  occ. eigenvalues --   -1.03695  -0.87047  -0.79599  -0.69090  -0.67307
 Alpha  occ. eigenvalues --   -0.62919  -0.61141  -0.52849  -0.51572  -0.49499
 Alpha  occ. eigenvalues --   -0.46260  -0.45113  -0.43528  -0.42117  -0.41015
 Alpha  occ. eigenvalues --   -0.39913  -0.38801  -0.37118  -0.35347  -0.34801
 Alpha  occ. eigenvalues --   -0.34413  -0.30088  -0.27566  -0.27168
 Alpha virt. eigenvalues --    0.00287   0.07820   0.09250   0.10472   0.10666
 Alpha virt. eigenvalues --    0.11642   0.13586   0.14519   0.15484   0.16184
 Alpha virt. eigenvalues --    0.17430   0.18597   0.18867   0.19801   0.19977

 Mulliken charges:
               1
     1  C   -0.392366
     2  C   -0.089331
     3  C   -0.401897
     4  C    0.142969
     5  C   -0.348015
     6  C    0.027932
     7  O   -0.266825
     8  C    0.443756
     9  O   -0.336335
    10  H    0.112791
    11  H    0.144102
    12  H    0.115169
    13  H    0.076703
    14  H    0.113315
    15  H    0.142243
    16  H    0.115852
    17  H    0.129404
    18  H    0.138077
    19  H    0.132456
 Sum of Mulliken charges =   0.00000

 Dipole moment (field-independent basis, Debye):
    X=             -1.6447    Y=             -3.6446    Z=              0.7999  Tot=              4.0778
 Quadrupole moment (field-independent basis, Debye-Ang):
   XX=            -55.7210   YY=            -56.1740   ZZ=            -51.8904
   XY=             -3.5241   XZ=             -0.1800   YZ=              1.0940

  Exact polarizability:  77.968  -3.300  78.096   1.344  -0.700  68.071
 Approx polarizability: 108.134  -5.195 125.574   5.184  -6.357 100.529

                      1                      2                      3
                      A                      A                      A
 Frequencies --     60.0141               136.6790               154.8289
 Red. masses --      3.1477                 4.5349                 3.5100
 Frc consts  --      0.0067                 0.0499                 0.0496
 IR Inten    --      0.7446                 2.5130                 1.2179

                      4                      5                      6
                      A                      A                      A
 Frequencies --    209.0478               232.2979               260.8396
 Red. masses --      3.2400                 1.0402                 1.1230
 Frc consts  --      0.0834                 0.0331                 0.0450
 IR Inten    --      0.4199                 0.0188                 0.0369

                      7                      8                      9
                      A                      A                      A
 Frequencies --    307.3284               422.4144               448.2664
 Red. masses --      2.5335                 3.2701                 3.2976
 Frc consts  --      0.1410                 0.3438                 0.3904
 IR Inten    --      0.2672                 0.1354                 0.9007

                     10                     11                     12
                      A                      A                      A
 Frequencies --    462.6322               491.7937               666.4255
 Red. masses --      2.4370                 3.3539                 4.4097
 Frc consts  --      0.3073                 0.4779                 1.1539
 IR Inten    --      1.6032                 3.2458                 5.5335

                     13                     14                     15
                      A                      A                      A
 Frequencies --    700.1796               783.9380               845.2293
 Red. masses --      4.6761                 5.4871                 3.3343
 Frc consts  --      1.3507                 1.9868                 1.4035
 IR Inten    --      3.0117                 9.4258                 7.7392

                     16                     17                     18
                      A                      A                      A
 Frequencies --    867.4296               905.7754               927.9030
 Red. masses --      2.5672                 2.0749                 2.7042
 Frc consts  --      1.1381                 1.0030                 1.3718
 IR Inten    --      1.8701                30.7878                16.9586

                     19                     20                     21
                      A                      A                      A
 Frequencies --    934.4562               941.4892               971.6163
 Red. masses --      1.2595                 1.7845                 1.7303
 Frc consts  --      0.6480                 0.9319                 0.9624
 IR Inten    --      4.9513                24.4609                 0.9395

                     22                     23                     24
                      A                      A                      A
 Frequencies --   1016.3541              1037.4090              1064.1926
 Red. masses --      1.6866                 1.5669                 2.6415
 Frc consts  --      1.0265                 0.9936                 1.7625
 IR Inten    --     25.7268                16.5603                70.4859

                     25                     26                     27
                      A                      A                      A
 Frequencies --   1077.1756              1117.4899              1137.8850
 Red. masses --      1.3803                 1.8890                 2.2924
 Frc consts  --      0.9436                 1.3899                 1.7488
 IR Inten    --      4.6459                 4.4720                 1.0795

                     28                     29                     30
                      A                      A                      A
 Frequencies --   1188.9165              1232.2774              1279.0790
 Red. masses --      1.9313                 2.0905                 2.5463
 Frc consts  --      1.6084                 1.8704                 2.4544
 IR Inten    --      5.1957                20.2153                 5.3611

                     31                     32                     33
                      A                      A                      A
 Frequencies --   1338.8569              1350.6464              1399.9080
 Red. masses --      1.3490                 1.4941                 1.3794
 Frc consts  --      1.4248                 1.6059                 1.5927
 IR Inten    --      1.3733                 3.7381                 7.3486

                     34                     35                     36
                      A                      A                      A
 Frequencies --   1402.6791              1423.4275              1482.4465
 Red. masses --      1.9465                 1.2497                 1.3832
 Frc consts  --      2.2565                 1.4919                 1.7910
 IR Inten    --      9.3270                 2.5828                 6.1135

                     37                     38                     39
                      A                      A                      A
 Frequencies --   1487.7560              1495.0330              1503.8691
 Red. masses --      1.0399                 1.0509                 1.0421
 Frc consts  --      1.3562                 1.3839                 1.3886
 IR Inten    --      0.3787                 0.9431                11.6351

                     40                     41                     42
                      A                      A                      A
 Frequencies --   1515.4070              1929.4796              3010.4606
 Red. masses --      1.0943                12.8096                 1.0831
 Frc consts  --      1.4807                28.0974                 5.7832
 IR Inten    --      3.6504               365.7503                19.3277

                     43                     44                     45
                      A                      A                      A
 Frequencies --   3034.5871              3037.9775              3105.4114
 Red. masses --      1.0343                 1.0350                 1.1021
 Frc consts  --      5.6115                 5.6281                 6.2619
 IR Inten    --     26.8284                12.0126                16.8981

                     46                     47                     48
                      A                      A                      A
 Frequencies --   3108.0002              3110.1104              3115.4049
 Red. masses --      1.1018                 1.1022                 1.1011
 Frc consts  --      6.2706                 6.2814                 6.2965
 IR Inten    --     29.5091                11.9762                30.7632

                     49                     50                     51
                      A                      A                      A
 Frequencies --   3118.8000              3210.4367              3227.7163
 Red. masses --      1.0541                 1.1175                 1.0957
 Frc consts  --      6.0409                 6.7860                 6.7253
 IR Inten    --     10.7404                 2.9441                 3.7422

 - Thermochemistry -
 -------------------
 Temperature   298.150 Kelvin.  Pressure   1.00000 Atm.
 Atom     1 has atomic number  6 and mass  12.00000

 Molecular mass:   126.06808 amu.
 Principal axes and moments of inertia in atomic units:
                           1         2         3
     Eigenvalues --   753.054171254.940661461.39923
           X            0.99917  -0.04040  -0.00571
           Y            0.04068   0.99716   0.06333
           Z            0.00314  -0.06351   0.99798
 This molecule is an asymmetric top.
 Rotational symmetry number  1.
 Warning -- assumption of classical behavior for rotation
           may cause significant error
 Rotational temperatures (Kelvin)      0.11502     0.06902     0.05927
 Rotational constants (GHZ):           2.39656     1.43811     1.23494
 Zero-point vibrational energy     414444.9 (Joules/Mol)
                                   99.05471 (Kcal/Mol)
 Warning -- explicit consideration of  11 degrees of freedom as
           vibrations may cause significant error
 Vibrational temperatures:     86.35   196.65   222.76   300.77   334.22
          (Kelvin)            375.29   442.18   607.76   644.95   665.62
                              707.58   958.84  1007.40  1127.91  1216.09
                             1248.04  1303.21  1335.04  1344.47  1354.59
                             1397.94  1462.31  1492.60  1531.13  1549.81
                             1607.82  1637.16  1710.58  1772.97  1840.31
                             1926.31  1943.28  2014.15  2018.14  2047.99
                             2132.91  2140.55  2151.02  2163.73  2180.33
                             2776.09  4331.38  4366.09  4370.97  4467.99
                             4471.71  4474.75  4482.37  4487.25  4619.10
                             4643.96

 Zero-point correction=                           0.157854 (Hartree/Particle)
 Thermal correction to Energy=                    0.166744
 Thermal correction to Enthalpy=                  0.167688
 Thermal correction to Gibbs Free Energy=         0.124160
 Sum of electronic and zero-point Energies=           -423.033058
 Sum of electronic and thermal Energies=              -423.024169
 Sum of electronic and thermal Enthalpies=            -423.023224
 Sum of electronic and thermal Free Energies=         -423.066752

                     E (Thermal)             CV                S
                      KCal/Mol        Cal/Mol-Kelvin    Cal/Mol-Kelvin
 Total                  104.633             33.290             91.612
 Electronic               0.000              0.000              0.000
 Translational            0.889              2.981             40.409
 Rotational               0.889              2.981             28.714
 Vibrational            102.856             27.328             22.489
 Vibration     1          0.597              1.973              4.457
 Vibration     2          0.614              1.917              2.850
 Vibration     3          0.620              1.897              2.612
 Vibration     4          0.642              1.827              2.052
 Vibration     5          0.653              1.792              1.861
 Vibration     6          0.669              1.744              1.656
 Vibration     7          0.697              1.660              1.377
 Vibration     8          0.785              1.422              0.884
 Vibration     9          0.807              1.365              0.801
 Vibration    10          0.820              1.333              0.758
 Vibration    11          0.848              1.268              0.679

 Optimization completed.
    -- Stationary point found.
 Normal termination of Gaussian 09 at Mon Jan 27 16:20:38 2020.
