 Gaussian 09, Revision D.01,
 Gaussian 09:  ES64L-G09RevD.01 24-Apr-2013

 -----------------------------
 # b3lyp 6-31G(2df,p) opt Freq
 -----------------------------

 -----
 titel
 -----
 Symbolic Z-matrix:
 Charge =  0 Multiplicity = 1

 SCF Done:  E(RB3LYP) =  -423.173814166     A.U. after   14 cycles
 Optimization completed.
    -- Stationary point found.
 Normal termination of Gaussian 09 at Tue Jan 28 09:18:56 2020.

 ----------------------------------------------------------------------
 #N Geom=AllCheck Guess=TCheck SCRF=Check GenChk RB3LYP/6-31G(2df,p) Fr
 eq
 ----------------------------------------------------------------------

 Structure from the checkpoint file:  "/scratch/puck/g09_f16ac5e8-a59e-49be-9520-2c9b9c9b6cf1/Gau-84043.chk"
 -----
 titel
 -----
 Charge =  0 Multiplicity = 1

                         Standard orientation:
 ---------------------------------------------------------------------
 Center     Atomic      Atomic             Coordinates (Angstroms)
 Number     Number       Type             X           Y           Z
 ---------------------------------------------------------------------
      1          6           0       -0.500587    2.062935    0.483453
      2          6           0       -0.467284    0.786636   -0.347084
      3          6           0       -1.613484   -0.261505   -0.268148
      4          8           0       -2.780748   -0.213882   -0.535745
      5          6           0       -0.668405   -1.376842    0.078011
      6          6           0        0.130914   -0.967121    1.310920
      7          6           0        0.505406   -0.365043   -0.002947
      8          6           0        1.847064   -0.550769   -0.648038
      9          8           0        2.770815    0.458964   -0.261165
     10          1           0       -1.358551    2.678295    0.196296
     11          1           0       -0.586387    1.854463    1.554280
     12          1           0        0.410490    2.647682    0.324469
     13          1           0       -0.363490    1.041837   -1.410459
     14          1           0       -0.729735   -2.412430   -0.233941
     15          1           0       -0.337684   -0.379994    2.094649
     16          1           0        0.783715   -1.752538    1.681883
     17          1           0        2.233140   -1.559181   -0.428618
     18          1           0        1.761506   -0.462814   -1.736621
     19          1           0        2.864716    0.414281    0.696334
 ---------------------------------------------------------------------

 SCF Done:  E(RB3LYP) =  -423.173814166     A.U. after    1 cycles

 The electronic state is 1-A.
 Alpha  occ. eigenvalues --  -19.14507 -19.13008 -10.26761 -10.24180 -10.21722
 Alpha  occ. eigenvalues --  -10.21342 -10.20876 -10.20101 -10.18286  -1.04048
 Alpha  occ. eigenvalues --   -1.02575  -0.91411  -0.76508  -0.71704  -0.68691
 Alpha  occ. eigenvalues --   -0.61918  -0.57193  -0.53483  -0.51151  -0.48913
 Alpha  occ. eigenvalues --   -0.46314  -0.44863  -0.43485  -0.43007  -0.41299
 Alpha  occ. eigenvalues --   -0.39971  -0.38126  -0.36294  -0.35441  -0.34542
 Alpha  occ. eigenvalues --   -0.30784  -0.29272  -0.27276  -0.23859
 Alpha virt. eigenvalues --   -0.01255   0.06032   0.08875   0.10208   0.11222
 Alpha virt. eigenvalues --    0.12806   0.12860   0.14367   0.14853   0.16118
 Alpha virt. eigenvalues --    0.17698   0.18155   0.18693   0.19842   0.21609

 Mulliken charges:
               1
     1  C   -0.423538
     2  C   -0.162296
     3  C    0.418374
     4  O   -0.321479
     5  C   -0.246453
     6  C   -0.341708
     7  C    0.322183
     8  C   -0.178864
     9  O   -0.408381
    10  H    0.135590
    11  H    0.115258
    12  H    0.131375
    13  H    0.105746
    14  H    0.112238
    15  H    0.127439
    16  H    0.123651
    17  H    0.089974
    18  H    0.116597
    19  H    0.284295
 Sum of Mulliken charges =   0.00000

 Dipole moment (field-independent basis, Debye):
    X=              2.4116    Y=             -0.8794    Z=              1.5919  Tot=              3.0205
 Quadrupole moment (field-independent basis, Debye-Ang):
   XX=            -66.8354   YY=            -50.7642   ZZ=            -50.3572
   XY=             -3.5204   XZ=              1.5556   YZ=              0.4571

  Exact polarizability:  84.461  -0.660  77.288   3.615  -1.423  67.185
 Approx polarizability: 127.397   2.614 109.264   8.198  -3.528 104.559

                      1                      2                      3
                      A                      A                      A
 Frequencies --     78.2694                95.5801               163.7776
 Red. masses --      5.2563                 3.9893                 2.8466
 Frc consts  --      0.0190                 0.0215                 0.0450
 IR Inten    --      6.3670                 1.0287                 0.3991

                      4                      5                      6
                      A                      A                      A
 Frequencies --    188.5709               232.4414               243.1258
 Red. masses --      1.0865                 3.1776                 2.6551
 Frc consts  --      0.0228                 0.1012                 0.0925
 IR Inten    --      0.3079                 1.2958                 5.8613

                      7                      8                      9
                      A                      A                      A
 Frequencies --    302.8424               372.0937               387.7439
 Red. masses --      1.4749                 1.8511                 3.4242
 Frc consts  --      0.0797                 0.1510                 0.3033
 IR Inten    --     62.5902                34.4569                34.0773

                     10                     11                     12
                      A                      A                      A
 Frequencies --    481.3395               485.6376               600.5211
 Red. masses --      3.1642                 2.7668                 5.0780
 Frc consts  --      0.4319                 0.3845                 1.0789
 IR Inten    --      0.4400                 3.3072                 2.2445

                     13                     14                     15
                      A                      A                      A
 Frequencies --    692.8550               718.2103               772.7690
 Red. masses --      4.0145                 3.2364                 2.4513
 Frc consts  --      1.1354                 0.9836                 0.8625
 IR Inten    --      0.5962                 6.0700                10.8179

                     16                     17                     18
                      A                      A                      A
 Frequencies --    841.5333               882.2907               920.3226
 Red. masses --      4.4531                 1.9310                 1.4675
 Frc consts  --      1.8580                 0.8856                 0.7323
 IR Inten    --     28.8398                14.9367                25.9476

                     19                     20                     21
                      A                      A                      A
 Frequencies --    962.4817               996.5380               998.8495
 Red. masses --      1.3027                 1.5186                 1.6756
 Frc consts  --      0.7110                 0.8886                 0.9849
 IR Inten    --     10.3353                 2.9408                16.5532

                     22                     23                     24
                      A                      A                      A
 Frequencies --   1053.7429              1062.1862              1084.4372
 Red. masses --      3.4080                 1.8907                 1.4392
 Frc consts  --      2.2296                 1.2568                 0.9972
 IR Inten    --     58.4938                33.8536                10.3179

                     25                     26                     27
                      A                      A                      A
 Frequencies --   1096.6158              1111.0427              1129.5736
 Red. masses --      1.5660                 2.6433                 2.0235
 Frc consts  --      1.1095                 1.9224                 1.5212
 IR Inten    --      1.6339                 9.3015                 7.6576

                     28                     29                     30
                      A                      A                      A
 Frequencies --   1188.7939              1194.3233              1232.9109
 Red. masses --      1.5435                 1.7332                 1.9112
 Frc consts  --      1.2852                 1.4566                 1.7117
 IR Inten    --     16.0202                 7.6390                 7.2363

                     31                     32                     33
                      A                      A                      A
 Frequencies --   1293.3364              1335.2223              1373.7452
 Red. masses --      1.9171                 1.7567                 1.3698
 Frc consts  --      1.8894                 1.8452                 1.5231
 IR Inten    --     10.9174                 3.5254                 0.2687

                     34                     35                     36
                      A                      A                      A
 Frequencies --   1398.4440              1408.9239              1427.3659
 Red. masses --      1.5455                 1.2841                 1.5413
 Frc consts  --      1.7808                 1.5019                 1.8502
 IR Inten    --      5.3452                11.6605                46.3057

                     37                     38                     39
                      A                      A                      A
 Frequencies --   1488.5245              1496.8750              1499.5502
 Red. masses --      1.1401                 1.0992                 1.0621
 Frc consts  --      1.4883                 1.4512                 1.4072
 IR Inten    --      0.7602                 3.4276                 2.2491

                     40                     41                     42
                      A                      A                      A
 Frequencies --   1507.1846              1882.4271              2976.0362
 Red. masses --      1.1462                12.4334                 1.0699
 Frc consts  --      1.5340                25.9584                 5.5831
 IR Inten    --      4.9336               343.3838                56.7819

                     43                     44                     45
                      A                      A                      A
 Frequencies --   3026.0325              3039.8483              3068.1765
 Red. masses --      1.0825                 1.0346                 1.0925
 Frc consts  --      5.8404                 5.6330                 6.0594
 IR Inten    --     10.2958                19.6128                25.5655

                     46                     47                     48
                      A                      A                      A
 Frequencies --   3108.9302              3113.3210              3119.6752
 Red. masses --      1.0999                 1.1019                 1.0551
 Frc consts  --      6.2635                 6.2926                 6.0501
 IR Inten    --     18.0200                13.5219                19.5133

                     49                     50                     51
                      A                      A                      A
 Frequencies --   3191.9453              3201.2953              3809.7440
 Red. masses --      1.0979                 1.1120                 1.0661
 Frc consts  --      6.5907                 6.7146                 9.1165
 IR Inten    --      4.0428                 9.5718                15.8508

 - Thermochemistry -
 -------------------
 Temperature   298.150 Kelvin.  Pressure   1.00000 Atm.
 Atom     1 has atomic number  6 and mass  12.00000

 Molecular mass:   126.06808 amu.
 Principal axes and moments of inertia in atomic units:
                           1         2         3
     Eigenvalues --   661.685081447.050411736.90049
           X            0.99955  -0.02932  -0.00588
           Y            0.02942   0.99941   0.01783
           Z            0.00536  -0.01800   0.99982
 This molecule is an asymmetric top.
 Rotational symmetry number  1.
 Warning -- assumption of classical behavior for rotation
           may cause significant error
 Rotational temperatures (Kelvin)      0.13090     0.05986     0.04987
 Rotational constants (GHZ):           2.72749     1.24719     1.03906
 Zero-point vibrational energy     414733.5 (Joules/Mol)
                                   99.12368 (Kcal/Mol)
 Warning -- explicit consideration of  12 degrees of freedom as
           vibrations may cause significant error
 Vibrational temperatures:    112.61   137.52   235.64   271.31   334.43
          (Kelvin)            349.80   435.72   535.36   557.88   692.54
                              698.72   864.01   996.86  1033.34  1111.84
                             1210.78  1269.42  1324.14  1384.79  1433.79
                             1437.12  1516.10  1528.25  1560.26  1577.78
                             1598.54  1625.20  1710.41  1718.36  1773.88
                             1860.82  1921.08  1976.51  2012.05  2027.12
                             2053.66  2141.65  2153.67  2157.52  2168.50
                             2708.39  4281.85  4353.78  4373.66  4414.42
                             4473.05  4479.37  4488.51  4592.49  4605.94
                             5481.37

 Zero-point correction=                           0.157964 (Hartree/Particle)
 Thermal correction to Energy=                    0.167109
 Thermal correction to Enthalpy=                  0.168053
 Thermal correction to Gibbs Free Energy=         0.123973
 Sum of electronic and zero-point Energies=           -423.015851
 Sum of electronic and thermal Energies=              -423.006706
 Sum of electronic and thermal Enthalpies=            -423.005761
 Sum of electronic and thermal Free Energies=         -423.049841

                     E (Thermal)             CV                S
                      KCal/Mol        Cal/Mol-Kelvin    Cal/Mol-Kelvin
 Total                  104.862             33.950             92.773
 Electronic               0.000              0.000              0.000
 Translational            0.889              2.981             40.409
 Rotational               0.889              2.981             28.899
 Vibrational            103.085             27.988             23.465
 Vibration     1          0.600              1.964              3.934
 Vibration     2          0.603              1.952              3.543
 Vibration     3          0.623              1.887              2.506
 Vibration     4          0.633              1.856              2.242
 Vibration     5          0.653              1.791              1.860
 Vibration     6          0.659              1.774              1.780
 Vibration     7          0.694              1.668              1.401
 Vibration     8          0.744              1.529              1.071
 Vibration     9          0.756              1.496              1.009
 Vibration    10          0.838              1.291              0.706
 Vibration    11          0.842              1.282              0.695
 Vibration    12          0.959              1.031              0.449

 Normal termination of Gaussian 09 at Tue Jan 28 10:07:14 2020.
