 Gaussian 09, Revision D.01,
 Gaussian 09:  ES64L-G09RevD.01 24-Apr-2013

 -----------------------------
 # b3lyp 6-31G(2df,p) opt Freq
 -----------------------------

 -----
 titel
 -----
 Symbolic Z-matrix:
 Charge =  0 Multiplicity = 1

 SCF Done:  E(RB3LYP) =  -423.182642487     A.U. after   14 cycles
 Optimization completed.
    -- Stationary point found.
 Normal termination of Gaussian 09 at Mon Jan 27 23:06:41 2020.

 ----------------------------------------------------------------------
 #N Geom=AllCheck Guess=TCheck SCRF=Check GenChk RB3LYP/6-31G(2df,p) Fr
 eq
 ----------------------------------------------------------------------

 Structure from the checkpoint file:  "/scratch/puck/g09_915d512b-e612-4850-91c5-9e95d3310c33/Gau-49672.chk"
 -----
 titel
 -----
 Charge =  0 Multiplicity = 1

                         Standard orientation:
 ---------------------------------------------------------------------
 Center     Atomic      Atomic             Coordinates (Angstroms)
 Number     Number       Type             X           Y           Z
 ---------------------------------------------------------------------
      1          6           0       -0.325014    2.148768    0.141094
      2          6           0        0.028642    0.804708   -0.492289
      3          6           0        1.505147    0.448453   -0.603446
      4          6           0        2.232075    0.031102    0.666292
      5          6           0        1.606820   -1.000372   -0.234530
      6          8           0        0.337016   -1.503867    0.109074
      7          6           0       -0.538294   -0.405804    0.318514
      8          6           0       -1.929113   -0.782365   -0.148807
      9          8           0       -2.921320   -0.168509    0.147944
     10          1           0        0.024675    2.979193   -0.479537
     11          1           0       -1.408919    2.241623    0.259412
     12          1           0        0.134641    2.249350    1.129973
     13          1           0       -0.389226    0.771882   -1.507863
     14          1           0        2.073458    0.871761   -1.423490
     15          1           0        3.314038    0.105446    0.658840
     16          1           0        1.779809    0.228401    1.632342
     17          1           0        2.204706   -1.733897   -0.761228
     18          1           0       -0.591958   -0.139009    1.383568
     19          1           0       -1.948358   -1.662677   -0.829129
 ---------------------------------------------------------------------

 SCF Done:  E(RB3LYP) =  -423.182642487     A.U. after    1 cycles

 The electronic state is 1-A.
 Alpha  occ. eigenvalues --  -19.15475 -19.14483 -10.27289 -10.24276 -10.24227
 Alpha  occ. eigenvalues --  -10.20900 -10.19914 -10.19299 -10.18176  -1.06104
 Alpha  occ. eigenvalues --   -1.04809  -0.85886  -0.79767  -0.71161  -0.65173
 Alpha  occ. eigenvalues --   -0.60675  -0.58527  -0.56112  -0.52337  -0.49314
 Alpha  occ. eigenvalues --   -0.46162  -0.45070  -0.43415  -0.42794  -0.42068
 Alpha  occ. eigenvalues --   -0.39450  -0.38946  -0.37100  -0.35381  -0.34281
 Alpha  occ. eigenvalues --   -0.32649  -0.28952  -0.25946  -0.24206
 Alpha virt. eigenvalues --   -0.02833   0.08490   0.09009   0.10421   0.12750
 Alpha virt. eigenvalues --    0.12865   0.13972   0.15278   0.15363   0.16788
 Alpha virt. eigenvalues --    0.17127   0.17889   0.19420   0.20845   0.22617

 Mulliken charges:
               1
     1  C   -0.407544
     2  C   -0.012771
     3  C   -0.091302
     4  C   -0.327157
     5  C    0.108756
     6  O   -0.274245
     7  C    0.026424
     8  C    0.133417
     9  O   -0.250790
    10  H    0.117730
    11  H    0.142368
    12  H    0.118027
    13  H    0.085923
    14  H    0.094966
    15  H    0.117459
    16  H    0.122047
    17  H    0.106232
    18  H    0.098576
    19  H    0.091884
 Sum of Mulliken charges =   0.00000

 Dipole moment (field-independent basis, Debye):
    X=              2.7160    Y=              0.6609    Z=             -0.7612  Tot=              2.8970
 Quadrupole moment (field-independent basis, Debye-Ang):
   XX=            -58.9600   YY=            -54.4090   ZZ=            -51.3072
   XY=              0.9306   XZ=              0.0821   YZ=              0.5712

  Exact polarizability:  88.054  -1.503  73.315   0.379   2.921  63.382
 Approx polarizability: 120.898  -4.340 107.782  -1.658   3.862  99.917

                      1                      2                      3
                      A                      A                      A
 Frequencies --     69.6336                96.9912               189.4993
 Red. masses --      3.7251                 4.0763                 2.5605
 Frc consts  --      0.0106                 0.0226                 0.0542
 IR Inten    --      8.2133                 3.0573                 2.3529

                      4                      5                      6
                      A                      A                      A
 Frequencies --    202.5490               243.2208               305.0979
 Red. masses --      2.9408                 1.0627                 2.5847
 Frc consts  --      0.0711                 0.0370                 0.1418
 IR Inten    --      0.4766                 0.5800                 1.0137

                      7                      8                      9
                      A                      A                      A
 Frequencies --    380.9439               397.4251               464.6553
 Red. masses --      3.6017                 3.2564                 3.8317
 Frc consts  --      0.3080                 0.3030                 0.4874
 IR Inten    --      5.2010                 8.7620                 5.8286

                     10                     11                     12
                      A                      A                      A
 Frequencies --    537.3148               633.4899               700.0826
 Red. masses --      2.9341                 3.3315                 5.3697
 Frc consts  --      0.4991                 0.7877                 1.5506
 IR Inten    --      1.6026                13.7462                11.6316

                     13                     14                     15
                      A                      A                      A
 Frequencies --    759.0643               810.7606               845.3654
 Red. masses --      2.2589                 1.4851                 2.2675
 Frc consts  --      0.7668                 0.5752                 0.9547
 IR Inten    --      9.1619                 7.4566                 1.1314

                     16                     17                     18
                      A                      A                      A
 Frequencies --    890.5435               973.2153               976.1989
 Red. masses --      2.1944                 2.8587                 1.8477
 Frc consts  --      1.0254                 1.5953                 1.0374
 IR Inten    --     11.7666                14.5989                 2.3228

                     19                     20                     21
                      A                      A                      A
 Frequencies --    981.4377              1023.2409              1044.8762
 Red. masses --      1.6939                 1.4216                 1.5519
 Frc consts  --      0.9613                 0.8770                 0.9982
 IR Inten    --     11.3620                 8.3869                21.3193

                     22                     23                     24
                      A                      A                      A
 Frequencies --   1063.5103              1092.9665              1097.6122
 Red. masses --      2.0415                 2.4446                 1.6119
 Frc consts  --      1.3604                 1.7206                 1.1442
 IR Inten    --     17.5735                 1.3091                10.8662

                     25                     26                     27
                      A                      A                      A
 Frequencies --   1103.1113              1127.9882              1156.5412
 Red. masses --      2.0720                 2.0279                 1.9160
 Frc consts  --      1.4855                 1.5202                 1.5100
 IR Inten    --     14.7383                 6.3800                 3.9930

                     28                     29                     30
                      A                      A                      A
 Frequencies --   1166.9590              1203.0259              1267.5403
 Red. masses --      3.1025                 1.6786                 1.4530
 Frc consts  --      2.4893                 1.4314                 1.3754
 IR Inten    --     93.8021                 6.6325                 1.5503

                     31                     32                     33
                      A                      A                      A
 Frequencies --   1309.1379              1340.3679              1341.4048
 Red. masses --      1.2459                 1.4852                 1.3361
 Frc consts  --      1.2581                 1.5721                 1.4164
 IR Inten    --      4.7541                 4.9663                 4.6327

                     34                     35                     36
                      A                      A                      A
 Frequencies --   1365.0517              1389.9667              1400.3982
 Red. masses --      1.4722                 1.6569                 1.3095
 Frc consts  --      1.6163                 1.8860                 1.5130
 IR Inten    --      4.2578                13.9289                 5.8853

                     37                     38                     39
                      A                      A                      A
 Frequencies --   1410.1778              1481.4920              1496.4794
 Red. masses --      1.2365                 1.2839                 1.0507
 Frc consts  --      1.4487                 1.6602                 1.3864
 IR Inten    --      5.1896                11.5304                 2.3404

                     40                     41                     42
                      A                      A                      A
 Frequencies --   1500.2888              1830.9133              2894.1116
 Red. masses --      1.0491                10.6328                 1.0845
 Frc consts  --      1.3912                21.0007                 5.3517
 IR Inten    --      6.1187               147.4323                87.9339

                     43                     44                     45
                      A                      A                      A
 Frequencies --   3000.3107              3012.3242              3035.5919
 Red. masses --      1.0818                 1.0837                 1.0351
 Frc consts  --      5.7378                 5.7936                 5.6197
 IR Inten    --      9.2017                33.1428                20.5110

                     46                     47                     48
                      A                      A                      A
 Frequencies --   3105.8511              3113.8524              3135.0227
 Red. masses --      1.1014                 1.1021                 1.0542
 Frc consts  --      6.2596                 6.2959                 6.1048
 IR Inten    --     25.2277                12.7086                 8.7922

                     49                     50                     51
                      A                      A                      A
 Frequencies --   3175.2696              3192.4390              3220.8990
 Red. masses --      1.0901                 1.0950                 1.1151
 Frc consts  --      6.4758                 6.5752                 6.8161
 IR Inten    --      9.3323                15.7450                10.8610

 - Thermochemistry -
 -------------------
 Temperature   298.150 Kelvin.  Pressure   1.00000 Atm.
 Atom     1 has atomic number  6 and mass  12.00000

 Molecular mass:   126.06808 amu.
 Principal axes and moments of inertia in atomic units:
                           1         2         3
     Eigenvalues --   633.605801296.508791732.07820
           X            0.99998  -0.00432   0.00517
           Y            0.00423   0.99983   0.01819
           Z           -0.00525  -0.01817   0.99982
 This molecule is an asymmetric top.
 Rotational symmetry number  1.
 Warning -- assumption of classical behavior for rotation
           may cause significant error
 Rotational temperatures (Kelvin)      0.13670     0.06681     0.05001
 Rotational constants (GHZ):           2.84837     1.39200     1.04195
 Zero-point vibrational energy     416038.5 (Joules/Mol)
                                   99.43560 (Kcal/Mol)
 Warning -- explicit consideration of  10 degrees of freedom as
           vibrations may cause significant error
 Vibrational temperatures:    100.19   139.55   272.65   291.42   349.94
          (Kelvin)            438.97   548.09   571.81   668.53   773.08
                              911.45  1007.26  1092.12  1166.50  1216.29
                             1281.29  1400.24  1404.53  1412.07  1472.21
                             1503.34  1530.15  1572.53  1579.22  1587.13
                             1622.92  1664.00  1678.99  1730.88  1823.71
                             1883.56  1928.49  1929.98  1964.00  1999.85
                             2014.86  2028.93  2131.53  2153.10  2158.58
                             2634.27  4163.98  4316.77  4334.06  4367.53
                             4468.62  4480.13  4510.59  4568.50  4593.20
                             4634.15

 Zero-point correction=                           0.158461 (Hartree/Particle)
 Thermal correction to Energy=                    0.166963
 Thermal correction to Enthalpy=                  0.167907
 Thermal correction to Gibbs Free Energy=         0.125014
 Sum of electronic and zero-point Energies=           -423.024182
 Sum of electronic and thermal Energies=              -423.015679
 Sum of electronic and thermal Enthalpies=            -423.014735
 Sum of electronic and thermal Free Energies=         -423.057629

                     E (Thermal)             CV                S
                      KCal/Mol        Cal/Mol-Kelvin    Cal/Mol-Kelvin
 Total                  104.771             31.960             90.277
 Electronic               0.000              0.000              0.000
 Translational            0.889              2.981             40.409
 Rotational               0.889              2.981             28.744
 Vibrational            102.993             25.998             21.124
 Vibration     1          0.598              1.969              4.164
 Vibration     2          0.603              1.951              3.514
 Vibration     3          0.633              1.854              2.233
 Vibration     4          0.639              1.836              2.110
 Vibration     5          0.659              1.774              1.779
 Vibration     6          0.696              1.664              1.389
 Vibration     7          0.751              1.511              1.035
 Vibration     8          0.764              1.476              0.972
 Vibration     9          0.822              1.328              0.753
 Vibration    10          0.892              1.168              0.571

 Optimization completed.
    -- Stationary point found.
 Normal termination of Gaussian 09 at Mon Jan 27 23:56:00 2020.
