 Gaussian 09, Revision D.01,
 Gaussian 09:  ES64L-G09RevD.01 24-Apr-2013

 -----------------------------
 # b3lyp 6-31G(2df,p) opt Freq
 -----------------------------

 -----
 titel
 -----
 Symbolic Z-matrix:
 Charge =  0 Multiplicity = 1

 SCF Done:  E(RB3LYP) =  -423.119671575     A.U. after   14 cycles
 Optimization completed.
    -- Stationary point found.
 Normal termination of Gaussian 09 at Mon Jan 27 22:14:29 2020.

 ----------------------------------------------------------------------
 #N Geom=AllCheck Guess=TCheck SCRF=Check GenChk RB3LYP/6-31G(2df,p) Fr
 eq
 ----------------------------------------------------------------------

 Structure from the checkpoint file:  "/scratch/puck/g09_51d90f60-6c95-43ae-851b-167bb4f41d83/Gau-28965.chk"
 -----
 titel
 -----
 Charge =  0 Multiplicity = 1

                         Standard orientation:
 ---------------------------------------------------------------------
 Center     Atomic      Atomic             Coordinates (Angstroms)
 Number     Number       Type             X           Y           Z
 ---------------------------------------------------------------------
      1          6           0       -2.945206    0.114722   -0.365797
      2          6           0       -1.471767   -0.226680   -0.280872
      3          6           0       -0.794202   -0.039980    1.047552
      4          6           0       -0.510160    0.918453   -0.127215
      5          6           0        0.972269    0.487033   -0.145978
      6          8           0        1.817045    1.588138   -0.068585
      7          6           0        1.380949   -0.762805   -0.962708
      8          8           0        0.964156   -1.636235    0.116940
      9          6           0        0.673014   -0.515001    0.994847
     10          1           0       -3.235434    0.350560   -1.395077
     11          1           0       -3.561627   -0.724362   -0.026562
     12          1           0       -3.190106    0.982266    0.256175
     13          1           0       -1.177982   -1.089394   -0.871530
     14          1           0       -1.356664    0.136974    1.957010
     15          1           0       -0.811989    1.950391   -0.260774
     16          1           0        2.714428    1.275120    0.091235
     17          1           0        0.855033   -0.969514   -1.901543
     18          1           0        2.465697   -0.828881   -1.135007
     19          1           0        1.219647   -0.552842    1.940263
 ---------------------------------------------------------------------

 SCF Done:  E(RB3LYP) =  -423.119671575     A.U. after    1 cycles

 The electronic state is 1-A.
 Alpha  occ. eigenvalues --  -19.15223 -19.13385 -10.24181 -10.22787 -10.22658
 Alpha  occ. eigenvalues --  -10.19433 -10.19218 -10.18941 -10.17988  -1.05005
 Alpha  occ. eigenvalues --   -1.02256  -0.88359  -0.74596  -0.70426  -0.66792
 Alpha  occ. eigenvalues --   -0.62058  -0.56704  -0.54064  -0.52152  -0.50419
 Alpha  occ. eigenvalues --   -0.46030  -0.45387  -0.42199  -0.40960  -0.39991
 Alpha  occ. eigenvalues --   -0.38560  -0.37511  -0.37133  -0.35550  -0.29170
 Alpha  occ. eigenvalues --   -0.29004  -0.28478  -0.25015  -0.23423
 Alpha virt. eigenvalues --    0.05780   0.07778   0.09749   0.10729   0.11769
 Alpha virt. eigenvalues --    0.14029   0.14685   0.15519   0.16415   0.17289
 Alpha virt. eigenvalues --    0.17900   0.18703   0.19326   0.20767   0.22766

 Mulliken charges:
               1
     1  C   -0.428351
     2  C   -0.018088
     3  C   -0.069346
     4  C   -0.110231
     5  C    0.357159
     6  O   -0.475757
     7  C   -0.163124
     8  O   -0.296372
     9  C    0.010295
    10  H    0.120354
    11  H    0.121920
    12  H    0.116729
    13  H    0.101900
    14  H    0.082898
    15  H    0.092869
    16  H    0.283102
    17  H    0.107934
    18  H    0.088015
    19  H    0.078092
 Sum of Mulliken charges =   0.00000

 Dipole moment (field-independent basis, Debye):
    X=              0.2768    Y=              0.5962    Z=              0.0489  Tot=              0.6591
 Quadrupole moment (field-independent basis, Debye-Ang):
   XX=            -46.3242   YY=            -60.2831   ZZ=            -50.9757
   XY=              0.2001   XZ=              0.1931   YZ=              1.2055

  Exact polarizability:  88.991  -0.714  65.655  -0.634   0.820  69.688
 Approx polarizability: 112.794   0.913 104.887  -1.276  -1.532 107.999

                      1                      2                      3
                      A                      A                      A
 Frequencies --    180.7180               183.1850               226.8913
 Red. masses --      2.5692                 2.1377                 1.6413
 Frc consts  --      0.0494                 0.0423                 0.0498
 IR Inten    --      2.0439                 1.8557                 2.5869

                      4                      5                      6
                      A                      A                      A
 Frequencies --    232.2724               278.7226               342.5831
 Red. masses --      2.2718                 1.7606                 1.6914
 Frc consts  --      0.0722                 0.0806                 0.1170
 IR Inten    --      6.3453                12.7665                55.1492

                      7                      8                      9
                      A                      A                      A
 Frequencies --    352.8576               382.3683               459.0379
 Red. masses --      2.5888                 3.7026                 2.5803
 Frc consts  --      0.1899                 0.3189                 0.3203
 IR Inten    --     10.9301                20.3669                 3.9078

                     10                     11                     12
                      A                      A                      A
 Frequencies --    526.7003               655.3571               718.2339
 Red. masses --      4.2464                 4.7438                 4.5873
 Frc consts  --      0.6941                 1.2004                 1.3942
 IR Inten    --      5.1422                 5.0834                 1.3839

                     13                     14                     15
                      A                      A                      A
 Frequencies --    768.7416               828.9097               852.2942
 Red. masses --      2.5157                 1.8709                 2.0511
 Frc consts  --      0.8759                 0.7574                 0.8778
 IR Inten    --      6.6399                 2.7101                 3.4667

                     16                     17                     18
                      A                      A                      A
 Frequencies --    886.1075               900.3047               945.0854
 Red. masses --      2.2348                 2.1094                 1.7336
 Frc consts  --      1.0338                 1.0074                 0.9123
 IR Inten    --      9.7524                28.9144                 9.8843

                     19                     20                     21
                      A                      A                      A
 Frequencies --    974.7876               998.2286              1001.3823
 Red. masses --      3.7463                 1.9549                 2.8543
 Frc consts  --      2.0973                 1.1477                 1.6863
 IR Inten    --     63.1255                 1.8254                14.3622

                     22                     23                     24
                      A                      A                      A
 Frequencies --   1029.3573              1043.2454              1073.2292
 Red. masses --      2.0607                 1.2463                 2.3466
 Frc consts  --      1.2865                 0.7992                 1.5925
 IR Inten    --     24.5647                 3.3941                 2.9767

                     25                     26                     27
                      A                      A                      A
 Frequencies --   1094.3667              1106.2976              1143.9050
 Red. masses --      2.3826                 1.8223                 1.5502
 Frc consts  --      1.6812                 1.3140                 1.1952
 IR Inten    --     44.3357                14.0811                 0.4294

                     28                     29                     30
                      A                      A                      A
 Frequencies --   1146.6759              1173.4636              1195.3053
 Red. masses --      1.2172                 2.1009                 1.8493
 Frc consts  --      0.9430                 1.7045                 1.5567
 IR Inten    --      3.4796                11.1484                 0.9200

                     31                     32                     33
                      A                      A                      A
 Frequencies --   1230.9197              1267.5288              1272.1101
 Red. masses --      1.8093                 1.7523                 1.4577
 Frc consts  --      1.6152                 1.6587                 1.3898
 IR Inten    --      7.4351                59.7312                12.9022

                     34                     35                     36
                      A                      A                      A
 Frequencies --   1313.5400              1357.3021              1392.0945
 Red. masses --      1.4261                 2.0049                 1.8958
 Frc consts  --      1.4497                 2.1762                 2.1646
 IR Inten    --     11.4906                70.4120                 8.6304

                     37                     38                     39
                      A                      A                      A
 Frequencies --   1416.1214              1423.3190              1494.4337
 Red. masses --      1.2380                 2.5202                 1.0444
 Frc consts  --      1.4627                 3.0081                 1.3743
 IR Inten    --      4.6997                 9.8124                 1.7675

                     40                     41                     42
                      A                      A                      A
 Frequencies --   1502.0602              1510.4154              2989.3428
 Red. masses --      1.0753                 1.1042                 1.0633
 Frc consts  --      1.4294                 1.4842                 5.5985
 IR Inten    --      3.5443                 2.1062                77.8305

                     43                     44                     45
                      A                      A                      A
 Frequencies --   3030.0696              3060.7211              3083.6047
 Red. masses --      1.0349                 1.1010                 1.0894
 Frc consts  --      5.5985                 6.0770                 6.1031
 IR Inten    --     33.7648                38.5596                40.9519

                     46                     47                     48
                      A                      A                      A
 Frequencies --   3096.3580              3097.3236              3149.8964
 Red. masses --      1.1011                 1.1009                 1.0879
 Frc consts  --      6.2198                 6.2224                 6.3595
 IR Inten    --     19.6884                19.7674                14.5112

                     49                     50                     51
                      A                      A                      A
 Frequencies --   3173.7323              3188.2320              3799.2267
 Red. masses --      1.0901                 1.0950                 1.0657
 Frc consts  --      6.4693                 6.5578                 9.0632
 IR Inten    --     17.7197                 9.8440                17.4362

 - Thermochemistry -
 -------------------
 Temperature   298.150 Kelvin.  Pressure   1.00000 Atm.
 Atom     1 has atomic number  6 and mass  12.00000

 Molecular mass:   126.06808 amu.
 Principal axes and moments of inertia in atomic units:
                           1         2         3
     Eigenvalues --   615.070061271.258801494.72123
           X            0.99992  -0.01242   0.00219
           Y            0.01233   0.99925   0.03658
           Z           -0.00265  -0.03655   0.99933
 This molecule is an asymmetric top.
 Rotational symmetry number  1.
 Warning -- assumption of classical behavior for rotation
           may cause significant error
 Rotational temperatures (Kelvin)      0.14082     0.06813     0.05795
 Rotational constants (GHZ):           2.93420     1.41965     1.20741
 Zero-point vibrational energy     415995.2 (Joules/Mol)
                                   99.42524 (Kcal/Mol)
 Warning -- explicit consideration of  10 degrees of freedom as
           vibrations may cause significant error
 Vibrational temperatures:    260.01   263.56   326.45   334.19   401.02
          (Kelvin)            492.90   507.68   550.14   660.45   757.80
                              942.91  1033.38  1106.05  1192.61  1226.26
                             1274.91  1295.34  1359.77  1402.50  1436.23
                             1440.76  1481.01  1501.00  1544.14  1574.55
                             1591.71  1645.82  1649.81  1688.35  1719.78
                             1771.02  1823.69  1830.28  1889.89  1952.85
                             2002.91  2037.48  2047.84  2150.15  2161.13
                             2173.15  4300.99  4359.59  4403.69  4436.61
                             4454.96  4456.35  4531.99  4566.29  4587.15
                             5466.23

 Zero-point correction=                           0.158444 (Hartree/Particle)
 Thermal correction to Energy=                    0.166497
 Thermal correction to Enthalpy=                  0.167441
 Thermal correction to Gibbs Free Energy=         0.126419
 Sum of electronic and zero-point Energies=           -422.961227
 Sum of electronic and thermal Energies=              -422.953175
 Sum of electronic and thermal Enthalpies=            -422.952231
 Sum of electronic and thermal Free Energies=         -422.993253

                     E (Thermal)             CV                S
                      KCal/Mol        Cal/Mol-Kelvin    Cal/Mol-Kelvin
 Total                  104.478             32.169             86.338
 Electronic               0.000              0.000              0.000
 Translational            0.889              2.981             40.409
 Rotational               0.889              2.981             28.549
 Vibrational            102.701             26.208             17.381
 Vibration     1          0.630              1.866              2.321
 Vibration     2          0.631              1.863              2.296
 Vibration     3          0.651              1.800              1.903
 Vibration     4          0.653              1.792              1.861
 Vibration     5          0.679              1.713              1.542
 Vibration     6          0.722              1.590              1.200
 Vibration     7          0.729              1.569              1.153
 Vibration     8          0.752              1.508              1.030
 Vibration     9          0.817              1.341              0.769
 Vibration    10          0.882              1.191              0.595

 Optimization completed.
    -- Stationary point found.
 Normal termination of Gaussian 09 at Tue Jan 28 00:23:57 2020.
