 Gaussian 09, Revision D.01,
 Gaussian 09:  ES64L-G09RevD.01 24-Apr-2013

 -----------------------------
 # b3lyp 6-31G(2df,p) opt Freq
 -----------------------------

 -----
 titel
 -----
 Symbolic Z-matrix:
 Charge =  0 Multiplicity = 1

 SCF Done:  E(RB3LYP) =  -423.122730648     A.U. after   14 cycles
 Optimization completed.
    -- Stationary point found.
 Normal termination of Gaussian 09 at Tue Jan 28 04:04:02 2020.

 ----------------------------------------------------------------------
 #N Geom=AllCheck Guess=TCheck SCRF=Check GenChk RB3LYP/6-31G(2df,p) Fr
 eq
 ----------------------------------------------------------------------

 Structure from the checkpoint file:  "/scratch/puck/g09_685846ea-0525-452f-be9a-42bc60edae07/Gau-176297.chk"
 -----
 titel
 -----
 Charge =  0 Multiplicity = 1

                         Standard orientation:
 ---------------------------------------------------------------------
 Center     Atomic      Atomic             Coordinates (Angstroms)
 Number     Number       Type             X           Y           Z
 ---------------------------------------------------------------------
      1          6           0       -1.937295   -1.512820   -0.213986
      2          6           0       -1.419037   -0.249377    0.444914
      3          8           0       -1.947397    0.950338   -0.167532
      4          6           0       -0.629103    1.529532   -0.278460
      5          6           0        0.032458    0.225392    0.188604
      6          6           0        1.130445    0.128655    1.298860
      7          6           0        2.023192   -0.605651    0.290007
      8          8           0        2.170613    0.255908   -0.845218
      9          6           0        0.981472   -0.541360   -0.745771
     10          1           0       -1.721731   -1.514960   -1.286261
     11          1           0       -1.487139   -2.402251    0.240594
     12          1           0       -3.022352   -1.578803   -0.087522
     13          1           0       -1.654610   -0.264904    1.520688
     14          1           0       -0.399111    1.853202   -1.299856
     15          1           0       -0.496125    2.379193    0.404645
     16          1           0        1.531252    1.068814    1.686831
     17          1           0        0.809034   -0.505019    2.131055
     18          1           0        2.806395   -1.333683    0.464657
     19          1           0        0.755865   -1.197779   -1.577836
 ---------------------------------------------------------------------

 SCF Done:  E(RB3LYP) =  -423.122730648     A.U. after    1 cycles

 The electronic state is 1-A.
 Alpha  occ. eigenvalues --  -19.15493 -19.12870 -10.24212 -10.23983 -10.23703
 Alpha  occ. eigenvalues --  -10.22537 -10.20407 -10.19516 -10.18160  -1.08128
 Alpha  occ. eigenvalues --   -1.03468  -0.81176  -0.75211  -0.70059  -0.65176
 Alpha  occ. eigenvalues --   -0.63856  -0.59372  -0.54283  -0.52059  -0.47972
 Alpha  occ. eigenvalues --   -0.46881  -0.44866  -0.42969  -0.42217  -0.40426
 Alpha  occ. eigenvalues --   -0.39211  -0.38022  -0.37293  -0.34852  -0.32119
 Alpha  occ. eigenvalues --   -0.30326  -0.28498  -0.26191  -0.24359
 Alpha virt. eigenvalues --    0.07640   0.08591   0.08977   0.10373   0.10771
 Alpha virt. eigenvalues --    0.12923   0.13077   0.14072   0.15033   0.16654
 Alpha virt. eigenvalues --    0.17212   0.17626   0.18370   0.19235   0.20982

 Mulliken charges:
               1
     1  C   -0.405310
     2  C    0.090832
     3  O   -0.297995
     4  C   -0.126986
     5  C    0.269108
     6  C   -0.349547
     7  C    0.039995
     8  O   -0.249297
     9  C   -0.055516
    10  H    0.121341
    11  H    0.115727
    12  H    0.130750
    13  H    0.069470
    14  H    0.111784
    15  H    0.099531
    16  H    0.113069
    17  H    0.109252
    18  H    0.107256
    19  H    0.106535
 Sum of Mulliken charges =   0.00000

 Dipole moment (field-independent basis, Debye):
    X=              0.4365    Y=             -1.8419    Z=              1.2680  Tot=              2.2784
 Quadrupole moment (field-independent basis, Debye-Ang):
   XX=            -59.6094   YY=            -51.4796   ZZ=            -51.9101
   XY=              0.6047   XZ=              2.1555   YZ=              0.8208

  Exact polarizability:  80.312   1.199  72.579   2.069  -0.070  70.236
 Approx polarizability: 111.450   2.192 104.017   2.251  -3.503 108.696

                      1                      2                      3
                      A                      A                      A
 Frequencies --     65.9858               123.4277               185.3159
 Red. masses --      3.2487                 3.4327                 3.6872
 Frc consts  --      0.0083                 0.0308                 0.0746
 IR Inten    --      1.5780                 1.8412                 2.8819

                      4                      5                      6
                      A                      A                      A
 Frequencies --    224.9277               258.5701               340.5141
 Red. masses --      1.3539                 1.6678                 2.4941
 Frc consts  --      0.0404                 0.0657                 0.1704
 IR Inten    --      1.3575                 1.3174                 0.4522

                      7                      8                      9
                      A                      A                      A
 Frequencies --    404.8753               468.3059               482.1777
 Red. masses --      2.2902                 3.9271                 2.9222
 Frc consts  --      0.2212                 0.5074                 0.4003
 IR Inten    --      4.0691                 1.5210                 1.9616

                     10                     11                     12
                      A                      A                      A
 Frequencies --    573.6303               755.2324               792.3954
 Red. masses --      4.0514                 3.3628                 3.8766
 Frc consts  --      0.7855                 1.1301                 1.4341
 IR Inten    --      7.6293                 1.5621                 2.0193

                     13                     14                     15
                      A                      A                      A
 Frequencies --    837.9429               859.0943               861.1279
 Red. masses --      1.9937                 2.5127                 1.9354
 Frc consts  --      0.8248                 1.0926                 0.8456
 IR Inten    --      8.5875                 5.1874                17.9692

                     16                     17                     18
                      A                      A                      A
 Frequencies --    883.4990               917.0599               964.2787
 Red. masses --      2.4779                 2.3359                 2.3810
 Frc consts  --      1.1396                 1.1575                 1.3044
 IR Inten    --     19.2911                 6.2253                 0.6674

                     19                     20                     21
                      A                      A                      A
 Frequencies --    982.6889              1012.1349              1016.7437
 Red. masses --      1.9359                 2.6389                 2.1888
 Frc consts  --      1.1015                 1.5928                 1.3332
 IR Inten    --     17.1146                62.1595                24.5271

                     22                     23                     24
                      A                      A                      A
 Frequencies --   1046.3964              1086.8719              1101.5509
 Red. masses --      1.3896                 2.7484                 2.1110
 Frc consts  --      0.8964                 1.9128                 1.5092
 IR Inten    --      0.9268                30.7015                 5.6205

                     25                     26                     27
                      A                      A                      A
 Frequencies --   1114.8872              1151.9680              1177.8502
 Red. masses --      1.8313                 1.4145                 2.0293
 Frc consts  --      1.3411                 1.1060                 1.6588
 IR Inten    --      4.9081                 2.6324                11.7226

                     28                     29                     30
                      A                      A                      A
 Frequencies --   1184.6746              1210.1442              1231.7487
 Red. masses --      1.5241                 1.7472                 1.4492
 Frc consts  --      1.2603                 1.5075                 1.2955
 IR Inten    --      4.1599                 0.1093                 4.2158

                     31                     32                     33
                      A                      A                      A
 Frequencies --   1256.1157              1286.2637              1307.1272
 Red. masses --      1.6558                 1.3905                 2.0768
 Frc consts  --      1.5393                 1.3554                 2.0907
 IR Inten    --      2.7285                 1.3703                 5.7370

                     34                     35                     36
                      A                      A                      A
 Frequencies --   1364.5149              1381.7014              1384.1277
 Red. masses --      1.7117                 2.4017                 1.6531
 Frc consts  --      1.8777                 2.7014                 1.8660
 IR Inten    --      5.5940                 6.2313                20.6312

                     37                     38                     39
                      A                      A                      A
 Frequencies --   1404.5554              1468.9952              1481.2849
 Red. masses --      1.3670                 1.1196                 1.0563
 Frc consts  --      1.5889                 1.4235                 1.3656
 IR Inten    --     18.1918                 1.5736                 2.8006

                     40                     41                     42
                      A                      A                      A
 Frequencies --   1497.3421              1521.3952              2974.0673
 Red. masses --      1.0493                 1.1051                 1.0831
 Frc consts  --      1.3862                 1.5070                 5.6445
 IR Inten    --      4.0503                 0.3655                53.9436

                     43                     44                     45
                      A                      A                      A
 Frequencies --   3008.7959              3035.1388              3053.7089
 Red. masses --      1.0606                 1.0353                 1.0577
 Frc consts  --      5.6569                 5.6191                 5.8114
 IR Inten    --     61.0973                11.0358                22.8244

                     46                     47                     48
                      A                      A                      A
 Frequencies --   3062.0692              3106.5239              3111.2009
 Red. masses --      1.1056                 1.1005                 1.1080
 Frc consts  --      6.1078                 6.2573                 6.3189
 IR Inten    --     34.7418                18.0164                16.2762

                     49                     50                     51
                      A                      A                      A
 Frequencies --   3116.2490              3182.4273              3197.5661
 Red. masses --      1.1022                 1.0871                 1.1013
 Frc consts  --      6.3063                 6.4867                 6.6346
 IR Inten    --     24.5041                15.9580                19.5270

 - Thermochemistry -
 -------------------
 Temperature   298.150 Kelvin.  Pressure   1.00000 Atm.
 Atom     1 has atomic number  6 and mass  12.00000

 Molecular mass:   126.06808 amu.
 Principal axes and moments of inertia in atomic units:
                           1         2         3
     Eigenvalues --   588.652891340.292551500.29564
           X            0.99945   0.02810   0.01755
           Y           -0.02874   0.99888   0.03757
           Z           -0.01647  -0.03805   0.99914
 This molecule is an asymmetric top.
 Rotational symmetry number  1.
 Warning -- assumption of classical behavior for rotation
           may cause significant error
 Rotational temperatures (Kelvin)      0.14714     0.06462     0.05773
 Rotational constants (GHZ):           3.06588     1.34653     1.20292
 Zero-point vibrational energy     415805.1 (Joules/Mol)
                                   99.37981 (Kcal/Mol)
 Warning -- explicit consideration of  10 degrees of freedom as
           vibrations may cause significant error
 Vibrational temperatures:     94.94   177.58   266.63   323.62   372.02
          (Kelvin)            489.92   582.52   673.79   693.75   825.32
                             1086.61  1140.08  1205.61  1236.04  1238.97
                             1271.16  1319.44  1387.38  1413.87  1456.23
                             1462.87  1505.53  1563.76  1584.88  1604.07
                             1657.42  1694.66  1704.48  1741.13  1772.21
                             1807.27  1850.64  1880.66  1963.23  1987.96
                             1991.45  2020.84  2113.55  2131.24  2154.34
                             2188.95  4279.01  4328.98  4366.88  4393.60
                             4405.63  4469.59  4476.32  4483.58  4578.80
                             4600.58

 Zero-point correction=                           0.158372 (Hartree/Particle)
 Thermal correction to Energy=                    0.166523
 Thermal correction to Enthalpy=                  0.167467
 Thermal correction to Gibbs Free Energy=         0.125383
 Sum of electronic and zero-point Energies=           -422.964359
 Sum of electronic and thermal Energies=              -422.956208
 Sum of electronic and thermal Enthalpies=            -422.955263
 Sum of electronic and thermal Free Energies=         -422.997347

                     E (Thermal)             CV                S
                      KCal/Mol        Cal/Mol-Kelvin    Cal/Mol-Kelvin
 Total                  104.495             31.109             88.573
 Electronic               0.000              0.000              0.000
 Translational            0.889              2.981             40.409
 Rotational               0.889              2.981             28.561
 Vibrational            102.717             25.148             19.603
 Vibration     1          0.597              1.971              4.270
 Vibration     2          0.610              1.929              3.046
 Vibration     3          0.631              1.860              2.274
 Vibration     4          0.650              1.803              1.919
 Vibration     5          0.667              1.748              1.671
 Vibration     6          0.720              1.595              1.210
 Vibration     7          0.770              1.460              0.945
 Vibration     8          0.825              1.320              0.742
 Vibration     9          0.838              1.290              0.704
 Vibration    10          0.930              1.088              0.497

 Optimization completed.
    -- Stationary point found.
 Normal termination of Gaussian 09 at Tue Jan 28 04:39:00 2020.
