 Gaussian 09, Revision D.01,
 Gaussian 09:  ES64L-G09RevD.01 24-Apr-2013

 -----------------------------
 # b3lyp 6-31G(2df,p) opt Freq
 -----------------------------

 -----
 titel
 -----
 Symbolic Z-matrix:
 Charge =  0 Multiplicity = 1

 SCF Done:  E(RB3LYP) =  -423.206268827     A.U. after   14 cycles
 Optimization completed.
    -- Stationary point found.
 Normal termination of Gaussian 09 at Mon Jan 27 14:10:50 2020.

 ----------------------------------------------------------------------
 #N Geom=AllCheck Guess=TCheck SCRF=Check GenChk RB3LYP/6-31G(2df,p) Fr
 eq
 ----------------------------------------------------------------------

 Structure from the checkpoint file:  "/scratch/puck/g09_6511d8a4-40d4-42b2-8bd2-cd59529d1b6d/Gau-70742.chk"
 -----
 titel
 -----
 Charge =  0 Multiplicity = 1

                         Standard orientation:
 ---------------------------------------------------------------------
 Center     Atomic      Atomic             Coordinates (Angstroms)
 Number     Number       Type             X           Y           Z
 ---------------------------------------------------------------------
      1          6           0       -2.326660   -0.646459    1.017338
      2          6           0       -1.941358    0.149079   -0.216118
      3          8           0       -2.608461    0.128612   -1.223363
      4          6           0       -0.676454    1.006430   -0.139663
      5          6           0        0.507659    0.337690    0.575004
      6          8           0        0.735008   -0.964743    0.023537
      7          6           0        2.075324   -1.084295   -0.450447
      8          6           0        2.699305    0.257727   -0.191929
      9          6           0        1.817782    1.057898    0.394934
     10          1           0       -3.326319   -1.061744    0.885508
     11          1           0       -1.607085   -1.460782    1.154965
     12          1           0       -2.293769   -0.026184    1.919931
     13          1           0       -0.405280    1.282112   -1.161990
     14          1           0       -0.933780    1.930064    0.399011
     15          1           0        0.264123    0.227809    1.644906
     16          1           0        2.591407   -1.896171    0.086022
     17          1           0        2.070933   -1.352448   -1.517794
     18          1           0        3.721886    0.495691   -0.455656
     19          1           0        1.971913    2.082288    0.708983
 ---------------------------------------------------------------------

 SCF Done:  E(RB3LYP) =  -423.206268827     A.U. after    1 cycles

 The electronic state is 1-A.
 Alpha  occ. eigenvalues --  -19.14287 -19.11971 -10.26468 -10.24621 -10.23761
 Alpha  occ. eigenvalues --  -10.19650 -10.19461 -10.18891 -10.18083  -1.04131
 Alpha  occ. eigenvalues --   -1.03075  -0.80027  -0.78650  -0.73239  -0.69041
 Alpha  occ. eigenvalues --   -0.59828  -0.57244  -0.52275  -0.51706  -0.48547
 Alpha  occ. eigenvalues --   -0.45978  -0.44798  -0.43383  -0.42477  -0.40789
 Alpha  occ. eigenvalues --   -0.39996  -0.38140  -0.37391  -0.35997  -0.33857
 Alpha  occ. eigenvalues --   -0.33113  -0.28516  -0.24631  -0.23320
 Alpha virt. eigenvalues --   -0.00567   0.01118   0.08515   0.11283   0.12134
 Alpha virt. eigenvalues --    0.13732   0.14026   0.14529   0.15776   0.16585
 Alpha virt. eigenvalues --    0.16844   0.17305   0.18693   0.18987   0.21403

 Mulliken charges:
               1
     1  C   -0.485181
     2  C    0.402244
     3  O   -0.297565
     4  C   -0.311684
     5  C    0.078065
     6  O   -0.277391
     7  C   -0.115460
     8  C   -0.094718
     9  C   -0.090425
    10  H    0.136433
    11  H    0.164942
    12  H    0.125852
    13  H    0.123219
    14  H    0.114581
    15  H    0.084269
    16  H    0.108442
    17  H    0.114168
    18  H    0.111295
    19  H    0.108915
 Sum of Mulliken charges =   0.00000

 Dipole moment (field-independent basis, Debye):
    X=              2.8322    Y=              0.9726    Z=              2.1551  Tot=              3.6894
 Quadrupole moment (field-independent basis, Debye-Ang):
   XX=            -54.0160   YY=            -51.2699   ZZ=            -54.9914
   XY=             -0.0443   XZ=             -7.5680   YZ=              1.4232

  Exact polarizability:  93.586  -2.652  72.680  -4.732   4.079  67.909
 Approx polarizability: 122.616  -8.739 109.966  -3.754  10.494 109.784

                      1                      2                      3
                      A                      A                      A
 Frequencies --     50.2408                70.0642                97.4208
 Red. masses --      4.1523                 4.0431                 3.9201
 Frc consts  --      0.0062                 0.0117                 0.0219
 IR Inten    --      3.2416                 1.3740                 3.1053

                      4                      5                      6
                      A                      A                      A
 Frequencies --    146.4364               181.5577               270.8615
 Red. masses --      2.9717                 1.0381                 3.0873
 Frc consts  --      0.0375                 0.0202                 0.1335
 IR Inten    --      2.0008                 0.1553                 1.1417

                      7                      8                      9
                      A                      A                      A
 Frequencies --    347.4429               412.0138               452.8342
 Red. masses --      2.3900                 3.3543                 3.0647
 Frc consts  --      0.1700                 0.3355                 0.3703
 IR Inten    --      1.3390                 3.0330                 4.1085

                     10                     11                     12
                      A                      A                      A
 Frequencies --    537.6207               559.3483               708.6669
 Red. masses --      2.2525                 2.9637                 1.4998
 Frc consts  --      0.3836                 0.5463                 0.4438
 IR Inten    --      4.8401                12.6131                26.6955

                     13                     14                     15
                      A                      A                      A
 Frequencies --    752.7874               788.6650               802.7033
 Red. masses --      3.3926                 2.4602                 4.3202
 Frc consts  --      1.1327                 0.9016                 1.6401
 IR Inten    --      4.9976                 1.2896                 1.7466

                     16                     17                     18
                      A                      A                      A
 Frequencies --    831.4539               909.3632               934.7596
 Red. masses --      3.3691                 1.8713                 2.1365
 Frc consts  --      1.3723                 0.9117                 1.0999
 IR Inten    --      7.4280                13.9726                 1.5609

                     19                     20                     21
                      A                      A                      A
 Frequencies --    959.4260               975.9749              1027.9451
 Red. masses --      1.2468                 2.3845                 1.7603
 Frc consts  --      0.6762                 1.3382                 1.0959
 IR Inten    --      0.5098                 0.6421                 5.3858

                     22                     23                     24
                      A                      A                      A
 Frequencies --   1041.7007              1046.5306              1086.5396
 Red. masses --      1.9942                 1.7928                 2.3254
 Frc consts  --      1.2750                 1.1569                 1.6175
 IR Inten    --     15.1597                 7.1421                 3.9611

                     25                     26                     27
                      A                      A                      A
 Frequencies --   1113.1823              1133.5928              1185.1998
 Red. masses --      4.0991                 1.4793                 1.3620
 Frc consts  --      2.9927                 1.1200                 1.1272
 IR Inten    --    116.8069                17.8242                17.0966

                     28                     29                     30
                      A                      A                      A
 Frequencies --   1204.2348              1245.6080              1271.8202
 Red. masses --      1.3176                 1.8646                 1.3413
 Frc consts  --      1.1258                 1.7045                 1.2783
 IR Inten    --     19.4960                59.9935                 1.5323

                     31                     32                     33
                      A                      A                      A
 Frequencies --   1321.5900              1359.5025              1379.2428
 Red. masses --      1.3260                 1.6462                 1.3325
 Frc consts  --      1.3645                 1.7926                 1.4935
 IR Inten    --      3.2378                 2.8583                42.2845

                     34                     35                     36
                      A                      A                      A
 Frequencies --   1382.6298              1389.3182              1451.4396
 Red. masses --      1.5185                 1.3989                 1.0893
 Frc consts  --      1.7103                 1.5909                 1.3521
 IR Inten    --     16.7297                 8.5117                 2.9469

                     37                     38                     39
                      A                      A                      A
 Frequencies --   1468.9367              1479.7629              1520.4417
 Red. masses --      1.0549                 1.0489                 1.0851
 Frc consts  --      1.3411                 1.3533                 1.4779
 IR Inten    --     11.4050                 8.9129                 2.1115

                     40                     41                     42
                      A                      A                      A
 Frequencies --   1691.3922              1816.6218              2957.9245
 Red. masses --      6.5000                10.7791                 1.0816
 Frc consts  --     10.9560                20.9586                 5.5754
 IR Inten    --      0.4475               174.1219                58.5275

                     43                     44                     45
                      A                      A                      A
 Frequencies --   2978.8617              3000.5473              3018.2215
 Red. masses --      1.0600                 1.1021                 1.0659
 Frc consts  --      5.5417                 5.8460                 5.7211
 IR Inten    --     76.7065                40.8577                 9.8984

                     46                     47                     48
                      A                      A                      A
 Frequencies --   3038.1851              3103.1649              3105.0279
 Red. masses --      1.0368                 1.0977                 1.0955
 Frc consts  --      5.6384                 6.2279                 6.2228
 IR Inten    --      5.0914                 3.4262                13.8190

                     49                     50                     51
                      A                      A                      A
 Frequencies --   3152.2822              3208.3349              3232.6293
 Red. masses --      1.1023                 1.0854                 1.1066
 Frc consts  --      6.4533                 6.5825                 6.8135
 IR Inten    --     11.6780                 2.0031                 8.1283

 - Thermochemistry -
 -------------------
 Temperature   298.150 Kelvin.  Pressure   1.00000 Atm.
 Atom     1 has atomic number  6 and mass  12.00000

 Molecular mass:   126.06808 amu.
 Principal axes and moments of inertia in atomic units:
                           1         2         3
     Eigenvalues --   498.855821867.830871948.32426
           X            0.99957   0.00504  -0.02888
           Y           -0.00496   0.99998   0.00297
           Z            0.02890  -0.00283   0.99958
 This molecule is an asymmetric top.
 Rotational symmetry number  1.
 Warning -- assumption of classical behavior for rotation
           may cause significant error
 Rotational temperatures (Kelvin)      0.17362     0.04637     0.04446
 Rotational constants (GHZ):           3.61776     0.96622     0.92630
 Zero-point vibrational energy     413920.2 (Joules/Mol)
                                   98.92930 (Kcal/Mol)
 Warning -- explicit consideration of  11 degrees of freedom as
           vibrations may cause significant error
 Vibrational temperatures:     72.29   100.81   140.17   210.69   261.22
          (Kelvin)            389.71   499.89   592.80   651.53   773.52
                              804.78  1019.61  1083.09  1134.71  1154.91
                             1196.28  1308.37  1344.91  1380.40  1404.21
                             1478.98  1498.77  1505.72  1563.29  1601.62
                             1630.99  1705.24  1732.62  1792.15  1829.86
                             1901.47  1956.02  1984.42  1989.29  1998.92
                             2088.30  2113.47  2129.05  2187.57  2433.53
                             2613.71  4255.79  4285.91  4317.11  4342.54
                             4371.27  4464.76  4467.44  4535.43  4616.07
                             4651.03

 Zero-point correction=                           0.157654 (Hartree/Particle)
 Thermal correction to Energy=                    0.166766
 Thermal correction to Enthalpy=                  0.167711
 Thermal correction to Gibbs Free Energy=         0.122662
 Sum of electronic and zero-point Energies=           -423.048615
 Sum of electronic and thermal Energies=              -423.039502
 Sum of electronic and thermal Enthalpies=            -423.038558
 Sum of electronic and thermal Free Energies=         -423.083607

                     E (Thermal)             CV                S
                      KCal/Mol        Cal/Mol-Kelvin    Cal/Mol-Kelvin
 Total                  104.648             32.812             94.813
 Electronic               0.000              0.000              0.000
 Translational            0.889              2.981             40.409
 Rotational               0.889              2.981             28.986
 Vibrational            102.870             26.851             25.418
 Vibration     1          0.595              1.978              4.808
 Vibration     2          0.598              1.968              4.152
 Vibration     3          0.603              1.951              3.505
 Vibration     4          0.617              1.907              2.718
 Vibration     5          0.630              1.865              2.312
 Vibration     6          0.675              1.727              1.591
 Vibration     7          0.725              1.580              1.178
 Vibration     8          0.776              1.444              0.920
 Vibration     9          0.811              1.355              0.787
 Vibration    10          0.893              1.167              0.570
 Vibration    11          0.915              1.119              0.525

 Normal termination of Gaussian 09 at Mon Jan 27 14:58:20 2020.
