 Gaussian 09, Revision D.01,
 Gaussian 09:  ES64L-G09RevD.01 24-Apr-2013

 -----------------------------
 # b3lyp 6-31G(2df,p) opt Freq
 -----------------------------

 -----
 titel
 -----
 Symbolic Z-matrix:
 Charge =  0 Multiplicity = 1

 SCF Done:  E(RB3LYP) =  -423.185485309     A.U. after   14 cycles
 Optimization completed.
    -- Stationary point found.
 Normal termination of Gaussian 09 at Mon Jan 27 13:26:26 2020.

 ----------------------------------------------------------------------
 #N Geom=AllCheck Guess=TCheck SCRF=Check GenChk RB3LYP/6-31G(2df,p) Fr
 eq
 ----------------------------------------------------------------------

 Structure from the checkpoint file:  "/scratch/puck/g09_2657bac8-b8ec-4453-a41a-a7927d8f9632/Gau-55485.chk"
 -----
 titel
 -----
 Charge =  0 Multiplicity = 1

                         Standard orientation:
 ---------------------------------------------------------------------
 Center     Atomic      Atomic             Coordinates (Angstroms)
 Number     Number       Type             X           Y           Z
 ---------------------------------------------------------------------
      1          8           0        3.109107   -0.134558   -0.452650
      2          6           0        2.127652   -0.747673   -0.122577
      3          6           0        0.982460   -0.164786    0.701739
      4          6           0        0.688469    1.312070    0.386009
      5          6           0       -0.467833    1.198495   -0.623069
      6          6           0       -1.184612   -0.037127   -0.120131
      7          6           0       -2.507936    0.011484    0.596509
      8          6           0       -2.371138   -0.674268   -0.756808
      9          8           0       -0.196369   -0.913515    0.396337
     10          1           0        1.972320   -1.814544   -0.396220
     11          1           0        1.242156   -0.312976    1.761007
     12          1           0        0.362979    1.835455    1.288637
     13          1           0        1.577649    1.808937   -0.005576
     14          1           0       -1.109003    2.081753   -0.647200
     15          1           0       -0.079215    1.029890   -1.634441
     16          1           0       -2.621509   -0.630042    1.463037
     17          1           0       -3.042400    0.954538    0.648590
     18          1           0       -2.399358   -1.758033   -0.768106
     19          1           0       -2.807902   -0.199572   -1.629256
 ---------------------------------------------------------------------

 SCF Done:  E(RB3LYP) =  -423.185485309     A.U. after    1 cycles

 The electronic state is 1-A.
 Alpha  occ. eigenvalues --  -19.14984 -19.14640 -10.27115 -10.24392 -10.24361
 Alpha  occ. eigenvalues --  -10.19418 -10.19361 -10.18715 -10.18484  -1.05708
 Alpha  occ. eigenvalues --   -1.04445  -0.85534  -0.79250  -0.72425  -0.63610
 Alpha  occ. eigenvalues --   -0.60785  -0.57021  -0.55459  -0.50744  -0.50288
 Alpha  occ. eigenvalues --   -0.48143  -0.45824  -0.44085  -0.43081  -0.39137
 Alpha  occ. eigenvalues --   -0.38850  -0.37523  -0.36717  -0.35786  -0.33790
 Alpha  occ. eigenvalues --   -0.32440  -0.29736  -0.26313  -0.23358
 Alpha virt. eigenvalues --   -0.02793   0.08276   0.09735   0.10950   0.11225
 Alpha virt. eigenvalues --    0.12958   0.13707   0.15468   0.16476   0.16754
 Alpha virt. eigenvalues --    0.17410   0.19520   0.20174   0.20937   0.22522

 Mulliken charges:
               1
     1  O   -0.240514
     2  C    0.138027
     3  C    0.023184
     4  C   -0.253329
     5  C   -0.300762
     6  C    0.471592
     7  C   -0.326039
     8  C   -0.336614
     9  O   -0.314817
    10  H    0.093438
    11  H    0.105255
    12  H    0.110444
    13  H    0.132336
    14  H    0.109336
    15  H    0.114559
    16  H    0.121105
    17  H    0.110726
    18  H    0.125889
    19  H    0.116182
 Sum of Mulliken charges =   0.00000

 Dipole moment (field-independent basis, Debye):
    X=             -2.0035    Y=              0.6721    Z=              0.5424  Tot=              2.1817
 Quadrupole moment (field-independent basis, Debye-Ang):
   XX=            -61.4336   YY=            -51.6343   ZZ=            -51.5740
   XY=             -2.2888   XZ=              3.3354   YZ=              0.1251

  Exact polarizability:  89.714   1.567  71.671  -0.637   1.671  66.214
 Approx polarizability: 118.481   5.150 105.977  -3.610   1.002 100.347

                      1                      2                      3
                      A                      A                      A
 Frequencies --     37.7333                90.9881               126.6379
 Red. masses --      6.1060                 3.2123                 2.7518
 Frc consts  --      0.0051                 0.0157                 0.0260
 IR Inten    --      1.4011                 9.3475                 1.3131

                      4                      5                      6
                      A                      A                      A
 Frequencies --    241.4213               289.7703               305.3127
 Red. masses --      3.0146                 2.0745                 2.8806
 Frc consts  --      0.1035                 0.1026                 0.1582
 IR Inten    --      5.2357                 2.9700                 2.3475

                      7                      8                      9
                      A                      A                      A
 Frequencies --    381.7940               441.4075               509.2510
 Red. masses --      2.5020                 2.8259                 3.3400
 Frc consts  --      0.2149                 0.3244                 0.5103
 IR Inten    --      1.1652                 3.0887                 2.5637

                     10                     11                     12
                      A                      A                      A
 Frequencies --    612.4541               664.7244               744.9441
 Red. masses --      4.0029                 2.5579                 3.0261
 Frc consts  --      0.8846                 0.6659                 0.9894
 IR Inten    --      3.2907                 3.6730                10.1982

                     13                     14                     15
                      A                      A                      A
 Frequencies --    768.5036               805.1897               864.5477
 Red. masses --      1.1056                 3.2274                 1.6099
 Frc consts  --      0.3847                 1.2328                 0.7089
 IR Inten    --      0.9030                 8.6571                16.1382

                     16                     17                     18
                      A                      A                      A
 Frequencies --    890.5022               907.5916               931.0165
 Red. masses --      1.9214                 1.9809                 1.7874
 Frc consts  --      0.8977                 0.9614                 0.9128
 IR Inten    --     15.1571                 8.3386                14.0141

                     19                     20                     21
                      A                      A                      A
 Frequencies --    957.9894               982.6132              1002.3078
 Red. masses --      2.1676                 2.8946                 1.7716
 Frc consts  --      1.1720                 1.6467                 1.0486
 IR Inten    --      3.4695                 7.8856                 1.2164

                     22                     23                     24
                      A                      A                      A
 Frequencies --   1040.6633              1055.0667              1074.1878
 Red. masses --      1.5591                 1.7045                 1.4717
 Frc consts  --      0.9948                 1.1179                 1.0005
 IR Inten    --      2.5647                17.4532                 0.4909

                     25                     26                     27
                      A                      A                      A
 Frequencies --   1090.3430              1112.7436              1165.2056
 Red. masses --      4.0227                 2.2109                 1.4427
 Frc consts  --      2.8177                 1.6129                 1.1540
 IR Inten    --     89.7369                 5.2918                11.6675

                     28                     29                     30
                      A                      A                      A
 Frequencies --   1188.0011              1202.7470              1237.2194
 Red. masses --      1.2911                 1.5100                 1.7238
 Frc consts  --      1.0736                 1.2870                 1.5546
 IR Inten    --      4.2151                31.9909                41.7169

                     31                     32                     33
                      A                      A                      A
 Frequencies --   1300.3425              1309.5903              1337.8463
 Red. masses --      1.6274                 1.4514                 1.4848
 Frc consts  --      1.6213                 1.4666                 1.5658
 IR Inten    --      5.4422                24.6629                 1.7043

                     34                     35                     36
                      A                      A                      A
 Frequencies --   1346.4264              1381.7296              1397.8492
 Red. masses --      1.3959                 2.0982                 1.2588
 Frc consts  --      1.4910                 2.3602                 1.4492
 IR Inten    --      2.0724                12.1166                 4.8123

                     37                     38                     39
                      A                      A                      A
 Frequencies --   1450.0131              1487.4762              1497.0487
 Red. masses --      1.0908                 1.0928                 1.2726
 Frc consts  --      1.3513                 1.4246                 1.6803
 IR Inten    --      1.9963                 2.5384                 9.6848

                     40                     41                     42
                      A                      A                      A
 Frequencies --   1505.1682              1833.5384              2899.2490
 Red. masses --      1.3994                10.7749                 1.0847
 Frc consts  --      1.8679                21.3423                 5.3722
 IR Inten    --     16.3352               134.8697                88.8159

                     43                     44                     45
                      A                      A                      A
 Frequencies --   2990.1427              3039.3283              3071.7518
 Red. masses --      1.0823                 1.0672                 1.0629
 Frc consts  --      5.7013                 5.8085                 5.9089
 IR Inten    --     37.5996                20.6511                20.1982

                     46                     47                     48
                      A                      A                      A
 Frequencies --   3112.2817              3129.2625              3131.4663
 Red. masses --      1.0965                 1.0524                 1.1016
 Frc consts  --      6.2579                 6.0717                 6.3648
 IR Inten    --     16.2210                12.7131                10.1199

                     49                     50                     51
                      A                      A                      A
 Frequencies --   3133.4681              3215.2187              3229.3051
 Red. masses --      1.0587                 1.1181                 1.1154
 Frc consts  --      6.1248                 6.8098                 6.8534
 IR Inten    --      6.9348                 0.1512                10.8592

 - Thermochemistry -
 -------------------
 Temperature   298.150 Kelvin.  Pressure   1.00000 Atm.
 Atom     1 has atomic number  8 and mass  15.99491

 Molecular mass:   126.06808 amu.
 Principal axes and moments of inertia in atomic units:
                           1         2         3
     Eigenvalues --   455.405671684.750211829.34231
           X            0.99996   0.00131   0.00856
           Y           -0.00149   0.99977   0.02132
           Z           -0.00853  -0.02134   0.99974
 This molecule is an asymmetric top.
 Rotational symmetry number  1.
 Warning -- assumption of classical behavior for rotation
           may cause significant error
 Rotational temperatures (Kelvin)      0.19019     0.05141     0.04735
 Rotational constants (GHZ):           3.96293     1.07122     0.98655
 Zero-point vibrational energy     415830.2 (Joules/Mol)
                                   99.38580 (Kcal/Mol)
 Warning -- explicit consideration of  10 degrees of freedom as
           vibrations may cause significant error
 Vibrational temperatures:     54.29   130.91   182.20   347.35   416.91
          (Kelvin)            439.28   549.32   635.09   732.70   881.18
                              956.39  1071.81  1105.70  1158.49  1243.89
                             1281.23  1305.82  1339.52  1378.33  1413.76
                             1442.10  1497.28  1518.00  1545.51  1568.76
                             1600.99  1676.47  1709.27  1730.48  1780.08
                             1870.90  1884.21  1924.86  1937.20  1988.00
                             2011.19  2086.24  2140.14  2153.92  2165.60
                             2638.05  4171.37  4302.14  4372.91  4419.56
                             4477.87  4502.31  4505.48  4508.36  4625.98
                             4646.24

 Zero-point correction=                           0.158381 (Hartree/Particle)
 Thermal correction to Energy=                    0.166837
 Thermal correction to Enthalpy=                  0.167781
 Thermal correction to Gibbs Free Energy=         0.124382
 Sum of electronic and zero-point Energies=           -423.027104
 Sum of electronic and thermal Energies=              -423.018648
 Sum of electronic and thermal Enthalpies=            -423.017704
 Sum of electronic and thermal Free Energies=         -423.061104

                     E (Thermal)             CV                S
                      KCal/Mol        Cal/Mol-Kelvin    Cal/Mol-Kelvin
 Total                  104.692             31.733             91.342
 Electronic               0.000              0.000              0.000
 Translational            0.889              2.981             40.409
 Rotational               0.889              2.981             28.730
 Vibrational            102.914             25.771             22.203
 Vibration     1          0.594              1.982              5.375
 Vibration     2          0.602              1.956              3.639
 Vibration     3          0.611              1.926              2.996
 Vibration     4          0.658              1.777              1.792
 Vibration     5          0.686              1.693              1.475
 Vibration     6          0.696              1.664              1.388
 Vibration     7          0.751              1.509              1.032
 Vibration     8          0.801              1.380              0.822
 Vibration     9          0.864              1.230              0.635
 Vibration    10          0.972              1.005              0.429

 Optimization completed.
    -- Stationary point found.
 Normal termination of Gaussian 09 at Mon Jan 27 14:10:11 2020.
