 Gaussian 09, Revision D.01,
 Gaussian 09:  ES64L-G09RevD.01 24-Apr-2013

 -----------------------------
 # b3lyp 6-31G(2df,p) opt Freq
 -----------------------------

 -----
 titel
 -----
 Symbolic Z-matrix:
 Charge =  0 Multiplicity = 1

 SCF Done:  E(RB3LYP) =  -423.215228727     A.U. after   14 cycles
 Optimization completed.
    -- Stationary point found.
 Normal termination of Gaussian 09 at Tue Jan 28 03:57:12 2020.

 ----------------------------------------------------------------------
 #N Geom=AllCheck Guess=TCheck SCRF=Check GenChk RB3LYP/6-31G(2df,p) Fr
 eq
 ----------------------------------------------------------------------

 Structure from the checkpoint file:  "/scratch/puck/g09_f2be7afe-45e8-48ab-acc6-3e9bdd808de7/Gau-116846.chk"
 -----
 titel
 -----
 Charge =  0 Multiplicity = 1

                         Standard orientation:
 ---------------------------------------------------------------------
 Center     Atomic      Atomic             Coordinates (Angstroms)
 Number     Number       Type             X           Y           Z
 ---------------------------------------------------------------------
      1          6           0       -3.125393   -0.338019    0.025148
      2          6           0       -1.657172   -0.097872    0.338053
      3          6           0       -1.175206    1.303289   -0.073174
      4          6           0        0.321821    1.369834   -0.075086
      5          6           0        1.080955    0.267327   -0.022849
      6          6           0        0.460201   -1.106627   -0.000718
      7          8           0       -0.908895   -1.090066   -0.353795
      8          6           0        2.545506    0.376015    0.017644
      9          8           0        3.297461   -0.571605    0.080902
     10          1           0       -3.298525   -0.267757   -1.053266
     11          1           0       -3.428004   -1.334638    0.356084
     12          1           0       -3.753571    0.403559    0.528053
     13          1           0       -1.489171   -0.213218    1.423177
     14          1           0       -1.557555    1.552072   -1.073973
     15          1           0       -1.587461    2.060840    0.605625
     16          1           0        0.797859    2.348278   -0.116787
     17          1           0        0.966956   -1.756660   -0.719965
     18          1           0        0.605345   -1.563208    0.993648
     19          1           0        2.931336    1.420417   -0.013552
 ---------------------------------------------------------------------

 SCF Done:  E(RB3LYP) =  -423.215228727     A.U. after    1 cycles

 The electronic state is 1-A.
 Alpha  occ. eigenvalues --  -19.14363 -19.13397 -10.26701 -10.24219 -10.23464
 Alpha  occ. eigenvalues --  -10.21482 -10.20119 -10.19940 -10.18154  -1.04223
 Alpha  occ. eigenvalues --   -1.03803  -0.82701  -0.79603  -0.71459  -0.67509
 Alpha  occ. eigenvalues --   -0.62308  -0.59331  -0.53830  -0.50772  -0.48219
 Alpha  occ. eigenvalues --   -0.47133  -0.44920  -0.42978  -0.41832  -0.41424
 Alpha  occ. eigenvalues --   -0.40466  -0.39092  -0.38582  -0.36287  -0.35579
 Alpha  occ. eigenvalues --   -0.31490  -0.26855  -0.26302  -0.24916
 Alpha virt. eigenvalues --   -0.05547   0.05887   0.08276   0.10772   0.11266
 Alpha virt. eigenvalues --    0.12962   0.13272   0.14849   0.16436   0.16881
 Alpha virt. eigenvalues --    0.17199   0.18314   0.19326   0.20479   0.21852

 Mulliken charges:
               1
     1  C   -0.403737
     2  C    0.133355
     3  C   -0.262997
     4  C   -0.144199
     5  C    0.190497
     6  C   -0.168878
     7  O   -0.259135
     8  C    0.095392
     9  O   -0.278016
    10  H    0.126904
    11  H    0.127689
    12  H    0.115118
    13  H    0.069388
    14  H    0.125115
    15  H    0.114965
    16  H    0.103724
    17  H    0.135945
    18  H    0.110169
    19  H    0.068701
 Sum of Mulliken charges =   0.00000

 Dipole moment (field-independent basis, Debye):
    X=             -2.5957    Y=              2.5769    Z=              0.5317  Tot=              3.6960
 Quadrupole moment (field-independent basis, Debye-Ang):
   XX=            -61.4783   YY=            -51.8140   ZZ=            -52.9182
   XY=              2.4637   XZ=             -1.4981   YZ=             -0.7444

  Exact polarizability: 106.625 -10.018  82.309   0.452  -1.581  54.814
 Approx polarizability: 144.551 -32.470 135.476   2.916  -2.071  87.372

                      1                      2                      3
                      A                      A                      A
 Frequencies --     75.6722               147.2028               179.9280
 Red. masses --      3.9621                 2.7087                 5.0176
 Frc consts  --      0.0134                 0.0346                 0.0957
 IR Inten    --      1.3315                 2.3795                 5.4261

                      4                      5                      6
                      A                      A                      A
 Frequencies --    207.9517               238.5622               307.5485
 Red. masses --      1.7505                 1.3861                 2.5346
 Frc consts  --      0.0446                 0.0465                 0.1412
 IR Inten    --      4.1947                 2.0393                 3.9570

                      7                      8                      9
                      A                      A                      A
 Frequencies --    314.1343               387.0341               431.1875
 Red. masses --      2.3077                 4.1629                 2.3360
 Frc consts  --      0.1342                 0.3674                 0.2559
 IR Inten    --      2.5393                 0.8791                 1.5877

                     10                     11                     12
                      A                      A                      A
 Frequencies --    468.9556               542.1256               588.2083
 Red. masses --      2.2878                 5.3678                 4.6630
 Frc consts  --      0.2964                 0.9295                 0.9506
 IR Inten    --      3.7658                 0.9640                 0.3891

                     13                     14                     15
                      A                      A                      A
 Frequencies --    723.7933               787.4205               827.7790
 Red. masses --      3.8567                 3.1637                 1.3417
 Frc consts  --      1.1904                 1.1557                 0.5417
 IR Inten    --     40.8556                 2.9590                 8.1982

                     16                     17                     18
                      A                      A                      A
 Frequencies --    888.1764               921.1515               933.8673
 Red. masses --      2.3728                 2.0290                 1.5966
 Frc consts  --      1.1028                 1.0144                 0.8204
 IR Inten    --     13.5746                 7.7113                 3.2104

                     19                     20                     21
                      A                      A                      A
 Frequencies --   1018.6681              1035.3462              1052.4276
 Red. masses --      1.5589                 1.8712                 1.9101
 Frc consts  --      0.9531                 1.1818                 1.2465
 IR Inten    --      6.5510                 8.5786                 3.3574

                     22                     23                     24
                      A                      A                      A
 Frequencies --   1068.2266              1111.6358              1142.9533
 Red. masses --      2.5867                 2.5050                 4.6729
 Frc consts  --      1.7391                 1.8238                 3.5966
 IR Inten    --      5.8080                 5.3895                83.1879

                     25                     26                     27
                      A                      A                      A
 Frequencies --   1158.8355              1201.1986              1232.6137
 Red. masses --      1.8757                 1.9718                 1.4041
 Frc consts  --      1.4840                 1.6763                 1.2569
 IR Inten    --     15.5267                38.2609                19.4661

                     28                     29                     30
                      A                      A                      A
 Frequencies --   1266.2397              1325.1735              1344.8719
 Red. masses --      1.1785                 1.3709                 1.4476
 Frc consts  --      1.1133                 1.4184                 1.5427
 IR Inten    --      7.5148                 0.7094                11.4681

                     31                     32                     33
                      A                      A                      A
 Frequencies --   1385.5441              1389.9364              1410.6078
 Red. masses --      1.4135                 1.4311                 1.6162
 Frc consts  --      1.5988                 1.6290                 1.8947
 IR Inten    --     10.7845                17.4382                35.2746

                     34                     35                     36
                      A                      A                      A
 Frequencies --   1411.8003              1428.2627              1456.2253
 Red. masses --      1.3942                 1.3093                 1.0937
 Frc consts  --      1.6373                 1.5736                 1.3665
 IR Inten    --      6.2912                12.9301                 4.9715

                     37                     38                     39
                      A                      A                      A
 Frequencies --   1482.8902              1483.5058              1500.8882
 Red. masses --      1.0486                 1.0879                 1.0556
 Frc consts  --      1.3586                 1.4107                 1.4010
 IR Inten    --      4.5675                 1.9964                 2.8976

                     40                     41                     42
                      A                      A                      A
 Frequencies --   1709.0966              1785.5542              2871.8698
 Red. masses --      7.0209                10.4320                 1.0829
 Frc consts  --     12.0830                19.5958                 5.2621
 IR Inten    --     54.7287               247.1626               117.0099

                     43                     44                     45
                      A                      A                      A
 Frequencies --   2948.6405              2961.0119              3007.0619
 Red. masses --      1.0821                 1.0728                 1.0638
 Frc consts  --      5.5432                 5.5417                 5.6674
 IR Inten    --     29.7574                48.9610                17.8001

                     46                     47                     48
                      A                      A                      A
 Frequencies --   3042.8998              3048.3317              3086.8526
 Red. masses --      1.0372                 1.0934                 1.0878
 Frc consts  --      5.6586                 5.9861                 6.1072
 IR Inten    --     15.4488                19.5650                11.5515

                     49                     50                     51
                      A                      A                      A
 Frequencies --   3115.8855              3125.1881              3141.8779
 Red. masses --      1.1016                 1.1019                 1.0892
 Frc consts  --      6.3012                 6.3411                 6.3350
 IR Inten    --     23.0733                17.4219                16.1969

 - Thermochemistry -
 -------------------
 Temperature   298.150 Kelvin.  Pressure   1.00000 Atm.
 Atom     1 has atomic number  6 and mass  12.00000

 Molecular mass:   126.06808 amu.
 Principal axes and moments of inertia in atomic units:
                           1         2         3
     Eigenvalues --   421.397361834.708822183.02623
           X            0.99999   0.00436  -0.00293
           Y           -0.00439   0.99991  -0.01290
           Z            0.00287   0.01292   0.99991
 This molecule is an asymmetric top.
 Rotational symmetry number  1.
 Rotational temperatures (Kelvin)      0.20554     0.04721     0.03968
 Rotational constants (GHZ):           4.28275     0.98367     0.82672
 Zero-point vibrational energy     417035.1 (Joules/Mol)
                                   99.67377 (Kcal/Mol)
 Warning -- explicit consideration of  12 degrees of freedom as
           vibrations may cause significant error
 Vibrational temperatures:    108.88   211.79   258.88   299.20   343.24
          (Kelvin)            442.49   451.97   556.86   620.38   674.72
                              780.00   846.30  1041.38  1132.92  1190.99
                             1277.89  1325.33  1343.63  1465.63  1489.63
                             1514.21  1536.94  1599.39  1644.45  1667.30
                             1728.25  1773.45  1821.83  1906.63  1934.97
                             1993.49  1999.81  2029.55  2031.26  2054.95
                             2095.18  2133.55  2134.43  2159.44  2459.01
                             2569.01  4131.97  4242.43  4260.23  4326.49
                             4378.05  4385.86  4441.29  4483.06  4496.44
                             4520.46

 Zero-point correction=                           0.158840 (Hartree/Particle)
 Thermal correction to Energy=                    0.167497
 Thermal correction to Enthalpy=                  0.168441
 Thermal correction to Gibbs Free Energy=         0.125467
 Sum of electronic and zero-point Energies=           -423.056388
 Sum of electronic and thermal Energies=              -423.047732
 Sum of electronic and thermal Enthalpies=            -423.046787
 Sum of electronic and thermal Free Energies=         -423.089762

                     E (Thermal)             CV                S
                      KCal/Mol        Cal/Mol-Kelvin    Cal/Mol-Kelvin
 Total                  105.106             32.355             90.447
 Electronic               0.000              0.000              0.000
 Translational            0.889              2.981             40.409
 Rotational               0.889              2.981             28.914
 Vibrational            103.329             26.393             21.125
 Vibration     1          0.599              1.965              4.000
 Vibration     2          0.617              1.906              2.708
 Vibration     3          0.629              1.867              2.329
 Vibration     4          0.641              1.829              2.062
 Vibration     5          0.657              1.782              1.814
 Vibration     6          0.697              1.659              1.375
 Vibration     7          0.702              1.647              1.340
 Vibration     8          0.755              1.498              1.012
 Vibration     9          0.792              1.402              0.855
 Vibration    10          0.826              1.319              0.740
 Vibration    11          0.897              1.157              0.561
 Vibration    12          0.945              1.057              0.470

 Normal termination of Gaussian 09 at Tue Jan 28 04:35:31 2020.
