 Gaussian 09, Revision D.01,
 Gaussian 09:  ES64L-G09RevD.01 24-Apr-2013

 -----------------------------
 # b3lyp 6-31G(2df,p) opt Freq
 -----------------------------

 -----
 titel
 -----
 Symbolic Z-matrix:
 Charge =  0 Multiplicity = 1

 SCF Done:  E(RB3LYP) =  -423.146177545     A.U. after   13 cycles
 Optimization completed.
    -- Stationary point found.
 Normal termination of Gaussian 09 at Mon Jan 27 18:10:54 2020.

 ----------------------------------------------------------------------
 #N Geom=AllCheck Guess=TCheck SCRF=Check GenChk RB3LYP/6-31G(2df,p) Fr
 eq
 ----------------------------------------------------------------------

 Structure from the checkpoint file:  "/scratch/puck/g09_e94dd6fc-45d7-433c-9a24-a6e336e79936/Gau-181909.chk"
 -----
 titel
 -----
 Charge =  0 Multiplicity = 1

                         Standard orientation:
 ---------------------------------------------------------------------
 Center     Atomic      Atomic             Coordinates (Angstroms)
 Number     Number       Type             X           Y           Z
 ---------------------------------------------------------------------
      1          8           0        1.421804    1.628988   -0.472495
      2          6           0        0.991111    0.374450   -0.090055
      3          6           0        1.820545   -0.904519    0.207533
      4          6           0        0.336356   -1.332609    0.345072
      5          6           0        0.071563    0.002367    1.124367
      6          6           0       -1.338327    0.584235    1.089312
      7          6           0       -2.075792    0.005565   -0.120230
      8          8           0       -1.229084   -0.069206   -1.259964
      9          6           0        0.064683   -0.514472   -0.961548
     10          1           0        1.974739    1.992270    0.227881
     11          1           0        2.385811   -1.334991   -0.623726
     12          1           0        2.399370   -0.900974    1.135067
     13          1           0       -0.025602   -2.326739    0.596726
     14          1           0        0.551861    0.069008    2.106580
     15          1           0       -1.893733    0.348034    2.003744
     16          1           0       -1.274812    1.677283    1.019997
     17          1           0       -2.441619   -1.003566    0.126470
     18          1           0       -2.937687    0.611325   -0.412194
     19          1           0        0.499080   -0.900005   -1.887575
 ---------------------------------------------------------------------

 SCF Done:  E(RB3LYP) =  -423.146177545     A.U. after    1 cycles

 The electronic state is 1-A.
 Alpha  occ. eigenvalues --  -19.14696 -19.13417 -10.23980 -10.23149 -10.22380
 Alpha  occ. eigenvalues --  -10.19956 -10.19289 -10.18664 -10.18063  -1.04103
 Alpha  occ. eigenvalues --   -1.02559  -0.90047  -0.77122  -0.68112  -0.63770
 Alpha  occ. eigenvalues --   -0.62369  -0.61131  -0.53628  -0.51181  -0.48720
 Alpha  occ. eigenvalues --   -0.46797  -0.44925  -0.42892  -0.40193  -0.39253
 Alpha  occ. eigenvalues --   -0.37314  -0.36579  -0.36080  -0.35258  -0.31705
 Alpha  occ. eigenvalues --   -0.30211  -0.28261  -0.25934  -0.23698
 Alpha virt. eigenvalues --    0.07681   0.09682   0.11459   0.13085   0.13280
 Alpha virt. eigenvalues --    0.13990   0.15188   0.15333   0.16335   0.17295
 Alpha virt. eigenvalues --    0.17885   0.18444   0.20250   0.20769   0.23460

 Mulliken charges:
               1
     1  O   -0.472912
     2  C    0.369492
     3  C   -0.306642
     4  C   -0.125723
     5  C   -0.067722
     6  C   -0.266064
     7  C   -0.064433
     8  O   -0.276778
     9  C    0.121302
    10  H    0.282383
    11  H    0.095212
    12  H    0.089166
    13  H    0.082477
    14  H    0.056519
    15  H    0.096698
    16  H    0.109191
    17  H    0.091288
    18  H    0.106690
    19  H    0.079858
 Sum of Mulliken charges =   0.00000

 Dipole moment (field-independent basis, Debye):
    X=              0.6574    Y=             -0.4257    Z=              2.4695  Tot=              2.5907
 Quadrupole moment (field-independent basis, Debye-Ang):
   XX=            -49.7090   YY=            -52.4541   ZZ=            -55.1063
   XY=              0.9455   XZ=             -0.2070   YZ=              3.1539

  Exact polarizability:  83.801  -2.754  70.557  -1.199   2.125  69.466
 Approx polarizability: 112.927  -0.930 107.911  -0.617   0.159 108.186

                      1                      2                      3
                      A                      A                      A
 Frequencies --    182.1389               201.9031               258.2022
 Red. masses --      3.2067                 2.8821                 1.4069
 Frc consts  --      0.0627                 0.0692                 0.0553
 IR Inten    --      2.8684                 0.2382                42.2668

                      4                      5                      6
                      A                      A                      A
 Frequencies --    285.6673               390.8095               442.0041
 Red. masses --      1.9238                 2.7198                 2.6355
 Frc consts  --      0.0925                 0.2447                 0.3034
 IR Inten    --     56.5476                 4.4441                 3.7917

                      7                      8                      9
                      A                      A                      A
 Frequencies --    459.9181               523.0656               565.8292
 Red. masses --      3.2810                 4.0260                 4.2669
 Frc consts  --      0.4089                 0.6490                 0.8049
 IR Inten    --      8.9258                 2.3767                 3.1584

                     10                     11                     12
                      A                      A                      A
 Frequencies --    656.7970               715.2143               774.5152
 Red. masses --      4.1026                 2.8750                 2.8897
 Frc consts  --      1.0427                 0.8665                 1.0213
 IR Inten    --     10.0182                 4.8457                 1.6559

                     13                     14                     15
                      A                      A                      A
 Frequencies --    805.0167               834.1096               877.6696
 Red. masses --      3.8420                 2.2537                 2.1826
 Frc consts  --      1.4670                 0.9238                 0.9906
 IR Inten    --      4.1610                 3.0098                 5.7745

                     16                     17                     18
                      A                      A                      A
 Frequencies --    922.5109               953.6235               969.3660
 Red. masses --      2.5394                 1.7965                 1.6363
 Frc consts  --      1.2733                 0.9626                 0.9059
 IR Inten    --      4.8769                 3.8146                 7.3765

                     19                     20                     21
                      A                      A                      A
 Frequencies --    987.9003              1034.9942              1041.1069
 Red. masses --      2.3747                 1.5996                 1.7145
 Frc consts  --      1.3655                 1.0096                 1.0949
 IR Inten    --      4.8331                 7.1755                19.7422

                     22                     23                     24
                      A                      A                      A
 Frequencies --   1065.9149              1091.6793              1106.2444
 Red. masses --      2.5325                 1.6845                 1.6030
 Frc consts  --      1.6953                 1.1828                 1.1558
 IR Inten    --      6.5589                34.8554                13.3446

                     25                     26                     27
                      A                      A                      A
 Frequencies --   1116.3867              1140.1182              1158.9152
 Red. masses --      1.5093                 1.6384                 3.8386
 Frc consts  --      1.1083                 1.2547                 3.0376
 IR Inten    --     14.8717                 7.4505               117.3264

                     28                     29                     30
                      A                      A                      A
 Frequencies --   1199.3792              1209.0493              1220.6958
 Red. masses --      1.6843                 1.6983                 1.6649
 Frc consts  --      1.4276                 1.4627                 1.4617
 IR Inten    --     11.2184                 2.2169                 9.4969

                     31                     32                     33
                      A                      A                      A
 Frequencies --   1259.0966              1273.0371              1304.3512
 Red. masses --      1.4259                 1.4454                 2.5924
 Frc consts  --      1.3318                 1.3801                 2.5986
 IR Inten    --      5.2449                36.1156               198.6074

                     34                     35                     36
                      A                      A                      A
 Frequencies --   1341.5985              1365.4666              1369.4766
 Red. masses --      1.5228                 1.3530                 1.5317
 Frc consts  --      1.6149                 1.4863                 1.6925
 IR Inten    --      1.1956                 2.2807                 1.6579

                     37                     38                     39
                      A                      A                      A
 Frequencies --   1419.7051              1433.7575              1482.9501
 Red. masses --      1.3919                 1.5037                 1.0900
 Frc consts  --      1.6529                 1.8212                 1.4123
 IR Inten    --      6.0533                24.4027                 1.6779

                     40                     41                     42
                      A                      A                      A
 Frequencies --   1510.6447              1518.0622              2979.0035
 Red. masses --      1.0961                 1.2256                 1.0717
 Frc consts  --      1.4738                 1.6641                 5.6036
 IR Inten    --      2.7253                11.1679                53.7619

                     43                     44                     45
                      A                      A                      A
 Frequencies --   3026.6748              3045.7758              3051.6048
 Red. masses --      1.0614                 1.0783                 1.0608
 Frc consts  --      5.7288                 5.8935                 5.8203
 IR Inten    --     21.7480                40.1452                60.6138

                     46                     47                     48
                      A                      A                      A
 Frequencies --   3070.6099              3082.5935              3090.4350
 Red. masses --      1.0999                 1.0872                 1.0940
 Frc consts  --      6.1103                 6.0868                 6.1560
 IR Inten    --     38.8418                40.8901                36.3605

                     49                     50                     51
                      A                      A                      A
 Frequencies --   3116.6755              3144.6654              3804.2682
 Red. masses --      1.1111                 1.0930                 1.0658
 Frc consts  --      6.3589                 6.3683                 9.0879
 IR Inten    --     35.6591                29.1556                24.9299

 - Thermochemistry -
 -------------------
 Temperature   298.150 Kelvin.  Pressure   1.00000 Atm.
 Atom     1 has atomic number  8 and mass  15.99491

 Molecular mass:   126.06808 amu.
 Principal axes and moments of inertia in atomic units:
                           1         2         3
     Eigenvalues --   666.525891090.091951139.62834
           X            0.99935  -0.02793  -0.02291
           Y            0.03197   0.97909   0.20088
           Z            0.01682  -0.20148   0.97935
 This molecule is an asymmetric top.
 Rotational symmetry number  1.
 Warning -- assumption of classical behavior for rotation
           may cause significant error
 Rotational temperatures (Kelvin)      0.12995     0.07946     0.07600
 Rotational constants (GHZ):           2.70768     1.65559     1.58362
 Zero-point vibrational energy     423963.7 (Joules/Mol)
                                  101.32976 (Kcal/Mol)
 Warning -- explicit consideration of   9 degrees of freedom as
           vibrations may cause significant error
 Vibrational temperatures:    262.06   290.49   371.49   411.01   562.29
          (Kelvin)            635.94   661.72   752.57   814.10   944.98
                             1029.03  1114.35  1158.24  1200.10  1262.77
                             1327.29  1372.05  1394.70  1421.37  1489.12
                             1497.92  1533.61  1570.68  1591.64  1606.23
                             1640.37  1667.42  1725.64  1739.55  1756.31
                             1811.56  1831.61  1876.67  1930.26  1964.60
                             1970.37  2042.64  2062.85  2133.63  2173.48
                             2184.15  4286.12  4354.70  4382.19  4390.57
                             4417.92  4435.16  4446.44  4484.20  4524.47
                             5473.49

 Zero-point correction=                           0.161479 (Hartree/Particle)
 Thermal correction to Energy=                    0.168653
 Thermal correction to Enthalpy=                  0.169597
 Thermal correction to Gibbs Free Energy=         0.130338
 Sum of electronic and zero-point Energies=           -422.984698
 Sum of electronic and thermal Energies=              -422.977525
 Sum of electronic and thermal Enthalpies=            -422.976581
 Sum of electronic and thermal Free Energies=         -423.015840

                     E (Thermal)             CV                S
                      KCal/Mol        Cal/Mol-Kelvin    Cal/Mol-Kelvin
 Total                  105.831             29.654             82.628
 Electronic               0.000              0.000              0.000
 Translational            0.889              2.981             40.409
 Rotational               0.889              2.981             28.206
 Vibrational            104.054             23.692             14.013
 Vibration     1          0.630              1.864              2.306
 Vibration     2          0.639              1.837              2.116
 Vibration     3          0.667              1.749              1.674
 Vibration     4          0.683              1.700              1.500
 Vibration     5          0.758              1.490              0.997
 Vibration     6          0.802              1.379              0.820
 Vibration     7          0.818              1.339              0.766
 Vibration     8          0.878              1.199              0.603
 Vibration     9          0.922              1.105              0.512

 Optimization completed.
    -- Stationary point found.
 Normal termination of Gaussian 09 at Mon Jan 27 19:00:30 2020.
