 Gaussian 09, Revision D.01,
 Gaussian 09:  ES64L-G09RevD.01 24-Apr-2013

 -----------------------------
 # b3lyp 6-31G(2df,p) opt Freq
 -----------------------------

 -----
 titel
 -----
 Symbolic Z-matrix:
 Charge =  0 Multiplicity = 1

 SCF Done:  E(RB3LYP) =  -423.138084587     A.U. after   13 cycles
 Optimization completed.
    -- Stationary point found.
 Normal termination of Gaussian 09 at Tue Jan 28 13:38:56 2020.

 ----------------------------------------------------------------------
 #N Geom=AllCheck Guess=TCheck SCRF=Check GenChk RB3LYP/6-31G(2df,p) Fr
 eq
 ----------------------------------------------------------------------

 Structure from the checkpoint file:  "/scratch/puck/g09_63b761d9-5954-4ecb-ba57-a1e68cc21880/Gau-9183.chk"
 -----
 titel
 -----
 Charge =  0 Multiplicity = 1

                         Standard orientation:
 ---------------------------------------------------------------------
 Center     Atomic      Atomic             Coordinates (Angstroms)
 Number     Number       Type             X           Y           Z
 ---------------------------------------------------------------------
      1          8           0        3.060608    0.125407   -0.167328
      2          6           0        1.947079   -0.745433   -0.177645
      3          6           0        0.784194   -0.154570    0.610136
      4          8           0        0.472014    1.151769    0.062535
      5          6           0       -0.893617    1.017856   -0.286874
      6          6           0       -1.172332   -0.377671   -0.916758
      7          6           0       -2.578484   -0.363268   -0.276692
      8          6           0       -1.658321    0.227923    0.814363
      9          6           0       -0.568114   -0.841181    0.457770
     10          1           0        2.718205    0.987725   -0.432897
     11          1           0        1.617704   -0.967013   -1.205741
     12          1           0        2.271652   -1.686832    0.279783
     13          1           0        1.081475   -0.028532    1.659612
     14          1           0       -1.279738    1.940338   -0.718980
     15          1           0       -0.886582   -0.722918   -1.910596
     16          1           0       -3.316790    0.311061   -0.720344
     17          1           0       -3.021283   -1.338202   -0.060055
     18          1           0       -1.923332    0.578303    1.812508
     19          1           0       -0.684716   -1.873276    0.789250
 ---------------------------------------------------------------------

 SCF Done:  E(RB3LYP) =  -423.138084587     A.U. after    1 cycles

 The electronic state is 1-A.
 Alpha  occ. eigenvalues --  -19.14354 -19.12579 -10.24184 -10.22907 -10.22272
 Alpha  occ. eigenvalues --  -10.20404 -10.20343 -10.20318 -10.19415  -1.05243
 Alpha  occ. eigenvalues --   -1.00715  -0.90245  -0.75773  -0.67295  -0.65650
 Alpha  occ. eigenvalues --   -0.63792  -0.57986  -0.55484  -0.50976  -0.50330
 Alpha  occ. eigenvalues --   -0.49215  -0.44501  -0.43227  -0.41925  -0.39158
 Alpha  occ. eigenvalues --   -0.37236  -0.35567  -0.34633  -0.33230  -0.31816
 Alpha  occ. eigenvalues --   -0.31007  -0.30945  -0.26554  -0.24275
 Alpha virt. eigenvalues --    0.09252   0.10216   0.11039   0.11684   0.12947
 Alpha virt. eigenvalues --    0.13648   0.14213   0.14709   0.15176   0.16389
 Alpha virt. eigenvalues --    0.16762   0.17568   0.18184   0.21080   0.21737

 Mulliken charges:
               1
     1  O   -0.422851
     2  C   -0.067566
     3  C    0.075829
     4  O   -0.310272
     5  C    0.148931
     6  C   -0.087204
     7  C   -0.258694
     8  C   -0.088259
     9  C   -0.064902
    10  H    0.291356
    11  H    0.082818
    12  H    0.104021
    13  H    0.084384
    14  H    0.087758
    15  H    0.077153
    16  H    0.095421
    17  H    0.099527
    18  H    0.076213
    19  H    0.076336
 Sum of Mulliken charges =   0.00000

 Dipole moment (field-independent basis, Debye):
    X=             -2.4672    Y=             -0.6816    Z=             -0.1119  Tot=              2.5621
 Quadrupole moment (field-independent basis, Debye-Ang):
   XX=            -60.4663   YY=            -51.4104   ZZ=            -51.8618
   XY=             -0.5399   XZ=             -0.1178   YZ=             -1.4958

  Exact polarizability:  88.120  -1.492  69.597   2.308  -1.130  66.471
 Approx polarizability: 115.344  -0.701 109.487   3.297  -2.141 104.409

                      1                      2                      3
                      A                      A                      A
 Frequencies --     96.9687               149.8934               209.4002
 Red. masses --      4.2185                 4.0432                 2.4109
 Frc consts  --      0.0234                 0.0535                 0.0623
 IR Inten    --      2.8215                 2.3439                 0.0877

                      4                      5                      6
                      A                      A                      A
 Frequencies --    356.7211               418.6400               448.9784
 Red. masses --      3.4362                 2.8161                 3.0879
 Frc consts  --      0.2576                 0.2908                 0.3667
 IR Inten    --      4.1964                 1.2104                 8.3917

                      7                      8                      9
                      A                      A                      A
 Frequencies --    463.3538               522.4633               693.3280
 Red. masses --      1.2088                 2.9243                 4.9027
 Frc consts  --      0.1529                 0.4703                 1.3886
 IR Inten    --     98.2404                 9.1852                 1.8596

                     10                     11                     12
                      A                      A                      A
 Frequencies --    732.7677               790.5940               809.3666
 Red. masses --      3.6963                 3.1857                 2.4619
 Frc consts  --      1.1694                 1.1732                 0.9502
 IR Inten    --      1.6937                 2.3577                 1.3983

                     13                     14                     15
                      A                      A                      A
 Frequencies --    839.2794               891.8293               895.6016
 Red. masses --      2.5201                 2.1123                 2.2217
 Frc consts  --      1.0459                 0.9898                 1.0499
 IR Inten    --     24.0814                 4.7127                 6.1226

                     16                     17                     18
                      A                      A                      A
 Frequencies --    916.8173               974.1264               982.7722
 Red. masses --      2.0448                 3.6152                 1.4621
 Frc consts  --      1.0127                 2.0212                 0.8320
 IR Inten    --      5.3271                27.5643                 3.9149

                     19                     20                     21
                      A                      A                      A
 Frequencies --    995.3467              1016.4823              1052.6909
 Red. masses --      1.2919                 1.6600                 2.2917
 Frc consts  --      0.7541                 1.0106                 1.4963
 IR Inten    --     10.9786                 0.3498               112.5846

                     22                     23                     24
                      A                      A                      A
 Frequencies --   1066.6785              1084.2907              1090.2031
 Red. masses --      1.6109                 2.0386                 3.2981
 Frc consts  --      1.0799                 1.4121                 2.3096
 IR Inten    --     20.0802                38.9911                39.1747

                     25                     26                     27
                      A                      A                      A
 Frequencies --   1104.6918              1121.6459              1123.1988
 Red. masses --      2.2646                 3.2993                 1.7584
 Frc consts  --      1.6283                 2.4456                 1.3070
 IR Inten    --     13.9707                 9.7193                 2.9379

                     28                     29                     30
                      A                      A                      A
 Frequencies --   1169.0667              1182.6755              1222.4008
 Red. masses --      1.5474                 1.4198                 1.2238
 Frc consts  --      1.2460                 1.1701                 1.0774
 IR Inten    --      1.7532                 0.1117                14.0714

                     31                     32                     33
                      A                      A                      A
 Frequencies --   1232.6500              1239.2527              1260.1225
 Red. masses --      1.6218                 1.6186                 1.6689
 Frc consts  --      1.4519                 1.4646                 1.5613
 IR Inten    --      8.0844                 8.6580                 2.9384

                     34                     35                     36
                      A                      A                      A
 Frequencies --   1275.6297              1309.2479              1329.3324
 Red. masses --      1.5236                 1.7465                 1.3501
 Frc consts  --      1.4607                 1.7639                 1.4056
 IR Inten    --      5.9262                 3.3359                11.2166

                     37                     38                     39
                      A                      A                      A
 Frequencies --   1370.9834              1401.2856              1438.4926
 Red. masses --      1.4902                 1.2833                 1.3437
 Frc consts  --      1.6503                 1.4847                 1.6382
 IR Inten    --     37.0730                16.6134                55.4505

                     40                     41                     42
                      A                      A                      A
 Frequencies --   1499.5607              1519.8164              2974.1935
 Red. masses --      1.0932                 1.1268                 1.0691
 Frc consts  --      1.4483                 1.5334                 5.5722
 IR Inten    --      0.8966                 0.2667                37.7341

                     43                     44                     45
                      A                      A                      A
 Frequencies --   3023.9931              3052.3400              3067.5590
 Red. masses --      1.0837                 1.0551                 1.0936
 Frc consts  --      5.8389                 5.7917                 6.0632
 IR Inten    --     42.7207                55.4134                35.7493

                     46                     47                     48
                      A                      A                      A
 Frequencies --   3107.6118              3109.4269              3113.6818
 Red. masses --      1.0893                 1.0895                 1.1089
 Frc consts  --      6.1980                 6.2064                 6.3341
 IR Inten    --     31.6807                62.9816                16.3029

                     49                     50                     51
                      A                      A                      A
 Frequencies --   3121.6118              3138.2646              3787.2581
 Red. masses --      1.0903                 1.0939                 1.0653
 Frc consts  --      6.2597                 6.3474                 9.0030
 IR Inten    --     49.3614                24.6132                25.1254

 - Thermochemistry -
 -------------------
 Temperature   298.150 Kelvin.  Pressure   1.00000 Atm.
 Atom     1 has atomic number  8 and mass  15.99491

 Molecular mass:   126.06808 amu.
 Principal axes and moments of inertia in atomic units:
                           1         2         3
     Eigenvalues --   389.545501547.319801644.12753
           X            0.99999  -0.00403   0.00138
           Y            0.00405   0.99991  -0.01314
           Z           -0.00133   0.01315   0.99991
 This molecule is an asymmetric top.
 Rotational symmetry number  1.
 Rotational temperatures (Kelvin)      0.22235     0.05598     0.05268
 Rotational constants (GHZ):           4.63294     1.16637     1.09769
 Zero-point vibrational energy     423445.7 (Joules/Mol)
                                  101.20594 (Kcal/Mol)
 Warning -- explicit consideration of   8 degrees of freedom as
           vibrations may cause significant error
 Vibrational temperatures:    139.52   215.66   301.28   513.24   602.33
          (Kelvin)            645.98   666.66   751.71   997.54  1054.29
                             1137.49  1164.50  1207.53  1283.14  1288.57
                             1319.09  1401.55  1413.99  1432.08  1462.49
                             1514.59  1534.71  1560.05  1568.56  1589.40
                             1613.80  1616.03  1682.02  1701.60  1758.76
                             1773.51  1783.01  1813.03  1835.34  1883.71
                             1912.61  1972.54  2016.13  2069.67  2157.53
                             2186.67  4279.20  4350.85  4391.63  4413.53
                             4471.15  4473.77  4479.89  4491.30  4515.26
                             5449.01

 Zero-point correction=                           0.161282 (Hartree/Particle)
 Thermal correction to Energy=                    0.168509
 Thermal correction to Enthalpy=                  0.169453
 Thermal correction to Gibbs Free Energy=         0.129521
 Sum of electronic and zero-point Energies=           -422.976803
 Sum of electronic and thermal Energies=              -422.969575
 Sum of electronic and thermal Enthalpies=            -422.968631
 Sum of electronic and thermal Free Energies=         -423.008564

                     E (Thermal)             CV                S
                      KCal/Mol        Cal/Mol-Kelvin    Cal/Mol-Kelvin
 Total                  105.741             29.148             84.045
 Electronic               0.000              0.000              0.000
 Translational            0.889              2.981             40.409
 Rotational               0.889              2.981             28.385
 Vibrational            103.964             23.186             15.252
 Vibration     1          0.603              1.951              3.514
 Vibration     2          0.618              1.903              2.674
 Vibration     3          0.642              1.826              2.049
 Vibration     4          0.732              1.561              1.136
 Vibration     5          0.781              1.430              0.897
 Vibration     6          0.808              1.363              0.799
 Vibration     7          0.821              1.331              0.756
 Vibration     8          0.877              1.200              0.604

 Normal termination of Gaussian 09 at Tue Jan 28 14:30:21 2020.
