 Gaussian 09, Revision D.01,
 Gaussian 09:  ES64L-G09RevD.01 24-Apr-2013

 -----------------------------
 # b3lyp 6-31G(2df,p) opt Freq
 -----------------------------

 -----
 titel
 -----
 Symbolic Z-matrix:
 Charge =  0 Multiplicity = 1

 SCF Done:  E(RB3LYP) =  -423.152333510     A.U. after   14 cycles
 Optimization completed.
    -- Stationary point found.
 Normal termination of Gaussian 09 at Mon Jan 27 13:58:57 2020.

 ----------------------------------------------------------------------
 #N Geom=AllCheck Guess=TCheck SCRF=Check GenChk RB3LYP/6-31G(2df,p) Fr
 eq
 ----------------------------------------------------------------------

 Structure from the checkpoint file:  "/scratch/puck/g09_38464ed5-a953-44a0-8212-f59e7056e85b/Gau-137834.chk"
 -----
 titel
 -----
 Charge =  0 Multiplicity = 1

                         Standard orientation:
 ---------------------------------------------------------------------
 Center     Atomic      Atomic             Coordinates (Angstroms)
 Number     Number       Type             X           Y           Z
 ---------------------------------------------------------------------
      1          8           0       -3.944481    0.065877   -0.272744
      2          6           0       -2.987536   -0.364571    0.316443
      3          6           0       -1.649753   -0.685208   -0.318303
      4          6           0       -0.506952    0.007540    0.402531
      5          6           0       -0.142813    1.432162    0.070341
      6          6           0        0.782740    0.303433   -0.326119
      7          6           0        2.087192    0.132387    0.373320
      8          6           0        3.370805    0.151313   -0.339396
      9          8           0        2.804670   -1.079356    0.116077
     10          1           0       -3.030351   -0.556793    1.414874
     11          1           0       -1.507775   -1.774856   -0.267802
     12          1           0       -1.691759   -0.399482   -1.373555
     13          1           0       -0.397048   -0.276402    1.446917
     14          1           0       -0.694236    1.932132   -0.718642
     15          1           0        0.165245    2.085902    0.879724
     16          1           0        0.809168    0.041144   -1.380131
     17          1           0        2.087999    0.431723    1.423989
     18          1           0        3.379607    0.289602   -1.420142
     19          1           0        4.275558    0.472519    0.175199
 ---------------------------------------------------------------------

 SCF Done:  E(RB3LYP) =  -423.152333510     A.U. after    1 cycles

 The electronic state is 1-A.
 Alpha  occ. eigenvalues --  -19.15202 -19.14095 -10.27323 -10.24561 -10.23653
 Alpha  occ. eigenvalues --  -10.21075 -10.20579 -10.20144 -10.19922  -1.07235
 Alpha  occ. eigenvalues --   -1.04779  -0.88069  -0.76179  -0.68867  -0.65155
 Alpha  occ. eigenvalues --   -0.60588  -0.58753  -0.57467  -0.51156  -0.50474
 Alpha  occ. eigenvalues --   -0.47755  -0.46215  -0.44014  -0.43460  -0.41218
 Alpha  occ. eigenvalues --   -0.39807  -0.37651  -0.37137  -0.36266  -0.34246
 Alpha  occ. eigenvalues --   -0.30525  -0.28690  -0.26831  -0.24773
 Alpha virt. eigenvalues --   -0.02213   0.08063   0.09290   0.09400   0.10784
 Alpha virt. eigenvalues --    0.11546   0.12722   0.13515   0.14109   0.15029
 Alpha virt. eigenvalues --    0.15375   0.17263   0.18280   0.19396   0.22993

 Mulliken charges:
               1
     1  O   -0.236479
     2  C    0.169027
     3  C   -0.307100
     4  C   -0.017907
     5  C   -0.295987
     6  C   -0.040722
     7  C    0.088375
     8  C   -0.186810
     9  O   -0.238834
    10  H    0.071064
    11  H    0.127784
    12  H    0.120454
    13  H    0.094279
    14  H    0.125682
    15  H    0.117097
    16  H    0.092500
    17  H    0.088674
    18  H    0.113318
    19  H    0.115586
 Sum of Mulliken charges =   0.00000

 Dipole moment (field-independent basis, Debye):
    X=              2.0098    Y=              0.9416    Z=              0.5971  Tot=              2.2983
 Quadrupole moment (field-independent basis, Debye-Ang):
   XX=            -66.9655   YY=            -54.4404   ZZ=            -50.2804
   XY=              7.7485   XZ=             -3.4432   YZ=              0.3078

  Exact polarizability: 101.884  -0.656  64.039  -2.106  -0.813  68.424
 Approx polarizability: 126.053  -5.959 101.951  -0.198  -3.534 105.419

                      1                      2                      3
                      A                      A                      A
 Frequencies --     41.3683                58.9701                72.5470
 Red. masses --      5.6428                 3.9911                 3.7717
 Frc consts  --      0.0057                 0.0082                 0.0117
 IR Inten    --      4.5573                 6.3541                 0.4777

                      4                      5                      6
                      A                      A                      A
 Frequencies --    142.1934               161.0294               270.8067
 Red. masses --      3.4672                 2.6561                 2.7674
 Frc consts  --      0.0413                 0.0406                 0.1196
 IR Inten    --      3.3850                 1.5404                 1.9211

                      7                      8                      9
                      A                      A                      A
 Frequencies --    326.8130               368.8649               425.2332
 Red. masses --      3.4665                 2.2939                 3.8168
 Frc consts  --      0.2181                 0.1839                 0.4066
 IR Inten    --      0.4221                 1.2705                 2.6093

                     10                     11                     12
                      A                      A                      A
 Frequencies --    479.3614               535.1877               757.6898
 Red. masses --      2.7449                 2.8194                 1.8274
 Frc consts  --      0.3716                 0.4758                 0.6181
 IR Inten    --     16.3878                 4.0540                 2.0071

                     13                     14                     15
                      A                      A                      A
 Frequencies --    789.7858               849.3714               856.6131
 Red. masses --      1.5677                 3.6765                 1.7093
 Frc consts  --      0.5761                 1.5627                 0.7390
 IR Inten    --      4.1285                11.1226                20.9663

                     16                     17                     18
                      A                      A                      A
 Frequencies --    902.8183               908.1961               913.6267
 Red. masses --      2.1286                 1.9251                 3.1075
 Frc consts  --      1.0222                 0.9355                 1.5283
 IR Inten    --     14.6562                 5.3348                17.1043

                     19                     20                     21
                      A                      A                      A
 Frequencies --    982.8693              1031.1366              1047.1287
 Red. masses --      1.7654                 2.0675                 1.5989
 Frc consts  --      1.0048                 1.2952                 1.0330
 IR Inten    --      8.3038                29.7042                 7.8207

                     22                     23                     24
                      A                      A                      A
 Frequencies --   1077.4106              1079.4807              1100.3193
 Red. masses --      1.6714                 2.0942                 1.2904
 Frc consts  --      1.1431                 1.4378                 0.9204
 IR Inten    --      0.8681                 8.3478                 1.4334

                     25                     26                     27
                      A                      A                      A
 Frequencies --   1115.9363              1155.6743              1167.5950
 Red. masses --      1.1122                 1.3779                 1.9312
 Frc consts  --      0.8160                 1.0843                 1.5512
 IR Inten    --      0.5873                 1.3436                 9.8056

                     28                     29                     30
                      A                      A                      A
 Frequencies --   1168.7499              1207.9434              1218.0640
 Red. masses --      1.3670                 1.6962                 1.6971
 Frc consts  --      1.1002                 1.4582                 1.4835
 IR Inten    --      3.0310                 3.5949                 8.8557

                     31                     32                     33
                      A                      A                      A
 Frequencies --   1244.2622              1280.0057              1296.1132
 Red. masses --      1.5345                 1.3737                 1.6787
 Frc consts  --      1.3997                 1.3261                 1.6616
 IR Inten    --      7.0512                 0.7262                 6.9161

                     34                     35                     36
                      A                      A                      A
 Frequencies --   1320.0844              1411.4111              1429.4690
 Red. masses --      1.3616                 1.6083                 1.1973
 Frc consts  --      1.3980                 1.8877                 1.4415
 IR Inten    --      7.7027                 3.9813                 5.7822

                     37                     38                     39
                      A                      A                      A
 Frequencies --   1457.4246              1468.7680              1500.9764
 Red. masses --      1.1255                 1.3187                 1.5610
 Frc consts  --      1.4085                 1.6762                 2.0721
 IR Inten    --     11.1392                10.5679                 3.4122

                     40                     41                     42
                      A                      A                      A
 Frequencies --   1533.7796              1837.2331              2851.5854
 Red. masses --      1.4954                10.1642                 1.0818
 Frc consts  --      2.0726                20.2140                 5.1830
 IR Inten    --      6.0842               182.4821               114.8682

                     43                     44                     45
                      A                      A                      A
 Frequencies --   3010.0420              3078.8641              3084.0928
 Red. masses --      1.0652                 1.0552                 1.0821
 Frc consts  --      5.6861                 5.8935                 6.0640
 IR Inten    --     13.8028                31.3027                17.2455

                     46                     47                     48
                      A                      A                      A
 Frequencies --   3093.0440              3130.9113              3133.8947
 Red. masses --      1.0952                 1.0706                 1.0714
 Frc consts  --      6.1732                 6.1832                 6.1994
 IR Inten    --      6.1678                13.3538                 8.8101

                     49                     50                     51
                      A                      A                      A
 Frequencies --   3149.7292              3166.2310              3217.5024
 Red. masses --      1.0887                 1.1190                 1.1162
 Frc consts  --      6.3638                 6.6096                 6.8080
 IR Inten    --      7.7806                30.2327                 7.3758

 - Thermochemistry -
 -------------------
 Temperature   298.150 Kelvin.  Pressure   1.00000 Atm.
 Atom     1 has atomic number  8 and mass  15.99491

 Molecular mass:   126.06808 amu.
 Principal axes and moments of inertia in atomic units:
                           1         2         3
     Eigenvalues --   314.051272811.952902957.71929
           X            0.99992   0.01159  -0.00480
           Y           -0.01153   0.99987   0.01154
           Z            0.00493  -0.01148   0.99992
 This molecule is an asymmetric top.
 Rotational symmetry number  1.
 Rotational temperatures (Kelvin)      0.27580     0.03080     0.02928
 Rotational constants (GHZ):           5.74665     0.64181     0.61018
 Zero-point vibrational energy     412162.6 (Joules/Mol)
                                   98.50923 (Kcal/Mol)
 Warning -- explicit consideration of  11 degrees of freedom as
           vibrations may cause significant error
 Vibrational temperatures:     59.52    84.84   104.38   204.58   231.69
          (Kelvin)            389.63   470.21   530.71   611.81   689.69
                              770.01  1090.15  1136.32  1222.05  1232.47
                             1298.95  1306.69  1314.50  1414.13  1483.57
                             1506.58  1550.15  1553.13  1583.11  1605.58
                             1662.76  1679.91  1681.57  1737.96  1752.52
                             1790.21  1841.64  1864.82  1899.30  2030.70
                             2056.68  2096.91  2113.23  2159.57  2206.76
                             2643.37  4102.79  4330.77  4429.79  4437.32
                             4450.19  4504.68  4508.97  4531.75  4555.49
                             4629.26

 Zero-point correction=                           0.156984 (Hartree/Particle)
 Thermal correction to Energy=                    0.166305
 Thermal correction to Enthalpy=                  0.167249
 Thermal correction to Gibbs Free Energy=         0.121118
 Sum of electronic and zero-point Energies=           -422.995349
 Sum of electronic and thermal Energies=              -422.986029
 Sum of electronic and thermal Enthalpies=            -422.985084
 Sum of electronic and thermal Free Energies=         -423.031216

                     E (Thermal)             CV                S
                      KCal/Mol        Cal/Mol-Kelvin    Cal/Mol-Kelvin
 Total                  104.358             32.897             97.092
 Electronic               0.000              0.000              0.000
 Translational            0.889              2.981             40.409
 Rotational               0.889              2.981             29.348
 Vibrational            102.580             26.936             27.336
 Vibration     1          0.594              1.981              5.192
 Vibration     2          0.596              1.974              4.491
 Vibration     3          0.599              1.967              4.083
 Vibration     4          0.616              1.911              2.774
 Vibration     5          0.622              1.890              2.538
 Vibration     6          0.674              1.727              1.591
 Vibration     7          0.710              1.622              1.276
 Vibration     8          0.741              1.536              1.085
 Vibration     9          0.787              1.415              0.874
 Vibration    10          0.836              1.296              0.712
 Vibration    11          0.890              1.172              0.576

 Optimization completed.
    -- Stationary point found.
 Normal termination of Gaussian 09 at Mon Jan 27 14:51:45 2020.
