 Gaussian 09, Revision D.01,
 Gaussian 09:  ES64L-G09RevD.01 24-Apr-2013

 -----------------------------
 # b3lyp 6-31G(2df,p) opt Freq
 -----------------------------

 -----
 titel
 -----
 Symbolic Z-matrix:
 Charge =  0 Multiplicity = 1

 SCF Done:  E(RB3LYP) =  -423.189393785     A.U. after   14 cycles
 Optimization completed.
    -- Stationary point found.
 Normal termination of Gaussian 09 at Mon Jan 27 13:35:02 2020.

 ----------------------------------------------------------------------
 #N Geom=AllCheck Guess=TCheck SCRF=Check GenChk RB3LYP/6-31G(2df,p) Fr
 eq
 ----------------------------------------------------------------------

 Structure from the checkpoint file:  "/scratch/puck/g09_99926b84-015a-4356-9d8c-71010210e754/Gau-76393.chk"
 -----
 titel
 -----
 Charge =  0 Multiplicity = 1

                         Standard orientation:
 ---------------------------------------------------------------------
 Center     Atomic      Atomic             Coordinates (Angstroms)
 Number     Number       Type             X           Y           Z
 ---------------------------------------------------------------------
      1          8           0       -2.914107   -0.000864   -0.626837
      2          6           0       -1.710751    0.027685   -0.593334
      3          6           0       -0.901212    0.337043    0.669280
      4          6           0       -0.124032   -0.899115    1.188348
      5          6           0        0.727192   -1.624381    0.131744
      6          8           0        1.261344   -0.783692   -0.873246
      7          6           0        2.053775    0.294797   -0.416513
      8          6           0        1.261900    1.508481    0.003166
      9          6           0        0.000874    1.531162    0.436029
     10          1           0       -1.093372   -0.160283   -1.495426
     11          1           0       -1.642363    0.609532    1.427255
     12          1           0        0.509151   -0.555259    2.013222
     13          1           0       -0.827946   -1.623062    1.614686
     14          1           0        1.533442   -2.182632    0.634408
     15          1           0        0.119022   -2.351841   -0.414643
     16          1           0        2.727600   -0.032011    0.395278
     17          1           0        2.699532    0.570484   -1.258595
     18          1           0        1.799830    2.450971   -0.081472
     19          1           0       -0.449278    2.496516    0.653624
 ---------------------------------------------------------------------

 SCF Done:  E(RB3LYP) =  -423.189393785     A.U. after    1 cycles

 The electronic state is 1-A.
 Alpha  occ. eigenvalues --  -19.14945 -19.13532 -10.26402 -10.24191 -10.23784
 Alpha  occ. eigenvalues --  -10.20242 -10.19770 -10.19448 -10.19313  -1.04337
 Alpha  occ. eigenvalues --   -1.04097  -0.82303  -0.78851  -0.70383  -0.69057
 Alpha  occ. eigenvalues --   -0.61341  -0.57148  -0.54021  -0.51087  -0.48641
 Alpha  occ. eigenvalues --   -0.47752  -0.45177  -0.43857  -0.43385  -0.41753
 Alpha  occ. eigenvalues --   -0.41089  -0.38006  -0.36672  -0.35860  -0.33692
 Alpha  occ. eigenvalues --   -0.31859  -0.27048  -0.26543  -0.23613
 Alpha virt. eigenvalues --   -0.02830   0.02182   0.07291   0.10179   0.11640
 Alpha virt. eigenvalues --    0.12325   0.12984   0.14743   0.16331   0.16550
 Alpha virt. eigenvalues --    0.17735   0.18428   0.19403   0.20558   0.21422

 Mulliken charges:
               1
     1  O   -0.252807
     2  C    0.149826
     3  C   -0.103863
     4  C   -0.265968
     5  C   -0.081237
     6  O   -0.231647
     7  C   -0.140702
     8  C   -0.040565
     9  C   -0.098761
    10  H    0.101872
    11  H    0.096667
    12  H    0.114236
    13  H    0.115897
    14  H    0.096785
    15  H    0.119315
    16  H    0.103315
    17  H    0.121131
    18  H    0.094658
    19  H    0.101848
 Sum of Mulliken charges =   0.00000

 Dipole moment (field-independent basis, Debye):
    X=              2.9143    Y=              0.1958    Z=              1.6563  Tot=              3.3578
 Quadrupole moment (field-independent basis, Debye-Ang):
   XX=            -60.9114   YY=            -49.8139   ZZ=            -54.2804
   XY=              1.2703   XZ=             -1.8476   YZ=             -1.5279

  Exact polarizability:  95.464   3.192  74.779  -4.089  -0.422  63.190
 Approx polarizability: 147.200   5.285 102.919  -7.355   0.810  97.375

                      1                      2                      3
                      A                      A                      A
 Frequencies --     54.3923               101.8668               163.6509
 Red. masses --      4.9917                 3.4844                 2.3980
 Frc consts  --      0.0087                 0.0213                 0.0378
 IR Inten    --      4.1511                 1.0396                 1.4869

                      4                      5                      6
                      A                      A                      A
 Frequencies --    238.3629               268.4509               313.7681
 Red. masses --      2.9955                 3.1558                 2.3785
 Frc consts  --      0.1003                 0.1340                 0.1380
 IR Inten    --      4.5206                 3.7045                 1.0858

                      7                      8                      9
                      A                      A                      A
 Frequencies --    384.3274               396.2755               473.1737
 Red. masses --      2.5536                 4.4065                 2.7588
 Frc consts  --      0.2222                 0.4077                 0.3639
 IR Inten    --      6.5556                 1.2729                 0.8052

                     10                     11                     12
                      A                      A                      A
 Frequencies --    496.0808               663.8396               709.9809
 Red. masses --      4.1719                 2.6043                 1.4370
 Frc consts  --      0.6049                 0.6762                 0.4268
 IR Inten    --      4.7941                 7.7457                46.0220

                     13                     14                     15
                      A                      A                      A
 Frequencies --    759.5744               804.9700               878.8484
 Red. masses --      2.4453                 3.3217                 3.1885
 Frc consts  --      0.8312                 1.2681                 1.4510
 IR Inten    --      4.8305                 6.6849                 4.1840

                     16                     17                     18
                      A                      A                      A
 Frequencies --    896.9827               920.8490               992.7603
 Red. masses --      2.5916                 2.3496                 2.0820
 Frc consts  --      1.2286                 1.1739                 1.2090
 IR Inten    --      5.8163                 3.6761                14.2210

                     19                     20                     21
                      A                      A                      A
 Frequencies --   1001.9997              1005.0955              1028.5750
 Red. masses --      1.4235                 1.8636                 2.4610
 Frc consts  --      0.8421                 1.1092                 1.5340
 IR Inten    --      2.7407                 7.3538                 3.9769

                     22                     23                     24
                      A                      A                      A
 Frequencies --   1047.2495              1109.9284              1137.7079
 Red. masses --      2.0851                 2.4391                 1.9641
 Frc consts  --      1.3473                 1.7704                 1.4979
 IR Inten    --     23.0918                20.9117                 2.8897

                     25                     26                     27
                      A                      A                      A
 Frequencies --   1170.7561              1231.6729              1244.8516
 Red. masses --      3.7951                 1.1180                 1.2633
 Frc consts  --      3.0648                 0.9993                 1.1534
 IR Inten    --     92.6072                 4.0754                 8.7423

                     28                     29                     30
                      A                      A                      A
 Frequencies --   1264.3000              1285.1445              1325.7782
 Red. masses --      1.2028                 1.3433                 1.2460
 Frc consts  --      1.1328                 1.3071                 1.2903
 IR Inten    --      1.1735                15.2957                 3.2328

                     31                     32                     33
                      A                      A                      A
 Frequencies --   1344.1113              1375.2174              1396.5046
 Red. masses --      1.3266                 1.2630                 1.2752
 Frc consts  --      1.4121                 1.4073                 1.4653
 IR Inten    --      1.3666                 0.3982                 2.9155

                     34                     35                     36
                      A                      A                      A
 Frequencies --   1411.3276              1414.6611              1424.3204
 Red. masses --      1.2046                 1.5004                 1.2653
 Frc consts  --      1.4137                 1.7691                 1.5124
 IR Inten    --      2.0002                 4.4663                12.7141

                     37                     38                     39
                      A                      A                      A
 Frequencies --   1481.5719              1488.2986              1506.2899
 Red. masses --      1.0874                 1.0752                 1.0938
 Frc consts  --      1.4064                 1.4032                 1.4622
 IR Inten    --      4.0813                 3.5311                 2.7549

                     40                     41                     42
                      A                      A                      A
 Frequencies --   1718.1348              1822.5826              2931.2839
 Red. masses --      6.8955                 9.9358                 1.0850
 Frc consts  --     11.9931                19.4459                 5.4926
 IR Inten    --      4.1119               212.5214                45.4254

                     43                     44                     45
                      A                      A                      A
 Frequencies --   2951.6408              2977.8181              3038.1210
 Red. masses --      1.0712                 1.0707                 1.0613
 Frc consts  --      5.4986                 5.5939                 5.7719
 IR Inten    --     44.3748                63.5883                24.6871

                     46                     47                     48
                      A                      A                      A
 Frequencies --   3051.0154              3061.7885              3067.1953
 Red. masses --      1.0891                 1.0835                 1.0962
 Frc consts  --      5.9730                 5.9846                 6.0761
 IR Inten    --     29.7576                17.7114                 4.4659

                     49                     50                     51
                      A                      A                      A
 Frequencies --   3088.7740              3139.4180              3164.9162
 Red. masses --      1.0997                 1.0837                 1.0949
 Frc consts  --      6.1817                 6.2933                 6.4618
 IR Inten    --     39.0949                 5.8181                25.5851

 - Thermochemistry -
 -------------------
 Temperature   298.150 Kelvin.  Pressure   1.00000 Atm.
 Atom     1 has atomic number  8 and mass  15.99491

 Molecular mass:   126.06808 amu.
 Principal axes and moments of inertia in atomic units:
                           1         2         3
     Eigenvalues --   709.568091324.758641583.02998
           X            0.99991   0.00705  -0.01115
           Y           -0.00741   0.99944  -0.03252
           Z            0.01091   0.03260   0.99941
 This molecule is an asymmetric top.
 Rotational symmetry number  1.
 Warning -- assumption of classical behavior for rotation
           may cause significant error
 Rotational temperatures (Kelvin)      0.12207     0.06538     0.05471
 Rotational constants (GHZ):           2.54344     1.36232     1.14005
 Zero-point vibrational energy     420046.0 (Joules/Mol)
                                  100.39340 (Kcal/Mol)
 Warning -- explicit consideration of  10 degrees of freedom as
           vibrations may cause significant error
 Vibrational temperatures:     78.26   146.56   235.46   342.95   386.24
          (Kelvin)            451.44   552.96   570.15   680.79   713.75
                              955.12  1021.50  1092.86  1158.17  1264.47
                             1290.56  1324.89  1428.36  1441.65  1446.11
                             1479.89  1506.76  1596.94  1636.91  1684.45
                             1772.10  1791.06  1819.04  1849.03  1907.50
                             1933.87  1978.63  2009.26  2030.58  2035.38
                             2049.28  2131.65  2141.33  2167.21  2472.01
                             2622.29  4217.46  4246.75  4284.41  4371.17
                             4389.73  4405.23  4413.00  4444.05  4516.92
                             4553.60

 Zero-point correction=                           0.159987 (Hartree/Particle)
 Thermal correction to Energy=                    0.168408
 Thermal correction to Enthalpy=                  0.169352
 Thermal correction to Gibbs Free Energy=         0.126419
 Sum of electronic and zero-point Energies=           -423.029407
 Sum of electronic and thermal Energies=              -423.020986
 Sum of electronic and thermal Enthalpies=            -423.020042
 Sum of electronic and thermal Free Energies=         -423.062975

                     E (Thermal)             CV                S
                      KCal/Mol        Cal/Mol-Kelvin    Cal/Mol-Kelvin
 Total                  105.677             31.375             90.359
 Electronic               0.000              0.000              0.000
 Translational            0.889              2.981             40.409
 Rotational               0.889              2.981             28.789
 Vibrational            103.900             25.413             21.162
 Vibration     1          0.596              1.976              4.651
 Vibration     2          0.604              1.948              3.418
 Vibration     3          0.623              1.887              2.507
 Vibration     4          0.656              1.782              1.815
 Vibration     5          0.673              1.731              1.606
 Vibration     6          0.702              1.647              1.342
 Vibration     7          0.753              1.504              1.022
 Vibration     8          0.763              1.478              0.976
 Vibration     9          0.830              1.310              0.729
 Vibration    10          0.852              1.259              0.668

 Optimization completed.
    -- Stationary point found.
 Normal termination of Gaussian 09 at Mon Jan 27 14:17:02 2020.
