 Gaussian 09, Revision D.01,
 Gaussian 09:  ES64L-G09RevD.01 24-Apr-2013

 -----------------------------
 # b3lyp 6-31G(2df,p) opt Freq
 -----------------------------

 -----
 titel
 -----
 Symbolic Z-matrix:
 Charge =  0 Multiplicity = 1

 SCF Done:  E(RB3LYP) =  -423.090692183     A.U. after   13 cycles
 Optimization completed.
    -- Stationary point found.
 Normal termination of Gaussian 09 at Tue Jan 28 09:41:25 2020.

 ----------------------------------------------------------------------
 #N Geom=AllCheck Guess=TCheck SCRF=Check GenChk RB3LYP/6-31G(2df,p) Fr
 eq
 ----------------------------------------------------------------------

 Structure from the checkpoint file:  "/scratch/puck/g09_a2883f6d-e6c0-4808-865e-d7cfd6aaaf0e/Gau-106356.chk"
 -----
 titel
 -----
 Charge =  0 Multiplicity = 1

                         Standard orientation:
 ---------------------------------------------------------------------
 Center     Atomic      Atomic             Coordinates (Angstroms)
 Number     Number       Type             X           Y           Z
 ---------------------------------------------------------------------
      1          6           0        2.538664    0.389758    0.407284
      2          8           0        1.631380   -0.043229   -0.602697
      3          6           0        0.398382   -0.402190   -0.101139
      4          6           0        0.096646   -1.712203    0.572814
      5          6           0       -0.611443   -1.324916   -0.718788
      6          6           0       -1.723262   -0.244021   -0.559407
      7          6           0       -1.886160    0.276897    0.864386
      8          6           0       -0.705443    0.699032    0.068784
      9          8           0       -0.403358    2.028116   -0.143439
     10          1           0        2.731257   -0.410022    1.134343
     11          1           0        3.471697    0.651397   -0.096850
     12          1           0        2.152851    1.268885    0.938090
     13          1           0        0.872262   -2.458305    0.420420
     14          1           0       -0.414315   -1.799684    1.525771
     15          1           0       -0.508354   -1.926817   -1.612117
     16          1           0       -2.479603   -0.061401   -1.311623
     17          1           0       -2.643100    1.053422    0.936324
     18          1           0       -1.827734   -0.354637    1.745594
     19          1           0        0.176573    2.063929   -0.914477
 ---------------------------------------------------------------------

 SCF Done:  E(RB3LYP) =  -423.090692183     A.U. after    1 cycles

 The electronic state is 1-A.
 Alpha  occ. eigenvalues --  -19.15468 -19.14943 -10.23721 -10.23538 -10.22626
 Alpha  occ. eigenvalues --  -10.19134 -10.18874 -10.18706 -10.18552  -1.05113
 Alpha  occ. eigenvalues --   -1.02964  -0.90623  -0.79893  -0.69761  -0.64520
 Alpha  occ. eigenvalues --   -0.61540  -0.55851  -0.55114  -0.52949  -0.49641
 Alpha  occ. eigenvalues --   -0.47022  -0.45325  -0.44306  -0.43021  -0.39600
 Alpha  occ. eigenvalues --   -0.38310  -0.37591  -0.35515  -0.34439  -0.31721
 Alpha  occ. eigenvalues --   -0.29322  -0.27702  -0.25249  -0.20210
 Alpha virt. eigenvalues --    0.07269   0.08760   0.10347   0.10992   0.12594
 Alpha virt. eigenvalues --    0.13952   0.14524   0.14921   0.16175   0.17087
 Alpha virt. eigenvalues --    0.17326   0.19582   0.20510   0.20898   0.22947

 Mulliken charges:
               1
     1  C   -0.262763
     2  O   -0.282308
     3  C    0.354664
     4  C   -0.370086
     5  C   -0.153089
     6  C   -0.152438
     7  C   -0.346284
     8  C    0.357373
     9  O   -0.458262
    10  H    0.115386
    11  H    0.125409
    12  H    0.127060
    13  H    0.117238
    14  H    0.113228
    15  H    0.099999
    16  H    0.093690
    17  H    0.121340
    18  H    0.109635
    19  H    0.290208
 Sum of Mulliken charges =   0.00000

 Dipole moment (field-independent basis, Debye):
    X=              0.6752    Y=             -0.5533    Z=              0.0214  Tot=              0.8732
 Quadrupole moment (field-independent basis, Debye-Ang):
   XX=            -50.3894   YY=            -54.7582   ZZ=            -51.5660
   XY=              1.1656   XZ=              1.6687   YZ=             -2.0258

  Exact polarizability:  83.984   0.370  74.331   0.298  -0.260  66.582
 Approx polarizability: 112.677   3.594 109.480   0.350   0.551 105.682

                      1                      2                      3
                      A                      A                      A
 Frequencies --    102.7332               142.2651               175.2132
 Red. masses --      3.0001                 3.4662                 1.2744
 Frc consts  --      0.0187                 0.0413                 0.0231
 IR Inten    --      5.5722                 1.5306                 4.6663

                      4                      5                      6
                      A                      A                      A
 Frequencies --    229.4054               260.9771               380.2948
 Red. masses --      2.0044                 3.2360                 1.5778
 Frc consts  --      0.0622                 0.1299                 0.1344
 IR Inten    --     23.6741                 3.1854                40.8345

                      7                      8                      9
                      A                      A                      A
 Frequencies --    393.5723               411.6612               440.5505
 Red. masses --      3.0595                 2.0177                 2.6573
 Frc consts  --      0.2792                 0.2015                 0.3039
 IR Inten    --      1.3412                41.9072                 5.5074

                     10                     11                     12
                      A                      A                      A
 Frequencies --    465.5804               490.2412               605.9493
 Red. masses --      4.0326                 2.1354                 3.5559
 Frc consts  --      0.5150                 0.3024                 0.7693
 IR Inten    --     19.8980                 1.1372                26.4304

                     13                     14                     15
                      A                      A                      A
 Frequencies --    657.1193               778.6529               811.0254
 Red. masses --      3.3505                 3.3633                 2.8827
 Frc consts  --      0.8524                 1.2015                 1.1172
 IR Inten    --      4.6982                 1.8308                 0.4028

                     16                     17                     18
                      A                      A                      A
 Frequencies --    834.6256               892.2645               925.7383
 Red. masses --      1.7201                 1.6780                 2.7909
 Frc consts  --      0.7060                 0.7871                 1.4092
 IR Inten    --      4.6264                 5.1503                14.2568

                     19                     20                     21
                      A                      A                      A
 Frequencies --    948.6960               963.5131               979.2988
 Red. masses --      1.5635                 1.9562                 1.5813
 Frc consts  --      0.8291                 1.0700                 0.8935
 IR Inten    --      4.4327                21.8520                 1.5554

                     22                     23                     24
                      A                      A                      A
 Frequencies --   1010.0727              1025.2432              1049.3101
 Red. masses --      2.0224                 1.8233                 1.4900
 Frc consts  --      1.2157                 1.1292                 0.9666
 IR Inten    --      4.7632                 9.6433                 4.1114

                     25                     26                     27
                      A                      A                      A
 Frequencies --   1067.6596              1079.7565              1100.9490
 Red. masses --      3.3801                 1.7659                 1.5129
 Frc consts  --      2.2701                 1.2130                 1.0804
 IR Inten    --     46.5408                 6.4543                18.0184

                     28                     29                     30
                      A                      A                      A
 Frequencies --   1152.1299              1180.3005              1212.2863
 Red. masses --      1.8234                 1.2812                 1.5540
 Frc consts  --      1.4260                 1.0516                 1.3456
 IR Inten    --     10.8043                 2.1345                22.9106

                     31                     32                     33
                      A                      A                      A
 Frequencies --   1241.1710              1243.8982              1257.4678
 Red. masses --      1.9122                 2.1186                 1.8525
 Frc consts  --      1.7356                 1.9314                 1.7258
 IR Inten    --      6.4880                48.7045                 6.1659

                     34                     35                     36
                      A                      A                      A
 Frequencies --   1339.8890              1364.8506              1419.7825
 Red. masses --      2.5885                 2.8184                 1.4571
 Frc consts  --      2.7380                 3.0933                 1.7306
 IR Inten    --    174.0840               123.7137                 2.3037

                     37                     38                     39
                      A                      A                      A
 Frequencies --   1470.9875              1488.1745              1500.6506
 Red. masses --      1.2130                 1.0525                 1.7000
 Frc consts  --      1.5464                 1.3734                 2.2556
 IR Inten    --      2.4041                 3.6629                 5.0364

                     40                     41                     42
                      A                      A                      A
 Frequencies --   1507.7675              1511.3552              3006.4022
 Red. masses --      1.1061                 1.3328                 1.0330
 Frc consts  --      1.4815                 1.7937                 5.5008
 IR Inten    --      0.1905                28.4046                48.2057

                     43                     44                     45
                      A                      A                      A
 Frequencies --   3069.2323              3110.3147              3123.8115
 Red. masses --      1.1044                 1.0549                 1.1010
 Frc consts  --      6.1298                 6.0129                 6.3300
 IR Inten    --     30.8778                 9.4286                27.6025

                     46                     47                     48
                      A                      A                      A
 Frequencies --   3125.1784              3189.3822              3196.9158
 Red. masses --      1.0539                 1.1061                 1.0999
 Frc consts  --      6.0645                 6.6289                 6.6229
 IR Inten    --     20.3028                 0.3220                13.8759

                     49                     50                     51
                      A                      A                      A
 Frequencies --   3200.5315              3206.1733              3777.0724
 Red. masses --      1.1057                 1.1027                 1.0654
 Frc consts  --      6.6733                 6.6787                 8.9548
 IR Inten    --      7.6432                19.5016                26.5265

 - Thermochemistry -
 -------------------
 Temperature   298.150 Kelvin.  Pressure   1.00000 Atm.
 Atom     1 has atomic number  6 and mass  12.00000

 Molecular mass:   126.06808 amu.
 Principal axes and moments of inertia in atomic units:
                           1         2         3
     Eigenvalues --   710.868121072.935971462.97878
           X            0.99975   0.01804   0.01303
           Y           -0.01787   0.99975  -0.01336
           Z           -0.01327   0.01312   0.99983
 This molecule is an asymmetric top.
 Rotational symmetry number  1.
 Warning -- assumption of classical behavior for rotation
           may cause significant error
 Rotational temperatures (Kelvin)      0.12184     0.08073     0.05920
 Rotational constants (GHZ):           2.53878     1.68206     1.23361
 Zero-point vibrational energy     413418.0 (Joules/Mol)
                                   98.80928 (Kcal/Mol)
 Warning -- explicit consideration of  12 degrees of freedom as
           vibrations may cause significant error
 Vibrational temperatures:    147.81   204.69   252.09   330.06   375.49
          (Kelvin)            547.16   566.26   592.29   633.85   669.87
                              705.35   871.82   945.45  1120.31  1166.88
                             1200.84  1283.77  1331.93  1364.96  1386.28
                             1408.99  1453.27  1475.09  1509.72  1536.12
                             1553.53  1584.02  1657.66  1698.19  1744.21
                             1785.77  1789.69  1809.21  1927.80  1963.71
                             2042.75  2116.42  2141.15  2159.10  2169.34
                             2174.50  4325.54  4415.94  4475.04  4494.46
                             4496.43  4588.80  4599.64  4604.85  4612.96
                             5434.36

 Zero-point correction=                           0.157463 (Hartree/Particle)
 Thermal correction to Energy=                    0.166041
 Thermal correction to Enthalpy=                  0.166985
 Thermal correction to Gibbs Free Energy=         0.124690
 Sum of electronic and zero-point Energies=           -422.933230
 Sum of electronic and thermal Energies=              -422.924652
 Sum of electronic and thermal Enthalpies=            -422.923707
 Sum of electronic and thermal Free Energies=         -422.966002

                     E (Thermal)             CV                S
                      KCal/Mol        Cal/Mol-Kelvin    Cal/Mol-Kelvin
 Total                  104.192             33.573             89.016
 Electronic               0.000              0.000              0.000
 Translational            0.889              2.981             40.409
 Rotational               0.889              2.981             28.503
 Vibrational            102.415             27.611             20.105
 Vibration     1          0.605              1.947              3.402
 Vibration     2          0.616              1.911              2.773
 Vibration     3          0.627              1.873              2.379
 Vibration     4          0.652              1.796              1.884
 Vibration     5          0.669              1.744              1.655
 Vibration     6          0.750              1.512              1.038
 Vibration     7          0.761              1.484              0.987
 Vibration     8          0.776              1.445              0.921
 Vibration     9          0.800              1.382              0.825
 Vibration    10          0.823              1.326              0.750
 Vibration    11          0.846              1.272              0.683
 Vibration    12          0.965              1.019              0.440

 Optimization completed.
    -- Stationary point found.
 Normal termination of Gaussian 09 at Tue Jan 28 10:25:46 2020.
