 Gaussian 09, Revision D.01,
 Gaussian 09:  ES64L-G09RevD.01 24-Apr-2013

 -----------------------------
 # b3lyp 6-31G(2df,p) opt Freq
 -----------------------------

 -----
 titel
 -----
 Symbolic Z-matrix:
 Charge =  0 Multiplicity = 1

 SCF Done:  E(RB3LYP) =  -423.123522851     A.U. after   12 cycles
 Optimization completed.
    -- Stationary point found.
 Normal termination of Gaussian 09 at Mon Jan 27 17:27:56 2020.

 ----------------------------------------------------------------------
 #N Geom=AllCheck Guess=TCheck SCRF=Check GenChk RB3LYP/6-31G(2df,p) Fr
 eq
 ----------------------------------------------------------------------

 Structure from the checkpoint file:  "/scratch/puck/g09_5076825e-572d-45ea-a784-4b56aa0bd242/Gau-72625.chk"
 -----
 titel
 -----
 Charge =  0 Multiplicity = 1

                         Standard orientation:
 ---------------------------------------------------------------------
 Center     Atomic      Atomic             Coordinates (Angstroms)
 Number     Number       Type             X           Y           Z
 ---------------------------------------------------------------------
      1          8           0       -2.727240   -0.778012   -0.202218
      2          6           0       -1.565374   -0.097168    0.110717
      3          6           0       -1.414446    1.384220   -0.077762
      4          6           0       -0.523220    0.436269   -0.859404
      5          6           0        0.601249   -0.068366    0.044170
      6          6           0        1.707068   -0.976649   -0.529358
      7          8           0        2.738754   -0.051443   -0.135703
      8          6           0        1.777044    0.832045    0.477376
      9          6           0       -0.463951   -0.645066    1.028262
     10          1           0       -3.417115   -0.500827    0.410676
     11          1           0       -2.202346    1.838955   -0.669942
     12          1           0       -1.003722    2.023392    0.701738
     13          1           0       -0.512179    0.430432   -1.943073
     14          1           0        1.815145   -1.951236   -0.033878
     15          1           0        1.682799   -1.130843   -1.616295
     16          1           0        1.933433    0.916589    1.561331
     17          1           0        1.795953    1.835697    0.033429
     18          1           0       -0.449161   -1.738389    1.033749
     19          1           0       -0.445145   -0.279836    2.061625
 ---------------------------------------------------------------------

 SCF Done:  E(RB3LYP) =  -423.123522852     A.U. after    1 cycles

 The electronic state is 1-A.
 Alpha  occ. eigenvalues --  -19.15120 -19.12669 -10.24435 -10.22518 -10.22364
 Alpha  occ. eigenvalues --  -10.20179 -10.19300 -10.19103 -10.18660  -1.03800
 Alpha  occ. eigenvalues --   -1.03189  -0.89260  -0.74825  -0.68820  -0.68278
 Alpha  occ. eigenvalues --   -0.61153  -0.58374  -0.52780  -0.52414  -0.49189
 Alpha  occ. eigenvalues --   -0.47226  -0.45501  -0.43298  -0.41623  -0.41143
 Alpha  occ. eigenvalues --   -0.39971  -0.37524  -0.35236  -0.32548  -0.31338
 Alpha  occ. eigenvalues --   -0.30303  -0.25919  -0.25418  -0.24299
 Alpha virt. eigenvalues --    0.07254   0.07580   0.09131   0.10991   0.11126
 Alpha virt. eigenvalues --    0.12904   0.13102   0.14748   0.15494   0.16281
 Alpha virt. eigenvalues --    0.16923   0.18993   0.19912   0.21384   0.21916

 Mulliken charges:
               1
     1  O   -0.462597
     2  C    0.413507
     3  C   -0.349321
     4  C   -0.189545
     5  C    0.322459
     6  C   -0.140107
     7  O   -0.275229
     8  C   -0.131244
     9  C   -0.390545
    10  H    0.286421
    11  H    0.115935
    12  H    0.105105
    13  H    0.095969
    14  H    0.096869
    15  H    0.101230
    16  H    0.095966
    17  H    0.100916
    18  H    0.112989
    19  H    0.091225
 Sum of Mulliken charges =   0.00000

 Dipole moment (field-independent basis, Debye):
    X=             -2.1780    Y=              0.7268    Z=              1.0604  Tot=              2.5291
 Quadrupole moment (field-independent basis, Debye-Ang):
   XX=            -58.0992   YY=            -52.4622   ZZ=            -51.3433
   XY=             -2.5855   XZ=             -2.5575   YZ=             -0.1987

  Exact polarizability:  82.859  -1.946  73.943  -0.956   0.851  68.481
 Approx polarizability: 110.733  -0.065 109.137  -3.185   2.188 104.416

                      1                      2                      3
                      A                      A                      A
 Frequencies --     60.4137               103.9129               211.1238
 Red. masses --      3.8093                 4.1293                 2.2835
 Frc consts  --      0.0082                 0.0263                 0.0600
 IR Inten    --      4.1841                 1.0585                13.8394

                      4                      5                      6
                      A                      A                      A
 Frequencies --    249.5273               304.6579               369.1296
 Red. masses --      1.1771                 2.4143                 3.3728
 Frc consts  --      0.0432                 0.1320                 0.2708
 IR Inten    --     77.3185                 1.0572                13.7033

                      7                      8                      9
                      A                      A                      A
 Frequencies --    385.1583               410.0937               436.5527
 Red. masses --      2.2230                 2.7204                 3.1165
 Frc consts  --      0.1943                 0.2696                 0.3499
 IR Inten    --      2.2974                 4.5896                 0.5103

                     10                     11                     12
                      A                      A                      A
 Frequencies --    512.9459               664.3833               765.1558
 Red. masses --      2.4598                 2.9571                 3.1027
 Frc consts  --      0.3813                 0.7691                 1.0703
 IR Inten    --      3.5078                 2.7010                 1.9034

                     13                     14                     15
                      A                      A                      A
 Frequencies --    830.3855               856.7285               878.6718
 Red. masses --      2.4479                 3.6559                 2.2790
 Frc consts  --      0.9945                 1.5810                 1.0367
 IR Inten    --      8.0341                11.1789                21.4472

                     16                     17                     18
                      A                      A                      A
 Frequencies --    889.1702               947.1327               950.5508
 Red. masses --      1.7583                 1.3359                 1.8566
 Frc consts  --      0.8191                 0.7060                 0.9884
 IR Inten    --      2.6949                 0.5914                 1.4827

                     19                     20                     21
                      A                      A                      A
 Frequencies --    984.6112               992.5812              1002.8802
 Red. masses --      2.4865                 2.1703                 1.4278
 Frc consts  --      1.4203                 1.2598                 0.8461
 IR Inten    --      5.7048                 8.6418                 1.1391

                     22                     23                     24
                      A                      A                      A
 Frequencies --   1037.5807              1039.4550              1072.6207
 Red. masses --      2.0616                 8.6314                 1.3708
 Frc consts  --      1.3076                 5.4947                 0.9292
 IR Inten    --     40.3805                68.0752                11.3624

                     25                     26                     27
                      A                      A                      A
 Frequencies --   1101.2220              1150.3672              1158.8978
 Red. masses --      1.7321                 1.3688                 1.0765
 Frc consts  --      1.2376                 1.0672                 0.8518
 IR Inten    --      8.3801                 1.1601                 0.4407

                     28                     29                     30
                      A                      A                      A
 Frequencies --   1161.6921              1193.8605              1200.7968
 Red. masses --      2.0000                 2.2030                 1.8872
 Frc consts  --      1.5903                 1.8500                 1.6033
 IR Inten    --     25.0561                 4.8719                 3.9669

                     31                     32                     33
                      A                      A                      A
 Frequencies --   1229.7721              1277.1111              1283.5573
 Red. masses --      1.6851                 3.0862                 1.9269
 Frc consts  --      1.5015                 2.9657                 1.8704
 IR Inten    --      6.6101                47.0092                43.7174

                     34                     35                     36
                      A                      A                      A
 Frequencies --   1308.0275              1331.6123              1383.0945
 Red. masses --      1.2986                 1.8338                 1.7724
 Frc consts  --      1.3091                 1.9158                 1.9977
 IR Inten    --      0.3128                33.7753                 1.2901

                     37                     38                     39
                      A                      A                      A
 Frequencies --   1405.0869              1474.6910              1503.6024
 Red. masses --      1.9888                 1.1468                 1.4320
 Frc consts  --      2.3134                 1.4693                 1.9074
 IR Inten    --     45.9488                 3.8690                16.8884

                     40                     41                     42
                      A                      A                      A
 Frequencies --   1507.6589              1532.6091              2992.7831
 Red. masses --      1.0791                 1.1097                 1.0526
 Frc consts  --      1.4452                 1.5358                 5.5545
 IR Inten    --      1.2250                 0.1547               119.2841

                     43                     44                     45
                      A                      A                      A
 Frequencies --   3005.0849              3032.8834              3040.4881
 Red. masses --      1.0583                 1.0624                 1.1098
 Frc consts  --      5.6308                 5.7579                 6.0449
 IR Inten    --      5.2939                28.8466                38.7143

                     46                     47                     48
                      A                      A                      A
 Frequencies --   3044.9625              3099.2315              3099.9358
 Red. masses --      1.1093                 1.0772                 1.0826
 Frc consts  --      6.0601                 6.0962                 6.1292
 IR Inten    --     59.0014                 0.7864                34.8967

                     49                     50                     51
                      A                      A                      A
 Frequencies --   3182.1943              3200.9107              3794.4712
 Red. masses --      1.0947                 1.1106                 1.0662
 Frc consts  --      6.5311                 6.7041                 9.0443
 IR Inten    --      7.1451                11.4873                23.1258

 - Thermochemistry -
 -------------------
 Temperature   298.150 Kelvin.  Pressure   1.00000 Atm.
 Atom     1 has atomic number  8 and mass  15.99491

 Molecular mass:   126.06808 amu.
 Principal axes and moments of inertia in atomic units:
                           1         2         3
     Eigenvalues --   444.650101611.253951740.25674
           X            0.99992  -0.01232  -0.00205
           Y            0.01233   0.99991   0.00507
           Z            0.00199  -0.00509   0.99999
 This molecule is an asymmetric top.
 Rotational symmetry number  1.
 Warning -- assumption of classical behavior for rotation
           may cause significant error
 Rotational temperatures (Kelvin)      0.19479     0.05376     0.04977
 Rotational constants (GHZ):           4.05879     1.12008     1.03705
 Zero-point vibrational energy     416611.6 (Joules/Mol)
                                   99.57257 (Kcal/Mol)
 Warning -- explicit consideration of  10 degrees of freedom as
           vibrations may cause significant error
 Vibrational temperatures:     86.92   149.51   303.76   359.01   438.33
          (Kelvin)            531.09   554.16   590.03   628.10   738.01
                              955.90  1100.89  1194.74  1232.64  1264.21
                             1279.32  1362.71  1367.63  1416.63  1428.10
                             1442.92  1492.85  1495.54  1543.26  1584.41
                             1655.12  1667.39  1671.41  1717.70  1727.68
                             1769.37  1837.48  1846.75  1881.96  1915.89
                             1989.96  2021.60  2121.75  2163.35  2169.18
                             2205.08  4305.94  4323.64  4363.64  4374.58
                             4381.02  4459.10  4460.11  4578.46  4605.39
                             5459.39

 Zero-point correction=                           0.158679 (Hartree/Particle)
 Thermal correction to Energy=                    0.166924
 Thermal correction to Enthalpy=                  0.167868
 Thermal correction to Gibbs Free Energy=         0.125580
 Sum of electronic and zero-point Energies=           -422.964844
 Sum of electronic and thermal Energies=              -422.956599
 Sum of electronic and thermal Enthalpies=            -422.955655
 Sum of electronic and thermal Free Energies=         -422.997943

                     E (Thermal)             CV                S
                      KCal/Mol        Cal/Mol-Kelvin    Cal/Mol-Kelvin
 Total                  104.746             31.743             89.004
 Electronic               0.000              0.000              0.000
 Translational            0.889              2.981             40.409
 Rotational               0.889              2.981             28.613
 Vibrational            102.969             25.781             19.982
 Vibration     1          0.597              1.973              4.444
 Vibration     2          0.605              1.946              3.380
 Vibration     3          0.643              1.824              2.034
 Vibration     4          0.662              1.764              1.734
 Vibration     5          0.696              1.665              1.391
 Vibration     6          0.741              1.536              1.083
 Vibration     7          0.754              1.502              1.019
 Vibration     8          0.774              1.448              0.926
 Vibration     9          0.797              1.391              0.838
 Vibration    10          0.868              1.221              0.627

 Normal termination of Gaussian 09 at Mon Jan 27 18:27:05 2020.
