 Gaussian 09, Revision D.01,
 Gaussian 09:  ES64L-G09RevD.01 24-Apr-2013

 -----------------------------
 # b3lyp 6-31G(2df,p) opt Freq
 -----------------------------

 -----
 titel
 -----
 Symbolic Z-matrix:
 Charge =  0 Multiplicity = 1

 SCF Done:  E(RB3LYP) =  -423.172525966     A.U. after   14 cycles
 Optimization completed.
    -- Stationary point found.
 Normal termination of Gaussian 09 at Mon Jan 27 23:05:39 2020.

 ----------------------------------------------------------------------
 #N Geom=AllCheck Guess=TCheck SCRF=Check GenChk RB3LYP/6-31G(2df,p) Fr
 eq
 ----------------------------------------------------------------------

 Structure from the checkpoint file:  "/scratch/puck/g09_d0c4ee1e-a735-457e-af8e-e390616e6283/Gau-185888.chk"
 -----
 titel
 -----
 Charge =  0 Multiplicity = 1

                         Standard orientation:
 ---------------------------------------------------------------------
 Center     Atomic      Atomic             Coordinates (Angstroms)
 Number     Number       Type             X           Y           Z
 ---------------------------------------------------------------------
      1          6           0       -2.335599   -0.605165   -0.748931
      2          6           0       -1.527401    0.269452    0.199066
      3          6           0       -0.564849    1.249569   -0.496294
      4          6           0        0.294285    1.964302    0.476638
      5          6           0        0.651423    0.523851    0.161327
      6          6           0        1.904082    0.142072   -0.474450
      7          8           0        2.406837   -0.962326   -0.376280
      8          6           0       -0.300742   -0.446746    0.881005
      9          8           0       -0.164503   -1.783371    0.480177
     10          1           0       -2.886477   -1.371976   -0.197845
     11          1           0       -3.057578    0.004623   -1.302745
     12          1           0       -1.687228   -1.117043   -1.463257
     13          1           0       -2.192738    0.766842    0.914289
     14          1           0       -0.638205    1.561869   -1.532196
     15          1           0        0.973162    2.707510    0.068281
     16          1           0       -0.068670    2.189864    1.476731
     17          1           0        2.391290    0.933420   -1.086814
     18          1           0       -0.279386   -0.359477    1.978484
     19          1           0        0.779968   -1.934064    0.323728
 ---------------------------------------------------------------------

 SCF Done:  E(RB3LYP) =  -423.172525966     A.U. after    1 cycles

 The electronic state is 1-A.
 Alpha  occ. eigenvalues --  -19.14364 -19.12666 -10.27809 -10.23889 -10.21915
 Alpha  occ. eigenvalues --  -10.21579 -10.21322 -10.19878 -10.17377  -1.05048
 Alpha  occ. eigenvalues --   -1.01474  -0.91210  -0.76775  -0.69377  -0.67860
 Alpha  occ. eigenvalues --   -0.62330  -0.57857  -0.55219  -0.51261  -0.49053
 Alpha  occ. eigenvalues --   -0.48338  -0.45258  -0.43143  -0.41361  -0.41126
 Alpha  occ. eigenvalues --   -0.39442  -0.37877  -0.36858  -0.34653  -0.33254
 Alpha  occ. eigenvalues --   -0.30667  -0.28716  -0.25605  -0.25181
 Alpha virt. eigenvalues --   -0.03290   0.08356   0.09998   0.10246   0.11021
 Alpha virt. eigenvalues --    0.11608   0.14546   0.15251   0.15904   0.16359
 Alpha virt. eigenvalues --    0.17054   0.18449   0.19266   0.20575   0.22037

 Mulliken charges:
               1
     1  C   -0.394673
     2  C   -0.010151
     3  C   -0.094394
     4  C   -0.350273
     5  C    0.238031
     6  C    0.059662
     7  O   -0.301162
     8  C    0.046135
     9  O   -0.435042
    10  H    0.127681
    11  H    0.106069
    12  H    0.129575
    13  H    0.073711
    14  H    0.103831
    15  H    0.127321
    16  H    0.126106
    17  H    0.082399
    18  H    0.064450
    19  H    0.300723
 Sum of Mulliken charges =   0.00000

 Dipole moment (field-independent basis, Debye):
    X=             -0.8603    Y=              3.3313    Z=             -0.1272  Tot=              3.4430
 Quadrupole moment (field-independent basis, Debye-Ang):
   XX=            -56.6248   YY=            -55.0973   ZZ=            -51.6524
   XY=              2.8474   XZ=              0.2884   YZ=             -0.2343

  Exact polarizability:  87.545  -2.736  80.667  -2.683  -0.122  65.139
 Approx polarizability: 125.701 -16.026 127.371  -3.654  -0.591  98.653

                      1                      2                      3
                      A                      A                      A
 Frequencies --     75.4407               161.7427               194.4515
 Red. masses --      5.0835                 2.6907                 1.6398
 Frc consts  --      0.0170                 0.0415                 0.0365
 IR Inten    --      0.9595                 2.7664                 2.8328

                      4                      5                      6
                      A                      A                      A
 Frequencies --    218.2375               274.7124               282.3713
 Red. masses --      2.3626                 2.9770                 2.6333
 Frc consts  --      0.0663                 0.1324                 0.1237
 IR Inten    --      4.0433                 8.3027                11.3556

                      7                      8                      9
                      A                      A                      A
 Frequencies --    314.4627               397.3804               430.3001
 Red. masses --      2.2466                 3.1281                 4.4014
 Frc consts  --      0.1309                 0.2910                 0.4802
 IR Inten    --      0.5538                 2.6634                 7.3874

                     10                     11                     12
                      A                      A                      A
 Frequencies --    482.4720               536.5249               564.4012
 Red. masses --      2.1437                 1.6629                 2.9945
 Frc consts  --      0.2940                 0.2820                 0.5620
 IR Inten    --     24.1884                62.8563                24.9891

                     13                     14                     15
                      A                      A                      A
 Frequencies --    707.3220               757.6471               815.5263
 Red. masses --      3.2520                 3.8777                 2.7406
 Frc consts  --      0.9586                 1.3115                 1.0739
 IR Inten    --     14.3036                 4.9932                 0.2741

                     16                     17                     18
                      A                      A                      A
 Frequencies --    845.4347               875.0956               944.6567
 Red. masses --      2.0364                 2.8979                 1.3272
 Frc consts  --      0.8576                 1.3075                 0.6978
 IR Inten    --      2.3288                 7.2503                 6.6666

                     19                     20                     21
                      A                      A                      A
 Frequencies --    958.1428               991.4968              1017.0011
 Red. masses --      1.4439                 2.6171                 1.3658
 Frc consts  --      0.7810                 1.5158                 0.8323
 IR Inten    --     29.6985                14.2813                 5.5574

                     22                     23                     24
                      A                      A                      A
 Frequencies --   1043.2780              1049.4062              1087.6538
 Red. masses --      1.7748                 1.5678                 1.3584
 Frc consts  --      1.1381                 1.0173                 0.9468
 IR Inten    --     32.3117                 0.7952                 5.5769

                     25                     26                     27
                      A                      A                      A
 Frequencies --   1105.9592              1144.3407              1178.6690
 Red. masses --      1.8906                 2.3340                 3.1159
 Frc consts  --      1.3625                 1.8008                 2.5504
 IR Inten    --     13.1160                17.9720                41.1145

                     28                     29                     30
                      A                      A                      A
 Frequencies --   1221.8717              1239.2885              1280.0862
 Red. masses --      1.3771                 1.8050                 1.4332
 Frc consts  --      1.2113                 1.6333                 1.3837
 IR Inten    --     15.3377                 2.0989                 3.0529

                     31                     32                     33
                      A                      A                      A
 Frequencies --   1308.5000              1358.7427              1364.5055
 Red. masses --      1.8998                 2.3870                 1.4489
 Frc consts  --      1.9165                 2.5964                 1.5895
 IR Inten    --      2.8485                47.5325                35.6269

                     34                     35                     36
                      A                      A                      A
 Frequencies --   1372.2989              1410.0488              1422.7051
 Red. masses --      1.4084                 1.2768                 1.2931
 Frc consts  --      1.5627                 1.4957                 1.5421
 IR Inten    --      6.1392                 8.3077                45.8507

                     37                     38                     39
                      A                      A                      A
 Frequencies --   1443.0559              1486.4936              1489.9971
 Red. masses --      1.6152                 1.1741                 1.1386
 Frc consts  --      1.9818                 1.5285                 1.4894
 IR Inten    --     41.2717                 8.5892                 4.5495

                     40                     41                     42
                      A                      A                      A
 Frequencies --   1495.0163              1761.0802              2882.0791
 Red. masses --      1.0486                 9.5325                 1.0830
 Frc consts  --      1.3809                17.4187                 5.3002
 IR Inten    --      4.6241               258.7604               111.1900

                     43                     44                     45
                      A                      A                      A
 Frequencies --   2969.5509              3034.1972              3042.7125
 Red. masses --      1.0841                 1.0791                 1.0434
 Frc consts  --      5.6325                 5.8532                 5.6917
 IR Inten    --     69.1207                39.2219                30.8100

                     46                     47                     48
                      A                      A                      A
 Frequencies --   3108.3140              3109.9855              3132.0762
 Red. masses --      1.0552                 1.0990                 1.1007
 Frc consts  --      6.0069                 6.2629                 6.3617
 IR Inten    --     15.2389                18.2385                18.7519

                     49                     50                     51
                      A                      A                      A
 Frequencies --   3175.6833              3197.3654              3701.6507
 Red. masses --      1.0939                 1.1136                 1.0663
 Frc consts  --      6.4998                 6.7074                 8.6082
 IR Inten    --      8.8717                 8.6431               116.1453

 - Thermochemistry -
 -------------------
 Temperature   298.150 Kelvin.  Pressure   1.00000 Atm.
 Atom     1 has atomic number  6 and mass  12.00000

 Molecular mass:   126.06808 amu.
 Principal axes and moments of inertia in atomic units:
                           1         2         3
     Eigenvalues --   751.222571143.345371568.41008
           X            0.99831   0.05647   0.01376
           Y           -0.05662   0.99833   0.01111
           Z           -0.01311  -0.01187   0.99984
 This molecule is an asymmetric top.
 Rotational symmetry number  1.
 Warning -- assumption of classical behavior for rotation
           may cause significant error
 Rotational temperatures (Kelvin)      0.11530     0.07575     0.05522
 Rotational constants (GHZ):           2.40241     1.57847     1.15068
 Zero-point vibrational energy     415471.6 (Joules/Mol)
                                   99.30010 (Kcal/Mol)
 Warning -- explicit consideration of  12 degrees of freedom as
           vibrations may cause significant error
 Vibrational temperatures:    108.54   232.71   279.77   313.99   395.25
          (Kelvin)            406.27   452.44   571.74   619.11   694.17
                              771.94   812.05  1017.68  1090.08  1173.36
                             1216.39  1259.07  1359.15  1378.55  1426.54
                             1463.24  1501.04  1509.86  1564.89  1591.23
                             1646.45  1695.84  1758.00  1783.06  1841.76
                             1882.64  1954.93  1963.22  1974.43  2028.74
                             2046.95  2076.23  2138.73  2143.77  2150.99
                             2533.80  4146.66  4272.52  4365.53  4377.78
                             4472.17  4474.57  4506.35  4569.09  4600.29
                             5325.84

 Zero-point correction=                           0.158245 (Hartree/Particle)
 Thermal correction to Energy=                    0.166922
 Thermal correction to Enthalpy=                  0.167866
 Thermal correction to Gibbs Free Energy=         0.125116
 Sum of electronic and zero-point Energies=           -423.014281
 Sum of electronic and thermal Energies=              -423.005604
 Sum of electronic and thermal Enthalpies=            -423.004660
 Sum of electronic and thermal Free Energies=         -423.047410

                     E (Thermal)             CV                S
                      KCal/Mol        Cal/Mol-Kelvin    Cal/Mol-Kelvin
 Total                  104.745             33.159             89.974
 Electronic               0.000              0.000              0.000
 Translational            0.889              2.981             40.409
 Rotational               0.889              2.981             28.690
 Vibrational            102.967             27.198             20.876
 Vibration     1          0.599              1.965              4.006
 Vibration     2          0.622              1.889              2.529
 Vibration     3          0.635              1.848              2.185
 Vibration     4          0.646              1.813              1.974
 Vibration     5          0.677              1.720              1.566
 Vibration     6          0.681              1.706              1.519
 Vibration     7          0.702              1.646              1.339
 Vibration     8          0.764              1.476              0.972
 Vibration     9          0.791              1.404              0.858
 Vibration    10          0.839              1.289              0.703
 Vibration    11          0.892              1.169              0.573
 Vibration    12          0.920              1.108              0.515

 Optimization completed.
    -- Stationary point found.
 Normal termination of Gaussian 09 at Mon Jan 27 23:52:24 2020.
