 Gaussian 09, Revision D.01,
 Gaussian 09:  ES64L-G09RevD.01 24-Apr-2013

 -----------------------------
 # b3lyp 6-31G(2df,p) opt Freq
 -----------------------------

 -----
 titel
 -----
 Symbolic Z-matrix:
 Charge =  0 Multiplicity = 1

 SCF Done:  E(RB3LYP) =  -423.162137315     A.U. after   13 cycles
 Optimization completed.
    -- Stationary point found.
 Normal termination of Gaussian 09 at Mon Jan 27 22:03:29 2020.

 ----------------------------------------------------------------------
 #N Geom=AllCheck Guess=TCheck SCRF=Check GenChk RB3LYP/6-31G(2df,p) Fr
 eq
 ----------------------------------------------------------------------

 Structure from the checkpoint file:  "/scratch/puck/g09_d02266d1-affd-4965-aaa1-39d60fbc854d/Gau-176387.chk"
 -----
 titel
 -----
 Charge =  0 Multiplicity = 1

                         Standard orientation:
 ---------------------------------------------------------------------
 Center     Atomic      Atomic             Coordinates (Angstroms)
 Number     Number       Type             X           Y           Z
 ---------------------------------------------------------------------
      1          6           0       -2.544428   -0.272427   -0.440005
      2          6           0       -1.085941   -0.035279   -0.130702
      3          6           0       -0.485032    1.317400   -0.488925
      4          8           0        0.665783    1.480592    0.357338
      5          6           0        0.872836    0.244327    1.049732
      6          6           0       -0.481994   -0.472215    1.171260
      7          6           0       -0.155584   -1.236258   -0.121751
      8          6           0        1.318474   -0.832147    0.013142
      9          8           0        2.049684   -0.378867   -1.093423
     10          1           0       -2.728299   -0.245458   -1.519891
     11          1           0       -2.872090   -1.250033   -0.074174
     12          1           0       -3.176989    0.491265    0.026227
     13          1           0       -0.185749    1.380169   -1.543022
     14          1           0       -1.192366    2.130690   -0.280793
     15          1           0        1.496902    0.435873    1.920883
     16          1           0       -1.018026   -0.770074    2.061725
     17          1           0       -0.519219   -2.208810   -0.434937
     18          1           0        1.875316   -1.642456    0.496806
     19          1           0        1.966797    0.584624   -1.080654
 ---------------------------------------------------------------------

 SCF Done:  E(RB3LYP) =  -423.162137315     A.U. after    1 cycles

 The electronic state is 1-A.
 Alpha  occ. eigenvalues --  -19.14764 -19.12513 -10.23564 -10.23106 -10.22880
 Alpha  occ. eigenvalues --  -10.20786 -10.19552 -10.19360 -10.18916  -1.05044
 Alpha  occ. eigenvalues --   -1.00493  -0.89248  -0.77443  -0.69918  -0.66419
 Alpha  occ. eigenvalues --   -0.63799  -0.56996  -0.54469  -0.53044  -0.47850
 Alpha  occ. eigenvalues --   -0.46223  -0.45134  -0.43207  -0.41905  -0.40876
 Alpha  occ. eigenvalues --   -0.40222  -0.39080  -0.36597  -0.33161  -0.31966
 Alpha  occ. eigenvalues --   -0.29474  -0.27675  -0.25314  -0.24765
 Alpha virt. eigenvalues --    0.08795   0.09217   0.09361   0.10776   0.13157
 Alpha virt. eigenvalues --    0.14092   0.14445   0.16070   0.16589   0.16967
 Alpha virt. eigenvalues --    0.17546   0.18108   0.19014   0.20246   0.21689

 Mulliken charges:
               1
     1  C   -0.495093
     2  C    0.311867
     3  C   -0.159565
     4  O   -0.283882
     5  C    0.012180
     6  C   -0.125791
     7  C   -0.167258
     8  C    0.151310
     9  O   -0.454967
    10  H    0.126644
    11  H    0.123829
    12  H    0.122384
    13  H    0.104296
    14  H    0.103343
    15  H    0.084626
    16  H    0.090355
    17  H    0.083237
    18  H    0.082341
    19  H    0.290143
 Sum of Mulliken charges =   0.00000

 Dipole moment (field-independent basis, Debye):
    X=             -2.1275    Y=             -0.3144    Z=              0.9345  Tot=              2.3449
 Quadrupole moment (field-independent basis, Debye-Ang):
   XX=            -54.4941   YY=            -53.6306   ZZ=            -52.7580
   XY=              0.7282   XZ=              3.0059   YZ=             -3.1151

  Exact polarizability:  80.735  -2.201  71.429   2.523  -2.480  68.730
 Approx polarizability: 108.639  -3.030 109.187   0.958  -1.596 108.629

                      1                      2                      3
                      A                      A                      A
 Frequencies --    157.3183               203.3051               213.7185
 Red. masses --      4.6045                 2.4815                 1.0807
 Frc consts  --      0.0671                 0.0604                 0.0291
 IR Inten    --      4.9729                 0.7662                 0.1286

                      4                      5                      6
                      A                      A                      A
 Frequencies --    268.6916               303.2798               365.6079
 Red. masses --      5.4370                 2.4315                 2.4709
 Frc consts  --      0.2313                 0.1318                 0.1946
 IR Inten    --     12.4593                 0.5443                 0.8193

                      7                      8                      9
                      A                      A                      A
 Frequencies --    467.7423               524.9124               550.9158
 Red. masses --      1.0752                 3.1918                 4.1974
 Frc consts  --      0.1386                 0.5182                 0.7506
 IR Inten    --     57.6363                 0.7552                 2.2244

                     10                     11                     12
                      A                      A                      A
 Frequencies --    625.0191               675.2723               704.4068
 Red. masses --      4.9635                 5.2268                 4.5953
 Frc consts  --      1.1424                 1.4042                 1.3434
 IR Inten    --      4.4016                 3.2806                 2.3411

                     13                     14                     15
                      A                      A                      A
 Frequencies --    799.2900               838.3436               863.8860
 Red. masses --      2.8913                 2.6516                 1.7077
 Frc consts  --      1.0883                 1.0980                 0.7509
 IR Inten    --     10.8381                29.7783                 4.5017

                     16                     17                     18
                      A                      A                      A
 Frequencies --    888.8708               914.6915               945.5846
 Red. masses --      2.2111                 1.8727                 1.6100
 Frc consts  --      1.0293                 0.9231                 0.8482
 IR Inten    --      1.2542                 7.2717                 0.8568

                     19                     20                     21
                      A                      A                      A
 Frequencies --    974.0499              1003.6555              1016.5255
 Red. masses --      2.6486                 1.8736                 1.6044
 Frc consts  --      1.4806                 1.1120                 0.9768
 IR Inten    --     13.0129                 1.9786                10.3067

                     22                     23                     24
                      A                      A                      A
 Frequencies --   1035.0768              1051.1534              1070.1807
 Red. masses --      2.4580                 2.5870                 2.7346
 Frc consts  --      1.5516                 1.6841                 1.8452
 IR Inten    --     42.6723                 9.1245                55.5541

                     25                     26                     27
                      A                      A                      A
 Frequencies --   1115.4124              1134.3701              1144.9452
 Red. masses --      1.8349                 2.2265                 2.4699
 Frc consts  --      1.3450                 1.6881                 1.9076
 IR Inten    --     34.4632                39.5046                83.3307

                     28                     29                     30
                      A                      A                      A
 Frequencies --   1209.4183              1230.0481              1237.3115
 Red. masses --      1.4900                 1.1887                 1.7301
 Frc consts  --      1.2841                 1.0597                 1.5605
 IR Inten    --      1.5402                 2.0046                 2.0996

                     31                     32                     33
                      A                      A                      A
 Frequencies --   1269.3650              1279.4762              1318.3839
 Red. masses --      1.8450                 1.6758                 1.5013
 Frc consts  --      1.7516                 1.6164                 1.5375
 IR Inten    --      3.8692                 8.4840                 2.7756

                     34                     35                     36
                      A                      A                      A
 Frequencies --   1352.3962              1367.8129              1415.1357
 Red. masses --      1.6818                 1.9285                 1.4425
 Frc consts  --      1.8124                 2.1258                 1.7020
 IR Inten    --      5.6223                 8.1761                46.7928

                     37                     38                     39
                      A                      A                      A
 Frequencies --   1419.6450              1431.9305              1491.3410
 Red. masses --      1.2401                 1.8131                 1.0454
 Frc consts  --      1.4726                 2.1904                 1.3699
 IR Inten    --     14.9479                28.3474                 4.0625

                     40                     41                     42
                      A                      A                      A
 Frequencies --   1501.8123              1526.9436              3009.5432
 Red. masses --      1.0835                 1.0859                 1.0554
 Frc consts  --      1.4399                 1.4917                 5.6321
 IR Inten    --      4.6197                 0.6492                58.3512

                     43                     44                     45
                      A                      A                      A
 Frequencies --   3028.6107              3045.4335              3048.4781
 Red. masses --      1.0362                 1.1060                 1.0889
 Frc consts  --      5.5997                 6.0438                 5.9622
 IR Inten    --     39.7699                42.7697                31.1830

                     46                     47                     48
                      A                      A                      A
 Frequencies --   3088.4907              3105.6021              3134.8822
 Red. masses --      1.1011                 1.1005                 1.0909
 Frc consts  --      6.1885                 6.2538                 6.3165
 IR Inten    --     21.8953                17.5863                31.5023

                     49                     50                     51
                      A                      A                      A
 Frequencies --   3171.8827              3211.0104              3745.0070
 Red. masses --      1.0914                 1.0962                 1.0649
 Frc consts  --      6.4696                 6.6593                 8.7998
 IR Inten    --     18.7051                 8.0524                37.1412

 - Thermochemistry -
 -------------------
 Temperature   298.150 Kelvin.  Pressure   1.00000 Atm.
 Atom     1 has atomic number  6 and mass  12.00000

 Molecular mass:   126.06808 amu.
 Principal axes and moments of inertia in atomic units:
                           1         2         3
     Eigenvalues --   632.052671109.618631238.86012
           X            0.99960   0.00785   0.02709
           Y           -0.00523   0.99544  -0.09529
           Z           -0.02772   0.09511   0.99508
 This molecule is an asymmetric top.
 Rotational symmetry number  1.
 Warning -- assumption of classical behavior for rotation
           may cause significant error
 Rotational temperatures (Kelvin)      0.13704     0.07806     0.06991
 Rotational constants (GHZ):           2.85537     1.62645     1.45678
 Zero-point vibrational energy     421660.8 (Joules/Mol)
                                  100.77936 (Kcal/Mol)
 Warning -- explicit consideration of   9 degrees of freedom as
           vibrations may cause significant error
 Vibrational temperatures:    226.35   292.51   307.49   386.59   436.35
          (Kelvin)            526.03   672.98   755.23   792.64   899.26
                              971.57  1013.48  1150.00  1206.19  1242.94
                             1278.89  1316.04  1360.48  1401.44  1444.03
                             1462.55  1489.24  1512.37  1539.75  1604.83
                             1632.10  1647.32  1740.08  1769.76  1780.21
                             1826.33  1840.88  1896.86  1945.79  1967.98
                             2036.06  2042.55  2060.23  2145.70  2160.77
                             2196.93  4330.06  4357.49  4381.69  4386.07
                             4443.64  4468.26  4510.39  4563.63  4619.92
                             5388.22

 Zero-point correction=                           0.160602 (Hartree/Particle)
 Thermal correction to Energy=                    0.168169
 Thermal correction to Enthalpy=                  0.169113
 Thermal correction to Gibbs Free Energy=         0.129044
 Sum of electronic and zero-point Energies=           -423.001535
 Sum of electronic and thermal Energies=              -422.993968
 Sum of electronic and thermal Enthalpies=            -422.993024
 Sum of electronic and thermal Free Energies=         -423.033093

                     E (Thermal)             CV                S
                      KCal/Mol        Cal/Mol-Kelvin    Cal/Mol-Kelvin
 Total                  105.528             30.672             84.333
 Electronic               0.000              0.000              0.000
 Translational            0.889              2.981             40.409
 Rotational               0.889              2.981             28.254
 Vibrational            103.750             24.710             15.670
 Vibration     1          0.621              1.894              2.582
 Vibration     2          0.639              1.835              2.103
 Vibration     3          0.644              1.820              2.012
 Vibration     4          0.673              1.731              1.605
 Vibration     5          0.695              1.667              1.399
 Vibration     6          0.739              1.543              1.098
 Vibration     7          0.825              1.322              0.744
 Vibration     8          0.880              1.195              0.599
 Vibration     9          0.906              1.138              0.542

 Optimization completed.
    -- Stationary point found.
 Normal termination of Gaussian 09 at Mon Jan 27 22:57:10 2020.
