 Gaussian 09, Revision D.01,
 Gaussian 09:  ES64L-G09RevD.01 24-Apr-2013

 -----------------------------
 # b3lyp 6-31G(2df,p) opt Freq
 -----------------------------

 -----
 titel
 -----
 Symbolic Z-matrix:
 Charge =  0 Multiplicity = 1

 SCF Done:  E(RB3LYP) =  -423.144592367     A.U. after   13 cycles
 Optimization completed.
    -- Stationary point found.
 Normal termination of Gaussian 09 at Tue Jan 28 13:40:03 2020.

 ----------------------------------------------------------------------
 #N Geom=AllCheck Guess=TCheck SCRF=Check GenChk RB3LYP/6-31G(2df,p) Fr
 eq
 ----------------------------------------------------------------------

 Structure from the checkpoint file:  "/scratch/puck/g09_2ed1afb9-7e59-4eb0-98f3-906b5a541dce/Gau-94129.chk"
 -----
 titel
 -----
 Charge =  0 Multiplicity = 1

                         Standard orientation:
 ---------------------------------------------------------------------
 Center     Atomic      Atomic             Coordinates (Angstroms)
 Number     Number       Type             X           Y           Z
 ---------------------------------------------------------------------
      1          8           0       -2.865526   -0.542913    0.135802
      2          6           0       -1.939159    0.370526   -0.436697
      3          6           0       -0.665033    0.517562    0.393180
      4          6           0        0.376690    1.506697   -0.211254
      5          6           0        1.726389    0.833635    0.037848
      6          6           0        1.887460   -0.572821   -0.506246
      7          8           0        0.615024   -1.129477   -0.839108
      8          6           0        0.138964   -0.778899    0.508070
      9          6           0        1.566033   -0.378612    0.940386
     10          1           0       -3.179770   -0.164328    0.963029
     11          1           0       -1.676916   -0.041178   -1.415877
     12          1           0       -2.399910    1.357114   -0.600739
     13          1           0       -0.935296    0.842893    1.409325
     14          1           0        0.197359    1.657549   -1.281497
     15          1           0        0.328456    2.488298    0.268359
     16          1           0        2.629422    1.428459    0.121177
     17          1           0        2.760371   -0.951190   -1.025314
     18          1           0       -0.364363   -1.621045    0.982265
     19          1           0        2.096603   -0.605984    1.854000
 ---------------------------------------------------------------------

 SCF Done:  E(RB3LYP) =  -423.144592367     A.U. after    1 cycles

 The electronic state is 1-A.
 Alpha  occ. eigenvalues --  -19.13214 -19.13127 -10.23561 -10.23274 -10.22068
 Alpha  occ. eigenvalues --  -10.19245 -10.18879 -10.18681 -10.18522  -1.04867
 Alpha  occ. eigenvalues --   -1.01195  -0.84579  -0.78319  -0.69894  -0.67189
 Alpha  occ. eigenvalues --   -0.59156  -0.56557  -0.53474  -0.52941  -0.49675
 Alpha  occ. eigenvalues --   -0.47474  -0.45528  -0.42558  -0.40861  -0.39816
 Alpha  occ. eigenvalues --   -0.37969  -0.36624  -0.34246  -0.33869  -0.31533
 Alpha  occ. eigenvalues --   -0.30956  -0.27132  -0.25988  -0.22597
 Alpha virt. eigenvalues --    0.06828   0.08989   0.10499   0.11412   0.12658
 Alpha virt. eigenvalues --    0.13815   0.14914   0.15309   0.16432   0.16999
 Alpha virt. eigenvalues --    0.17269   0.18085   0.19527   0.20531   0.23164

 Mulliken charges:
               1
     1  O   -0.422179
     2  C   -0.085593
     3  C    0.003974
     4  C   -0.265612
     5  C   -0.086083
     6  C    0.102914
     7  O   -0.310588
     8  C    0.094467
     9  C   -0.166709
    10  H    0.279100
    11  H    0.131704
    12  H    0.084317
    13  H    0.058921
    14  H    0.110060
    15  H    0.100001
    16  H    0.087529
    17  H    0.101606
    18  H    0.087183
    19  H    0.094990
 Sum of Mulliken charges =   0.00000

 Dipole moment (field-independent basis, Debye):
    X=              0.9929    Y=              2.0106    Z=              2.0036  Tot=              3.0071
 Quadrupole moment (field-independent basis, Debye-Ang):
   XX=            -50.8365   YY=            -54.6658   ZZ=            -51.5415
   XY=             -3.2732   XZ=             -3.1904   YZ=             -1.7417

  Exact polarizability:  83.176  -0.204  70.285  -2.412  -1.578  66.325
 Approx polarizability: 108.215   2.610 106.208  -4.830   0.873 107.903

                      1                      2                      3
                      A                      A                      A
 Frequencies --     95.5845               145.1503               205.7266
 Red. masses --      4.6729                 2.8844                 2.7223
 Frc consts  --      0.0252                 0.0358                 0.0679
 IR Inten    --      0.3304                 1.6899                 5.0449

                      4                      5                      6
                      A                      A                      A
 Frequencies --    290.0131               324.9366               389.3178
 Red. masses --      1.4457                 1.8021                 4.3051
 Frc consts  --      0.0716                 0.1121                 0.3845
 IR Inten    --     45.1097                78.1073                 4.3892

                      7                      8                      9
                      A                      A                      A
 Frequencies --    489.2552               543.0731               633.1342
 Red. masses --      3.0710                 3.2160                 4.1923
 Frc consts  --      0.4331                 0.5588                 0.9901
 IR Inten    --      5.5266                 7.5739                 4.2945

                     10                     11                     12
                      A                      A                      A
 Frequencies --    721.4123               753.4677               798.2453
 Red. masses --      2.8263                 2.9766                 1.8346
 Frc consts  --      0.8666                 0.9956                 0.6887
 IR Inten    --      2.0117                 6.7405                10.0254

                     13                     14                     15
                      A                      A                      A
 Frequencies --    804.6381               860.5960               873.2845
 Red. masses --      2.0517                 2.8691                 2.5294
 Frc consts  --      0.7826                 1.2520                 1.1365
 IR Inten    --      1.9471                11.3408                14.8559

                     16                     17                     18
                      A                      A                      A
 Frequencies --    900.3363               930.4377               976.7497
 Red. masses --      1.7307                 1.5475                 2.3315
 Frc consts  --      0.8266                 0.7893                 1.3106
 IR Inten    --      2.1324                10.3209                37.3417

                     19                     20                     21
                      A                      A                      A
 Frequencies --    999.5871              1013.9803              1029.8604
 Red. masses --      2.8748                 2.1335                 3.5458
 Frc consts  --      1.6924                 1.2924                 2.2157
 IR Inten    --     21.6017                 7.3312                30.4098

                     22                     23                     24
                      A                      A                      A
 Frequencies --   1041.3714              1049.1643              1074.6832
 Red. masses --      1.5284                 2.0203                 2.0062
 Frc consts  --      0.9766                 1.3103                 1.3652
 IR Inten    --      3.3253                50.7464                28.5870

                     25                     26                     27
                      A                      A                      A
 Frequencies --   1084.5061              1102.9483              1119.9243
 Red. masses --      2.1484                 2.2072                 2.0469
 Frc consts  --      1.4888                 1.5820                 1.5126
 IR Inten    --      9.8233                13.6102                 2.2336

                     28                     29                     30
                      A                      A                      A
 Frequencies --   1173.9104              1204.8762              1232.0851
 Red. masses --      1.2984                 1.3137                 1.4633
 Frc consts  --      1.0542                 1.1236                 1.3088
 IR Inten    --     22.4985                 3.9933                 2.7580

                     31                     32                     33
                      A                      A                      A
 Frequencies --   1255.8346              1269.8022              1293.4364
 Red. masses --      2.0131                 1.3051                 1.2928
 Frc consts  --      1.8706                 1.2398                 1.2743
 IR Inten    --      9.8719                 0.4050                 2.9064

                     34                     35                     36
                      A                      A                      A
 Frequencies --   1299.6169              1343.8038              1366.3323
 Red. masses --      1.5390                 1.4313                 1.6995
 Frc consts  --      1.5315                 1.5229                 1.8693
 IR Inten    --      2.3630                 2.9178                 7.7856

                     37                     38                     39
                      A                      A                      A
 Frequencies --   1389.5542              1405.9750              1412.1386
 Red. masses --      1.3518                 2.2098                 1.2907
 Frc consts  --      1.5379                 2.5738                 1.5165
 IR Inten    --      2.4721                 2.6122                40.7623

                     40                     41                     42
                      A                      A                      A
 Frequencies --   1491.6844              1504.8659              2981.3771
 Red. masses --      1.0901                 1.0816                 1.0724
 Frc consts  --      1.4292                 1.4432                 5.6164
 IR Inten    --      1.7645                 3.1743                56.4051

                     43                     44                     45
                      A                      A                      A
 Frequencies --   2992.4865              3044.5658              3087.2418
 Red. masses --      1.0807                 1.0610                 1.1024
 Frc consts  --      5.7020                 5.7947                 6.1906
 IR Inten    --     33.7612                37.0982                14.0904

                     46                     47                     48
                      A                      A                      A
 Frequencies --   3093.7860              3123.1340              3174.0228
 Red. masses --      1.0933                 1.0901                 1.0893
 Frc consts  --      6.1653                 6.2649                 6.4657
 IR Inten    --     25.5847                26.4205                 8.1911

                     49                     50                     51
                      A                      A                      A
 Frequencies --   3183.3013              3212.4059              3813.6003
 Red. masses --      1.0918                 1.0994                 1.0661
 Frc consts  --      6.5184                 6.6843                 9.1355
 IR Inten    --     30.6819                14.0133                16.2692

 - Thermochemistry -
 -------------------
 Temperature   298.150 Kelvin.  Pressure   1.00000 Atm.
 Atom     1 has atomic number  8 and mass  15.99491

 Molecular mass:   126.06808 amu.
 Principal axes and moments of inertia in atomic units:
                           1         2         3
     Eigenvalues --   505.368121364.940061545.75651
           X            0.99997  -0.00765   0.00129
           Y            0.00771   0.99856  -0.05307
           Z           -0.00088   0.05308   0.99859
 This molecule is an asymmetric top.
 Rotational symmetry number  1.
 Warning -- assumption of classical behavior for rotation
           may cause significant error
 Rotational temperatures (Kelvin)      0.17139     0.06346     0.05603
 Rotational constants (GHZ):           3.57114     1.32221     1.16755
 Zero-point vibrational energy     422289.1 (Joules/Mol)
                                  100.92951 (Kcal/Mol)
 Warning -- explicit consideration of   8 degrees of freedom as
           vibrations may cause significant error
 Vibrational temperatures:    137.52   208.84   295.99   417.26   467.51
          (Kelvin)            560.14   703.93   781.36   910.94  1037.95
                             1084.07  1148.50  1157.69  1238.20  1256.46
                             1295.38  1338.69  1405.32  1438.18  1458.89
                             1481.74  1498.30  1509.51  1546.23  1560.36
                             1586.89  1611.32  1688.99  1733.55  1772.69
                             1806.86  1826.96  1860.96  1869.86  1933.43
                             1965.84  1999.26  2022.88  2031.75  2146.20
                             2165.16  4289.53  4305.52  4380.45  4441.85
                             4451.26  4493.49  4566.71  4580.05  4621.93
                             5486.91

 Zero-point correction=                           0.160841 (Hartree/Particle)
 Thermal correction to Energy=                    0.168367
 Thermal correction to Enthalpy=                  0.169311
 Thermal correction to Gibbs Free Energy=         0.128786
 Sum of electronic and zero-point Energies=           -422.983751
 Sum of electronic and thermal Energies=              -422.976226
 Sum of electronic and thermal Enthalpies=            -422.975281
 Sum of electronic and thermal Free Energies=         -423.015806

                     E (Thermal)             CV                S
                      KCal/Mol        Cal/Mol-Kelvin    Cal/Mol-Kelvin
 Total                  105.652             29.967             85.292
 Electronic               0.000              0.000              0.000
 Translational            0.889              2.981             40.409
 Rotational               0.889              2.981             28.457
 Vibrational            103.874             24.006             16.426
 Vibration     1          0.603              1.952              3.542
 Vibration     2          0.617              1.908              2.735
 Vibration     3          0.640              1.832              2.081
 Vibration     4          0.686              1.692              1.474
 Vibration     5          0.709              1.626              1.285
 Vibration     6          0.757              1.493              1.003
 Vibration     7          0.845              1.274              0.686
 Vibration     8          0.898              1.155              0.559

 Optimization completed.
    -- Stationary point found.
 Normal termination of Gaussian 09 at Tue Jan 28 15:04:07 2020.
