 Gaussian 09, Revision D.01,
 Gaussian 09:  ES64L-G09RevD.01 24-Apr-2013

 -----------------------------
 # b3lyp 6-31G(2df,p) opt Freq
 -----------------------------

 -----
 titel
 -----
 Symbolic Z-matrix:
 Charge =  0 Multiplicity = 1

 SCF Done:  E(RB3LYP) =  -423.144093669     A.U. after   14 cycles
 SCF Done:  E(RB3LYP) =  -423.144093309     A.U. after    7 cycles
 SCF Done:  E(RB3LYP) =  -423.144093883     A.U. after    7 cycles
 Optimization completed.
    -- Stationary point found.
 Normal termination of Gaussian 09 at Tue Jan 28 09:24:59 2020.

 ----------------------------------------------------------------------
 #N Geom=AllCheck Guess=TCheck SCRF=Check GenChk RB3LYP/6-31G(2df,p) Fr
 eq
 ----------------------------------------------------------------------

 Structure from the checkpoint file:  "/scratch/puck/g09_70b6bbe9-8670-4bc2-809f-2825b0b8d4ab/Gau-130458.chk"
 -----
 titel
 -----
 Charge =  0 Multiplicity = 1

                         Standard orientation:
 ---------------------------------------------------------------------
 Center     Atomic      Atomic             Coordinates (Angstroms)
 Number     Number       Type             X           Y           Z
 ---------------------------------------------------------------------
      1          8           0       -2.485996   -0.284243    0.222350
      2          6           0       -1.453779   -1.179165   -0.163417
      3          6           0       -0.078333   -0.570835   -0.008276
      4          6           0        0.448731    0.035046    1.339848
      5          6           0        1.465645    0.741774    0.383623
      6          6           0        2.168524   -0.469378   -0.223313
      7          6           0        1.165903   -1.320355   -0.478667
      8          6           0        0.272289    0.849943   -0.645873
      9          8           0       -0.668350    1.888943   -0.490698
     10          1           0       -2.349001    0.526542   -0.283509
     11          1           0       -1.557408   -2.063321    0.476992
     12          1           0       -1.587271   -1.518672   -1.204793
     13          1           0       -0.268835    0.702552    1.829732
     14          1           0        0.858687   -0.664253    2.071884
     15          1           0        2.055062    1.609742    0.678587
     16          1           0        3.224548   -0.559415   -0.434689
     17          1           0        1.183412   -2.290479   -0.956230
     18          1           0        0.543702    0.841854   -1.703784
     19          1           0       -0.802015    2.055666    0.449052
 ---------------------------------------------------------------------

 SCF Done:  E(RB3LYP) =  -423.144093884     A.U. after    1 cycles

 The electronic state is 1-A.
 Alpha  occ. eigenvalues --  -19.15801 -19.12511 -10.24296 -10.22369 -10.20050
 Alpha  occ. eigenvalues --  -10.19905 -10.19070 -10.18589 -10.18438  -1.04111
 Alpha  occ. eigenvalues --   -1.00643  -0.89510  -0.72674  -0.71796  -0.66832
 Alpha  occ. eigenvalues --   -0.63591  -0.56911  -0.53161  -0.51766  -0.49856
 Alpha  occ. eigenvalues --   -0.47390  -0.46032  -0.43008  -0.40988  -0.39209
 Alpha  occ. eigenvalues --   -0.38220  -0.37736  -0.35515  -0.33427  -0.32538
 Alpha  occ. eigenvalues --   -0.31366  -0.26720  -0.25653  -0.23609
 Alpha virt. eigenvalues --    0.00750   0.06460   0.10116   0.11993   0.12087
 Alpha virt. eigenvalues --    0.12928   0.14016   0.15461   0.16209   0.17288
 Alpha virt. eigenvalues --    0.17924   0.18058   0.20305   0.20588   0.23393

 Mulliken charges:
               1
     1  O   -0.430410
     2  C   -0.195056
     3  C    0.253896
     4  C   -0.281244
     5  C   -0.127686
     6  C   -0.095737
     7  C   -0.138805
     8  C    0.136962
     9  O   -0.451253
    10  H    0.286910
    11  H    0.108831
    12  H    0.087070
    13  H    0.090668
    14  H    0.101151
    15  H    0.066515
    16  H    0.105791
    17  H    0.102861
    18  H    0.089442
    19  H    0.290095
 Sum of Mulliken charges =   0.00000

 Dipole moment (field-independent basis, Debye):
    X=              1.8096    Y=              0.0117    Z=              0.1756  Tot=              1.8182
 Quadrupole moment (field-independent basis, Debye-Ang):
   XX=            -57.5520   YY=            -51.9050   ZZ=            -52.9154
   XY=             -0.9200   XZ=              0.6705   YZ=              3.5119

  Exact polarizability:  83.365   0.581  77.016  -0.785   4.206  65.551
 Approx polarizability: 122.545   3.136 120.802  -0.154   5.926 102.472

                      1                      2                      3
                      A                      A                      A
 Frequencies --    117.9796               187.0612               221.1725
 Red. masses --      3.0617                 5.6762                 1.7065
 Frc consts  --      0.0251                 0.1170                 0.0492
 IR Inten    --      3.1398                 1.2204               101.8691

                      4                      5                      6
                      A                      A                      A
 Frequencies --    259.8133               315.1833               382.3737
 Red. masses --      1.6788                 2.8899                 3.4054
 Frc consts  --      0.0668                 0.1691                 0.2934
 IR Inten    --     46.6134                26.3843                36.4878

                      7                      8                      9
                      A                      A                      A
 Frequencies --    403.3791               466.4451               543.6249
 Red. masses --      4.3714                 2.1480                 2.8235
 Frc consts  --      0.4191                 0.2754                 0.4916
 IR Inten    --      0.0949                 7.2084                 1.6358

                     10                     11                     12
                      A                      A                      A
 Frequencies --    571.2330               581.9329               680.1631
 Red. masses --      3.0354                 1.1053                 3.3966
 Frc consts  --      0.5836                 0.2205                 0.9258
 IR Inten    --      1.0929                53.9118                 4.7795

                     13                     14                     15
                      A                      A                      A
 Frequencies --    695.9961               718.1560               825.2154
 Red. masses --      1.4936                 3.8635                 2.5621
 Frc consts  --      0.4263                 1.1740                 1.0280
 IR Inten    --     37.4293                 2.6692                 0.8231

                     16                     17                     18
                      A                      A                      A
 Frequencies --    851.0981               866.7715               908.6425
 Red. masses --      2.5080                 2.9647                 1.3517
 Frc consts  --      1.0704                 1.3123                 0.6575
 IR Inten    --      2.9185                20.4188                 1.1589

                     19                     20                     21
                      A                      A                      A
 Frequencies --    928.3860               948.3480               987.0900
 Red. masses --      2.0296                 2.1945                 2.1964
 Frc consts  --      1.0307                 1.1628                 1.2609
 IR Inten    --      0.0435                 9.8573                 0.5354

                     22                     23                     24
                      A                      A                      A
 Frequencies --   1042.1476              1053.3635              1078.5880
 Red. masses --      1.5201                 2.2534                 1.9159
 Frc consts  --      0.9727                 1.4731                 1.3132
 IR Inten    --      2.3170                56.6594                12.9069

                     25                     26                     27
                      A                      A                      A
 Frequencies --   1089.7751              1095.0452              1126.3999
 Red. masses --      2.1866                 2.2301                 1.9030
 Frc consts  --      1.5300                 1.5756                 1.4226
 IR Inten    --     11.3333                56.9976                95.1610

                     28                     29                     30
                      A                      A                      A
 Frequencies --   1164.5364              1205.1876              1212.1031
 Red. masses --      1.5235                 1.4037                 1.5237
 Frc consts  --      1.2173                 1.2013                 1.3190
 IR Inten    --     12.4264                40.9818                 2.7797

                     31                     32                     33
                      A                      A                      A
 Frequencies --   1239.3881              1258.8009              1262.1872
 Red. masses --      1.3435                 1.3398                 1.6379
 Frc consts  --      1.2159                 1.2509                 1.5374
 IR Inten    --     10.2867                 4.8148                 4.7592

                     34                     35                     36
                      A                      A                      A
 Frequencies --   1290.5158              1344.0460              1390.9276
 Red. masses --      2.1015                 1.9366                 1.4720
 Frc consts  --      2.0621                 2.0612                 1.6779
 IR Inten    --      2.2279                 9.0001                 0.4464

                     37                     38                     39
                      A                      A                      A
 Frequencies --   1418.7343              1451.9984              1503.0781
 Red. masses --      1.2054                 1.2445                 1.0863
 Frc consts  --      1.4295                 1.5459                 1.4460
 IR Inten    --     50.5107                83.3388                 0.0809

                     40                     41                     42
                      A                      A                      A
 Frequencies --   1511.9707              1614.3393              2959.1288
 Red. masses --      1.1210                 5.7533                 1.0707
 Frc consts  --      1.5099                 8.8341                 5.5240
 IR Inten    --      3.1984                 0.3744                62.8733

                     43                     44                     45
                      A                      A                      A
 Frequencies --   3044.4762              3051.6189              3096.3070
 Red. masses --      1.0602                 1.0909                 1.0877
 Frc consts  --      5.7899                 5.9853                 6.1441
 IR Inten    --     42.9641                34.9034                37.2767

                     46                     47                     48
                      A                      A                      A
 Frequencies --   3113.8331              3120.0381              3214.8299
 Red. masses --      1.1039                 1.0909                 1.0864
 Frc consts  --      6.3060                 6.2569                 6.6156
 IR Inten    --     28.3261                37.3952                 3.6020

                     49                     50                     51
                      A                      A                      A
 Frequencies --   3241.9511              3771.6737              3805.9223
 Red. masses --      1.1086                 1.0660                 1.0650
 Frc consts  --      6.8649                 8.9348                 9.0894
 IR Inten    --     10.5594                51.8068                19.6265

 - Thermochemistry -
 -------------------
 Temperature   298.150 Kelvin.  Pressure   1.00000 Atm.
 Atom     1 has atomic number  8 and mass  15.99491

 Molecular mass:   126.06808 amu.
 Principal axes and moments of inertia in atomic units:
                           1         2         3
     Eigenvalues --   677.082581115.460881430.79830
           X            0.99995   0.00957   0.00355
           Y           -0.00971   0.99913   0.04058
           Z           -0.00315  -0.04062   0.99917
 This molecule is an asymmetric top.
 Rotational symmetry number  1.
 Warning -- assumption of classical behavior for rotation
           may cause significant error
 Rotational temperatures (Kelvin)      0.12792     0.07765     0.06054
 Rotational constants (GHZ):           2.66547     1.61793     1.26135
 Zero-point vibrational energy     420086.5 (Joules/Mol)
                                  100.40308 (Kcal/Mol)
 Warning -- explicit consideration of  11 degrees of freedom as
           vibrations may cause significant error
 Vibrational temperatures:    169.75   269.14   318.22   373.81   453.48
          (Kelvin)            550.15   580.37   671.11   782.15   821.88
                              837.27   978.60  1001.38  1033.26  1187.30
                             1224.54  1247.09  1307.33  1335.74  1364.46
                             1420.20  1499.42  1515.55  1551.85  1567.94
                             1575.52  1620.64  1675.51  1733.99  1743.94
                             1783.20  1811.13  1816.00  1856.76  1933.78
                             2001.23  2041.24  2089.10  2162.59  2175.39
                             2322.67  4257.52  4380.32  4390.59  4454.89
                             4480.11  4489.03  4625.42  4664.44  5426.59
                             5475.87

 Zero-point correction=                           0.160002 (Hartree/Particle)
 Thermal correction to Energy=                    0.167975
 Thermal correction to Enthalpy=                  0.168919
 Thermal correction to Gibbs Free Energy=         0.127978
 Sum of electronic and zero-point Energies=           -422.984091
 Sum of electronic and thermal Energies=              -422.976119
 Sum of electronic and thermal Enthalpies=            -422.975175
 Sum of electronic and thermal Free Energies=         -423.016116

                     E (Thermal)             CV                S
                      KCal/Mol        Cal/Mol-Kelvin    Cal/Mol-Kelvin
 Total                  105.406             32.278             86.167
 Electronic               0.000              0.000              0.000
 Translational            0.889              2.981             40.409
 Rotational               0.889              2.981             28.471
 Vibrational            103.628             26.316             17.288
 Vibration     1          0.608              1.934              3.133
 Vibration     2          0.632              1.858              2.257
 Vibration     3          0.648              1.809              1.949
 Vibration     4          0.668              1.746              1.663
 Vibration     5          0.703              1.645              1.335
 Vibration     6          0.752              1.508              1.030
 Vibration     7          0.769              1.463              0.950
 Vibration     8          0.824              1.324              0.748
 Vibration     9          0.899              1.154              0.558
 Vibration    10          0.927              1.093              0.502
 Vibration    11          0.939              1.070              0.482

 Normal termination of Gaussian 09 at Tue Jan 28 10:08:10 2020.
