 Gaussian 09, Revision D.01,
 Gaussian 09:  ES64L-G09RevD.01 24-Apr-2013

 -----------------------------
 # b3lyp 6-31G(2df,p) opt Freq
 -----------------------------

 -----
 titel
 -----
 Symbolic Z-matrix:
 Charge =  0 Multiplicity = 1

 SCF Done:  E(RB3LYP) =  -423.178737881     A.U. after   14 cycles
 Optimization completed.
    -- Stationary point found.
 Normal termination of Gaussian 09 at Tue Jan 28 09:17:15 2020.

 ----------------------------------------------------------------------
 #N Geom=AllCheck Guess=TCheck SCRF=Check GenChk RB3LYP/6-31G(2df,p) Fr
 eq
 ----------------------------------------------------------------------

 Structure from the checkpoint file:  "/scratch/puck/g09_4160b072-bd51-42ac-92eb-1a77ef34c82c/Gau-17482.chk"
 -----
 titel
 -----
 Charge =  0 Multiplicity = 1

                         Standard orientation:
 ---------------------------------------------------------------------
 Center     Atomic      Atomic             Coordinates (Angstroms)
 Number     Number       Type             X           Y           Z
 ---------------------------------------------------------------------
      1          6           0       -2.728635   -0.154576    0.075769
      2          8           0       -1.606170    0.672241   -0.172076
      3          6           0       -0.379546    0.067068   -0.021652
      4          6           0        0.242007   -0.351076    1.372218
      5          6           0        1.604563   -0.214692    0.620915
      6          6           0        1.498176   -1.342835   -0.432265
      7          6           0        0.019003   -1.139638   -0.912142
      8          6           0        0.895411    0.932719   -0.121885
      9          8           0        1.152400    2.049499   -0.455247
     10          1           0       -2.706767   -0.574791    1.091313
     11          1           0       -3.612360    0.478713   -0.024875
     12          1           0       -2.801482   -0.980161   -0.644948
     13          1           0        0.088561    0.406828    2.142033
     14          1           0       -0.005599   -1.349320    1.741190
     15          1           0        2.547831   -0.073124    1.141555
     16          1           0        2.221913   -1.223456   -1.242214
     17          1           0        1.654078   -2.326336    0.019057
     18          1           0       -0.059712   -0.896907   -1.974934
     19          1           0       -0.602181   -2.017185   -0.715333
 ---------------------------------------------------------------------

 SCF Done:  E(RB3LYP) =  -423.178737881     A.U. after    1 cycles

 The electronic state is 1-A.
 Alpha  occ. eigenvalues --  -19.15356 -19.13480 -10.26466 -10.24754 -10.23277
 Alpha  occ. eigenvalues --  -10.20177 -10.20013 -10.19976 -10.19598  -1.05533
 Alpha  occ. eigenvalues --   -1.03973  -0.89330  -0.73734  -0.72268  -0.67481
 Alpha  occ. eigenvalues --   -0.63373  -0.56999  -0.53289  -0.50941  -0.47077
 Alpha  occ. eigenvalues --   -0.46327  -0.45865  -0.44771  -0.41856  -0.40762
 Alpha  occ. eigenvalues --   -0.38045  -0.37752  -0.37381  -0.35611  -0.34534
 Alpha  occ. eigenvalues --   -0.33583  -0.32013  -0.25931  -0.23038
 Alpha virt. eigenvalues --   -0.00374   0.07793   0.09432   0.11381   0.12567
 Alpha virt. eigenvalues --    0.13227   0.14888   0.15261   0.16146   0.16426
 Alpha virt. eigenvalues --    0.16884   0.18025   0.18136   0.19726   0.20601

 Mulliken charges:
               1
     1  C   -0.262381
     2  O   -0.294494
     3  C    0.325209
     4  C   -0.310324
     5  C   -0.147957
     6  C   -0.225410
     7  C   -0.285720
     8  C    0.397082
     9  O   -0.321810
    10  H    0.112289
    11  H    0.135908
    12  H    0.115010
    13  H    0.122548
    14  H    0.102943
    15  H    0.088917
    16  H    0.116798
    17  H    0.107748
    18  H    0.118163
    19  H    0.105480
 Sum of Mulliken charges =   0.00000

 Dipole moment (field-independent basis, Debye):
    X=             -0.8254    Y=             -3.7210    Z=              1.0256  Tot=              3.9470
 Quadrupole moment (field-independent basis, Debye-Ang):
   XX=            -49.8077   YY=            -59.4266   ZZ=            -51.8178
   XY=             -1.5329   XZ=              0.1965   YZ=              2.1749

  Exact polarizability:  83.632   0.699  74.383   0.193  -0.704  67.706
 Approx polarizability: 110.274   3.550 118.393  -0.593  -6.714 102.397

                      1                      2                      3
                      A                      A                      A
 Frequencies --     79.6791               151.8499               175.7114
 Red. masses --      2.5049                 3.7104                 2.0554
 Frc consts  --      0.0094                 0.0504                 0.0374
 IR Inten    --      1.9913                 1.0654                 0.6991

                      4                      5                      6
                      A                      A                      A
 Frequencies --    194.9544               249.6271               321.1431
 Red. masses --      1.6510                 1.9228                 3.8016
 Frc consts  --      0.0370                 0.0706                 0.2310
 IR Inten    --      0.8178                 0.7926                 2.5872

                      7                      8                      9
                      A                      A                      A
 Frequencies --    385.6985               426.3789               544.6600
 Red. masses --      3.8904                 2.1063                 3.5225
 Frc consts  --      0.3410                 0.2256                 0.6157
 IR Inten    --      6.2597                 0.9534                 1.5103

                     10                     11                     12
                      A                      A                      A
 Frequencies --    547.7139               687.7363               696.5915
 Red. masses --      5.1175                 6.0217                 4.0062
 Frc consts  --      0.9045                 1.6781                 1.1453
 IR Inten    --      0.8019                 7.1067                 0.5334

                     13                     14                     15
                      A                      A                      A
 Frequencies --    773.2980               801.4395               867.1313
 Red. masses --      2.6522                 2.9507                 1.5620
 Frc consts  --      0.9344                 1.1167                 0.6920
 IR Inten    --      8.8205                29.7098                 1.6795

                     16                     17                     18
                      A                      A                      A
 Frequencies --    882.7293               905.2727               958.6399
 Red. masses --      2.4053                 2.4265                 1.8090
 Frc consts  --      1.1042                 1.1716                 0.9795
 IR Inten    --      3.3984                 0.5956                 2.7637

                     19                     20                     21
                      A                      A                      A
 Frequencies --    973.5618              1011.2504              1027.4894
 Red. masses --      2.3466                 2.2328                 1.4602
 Frc consts  --      1.3105                 1.3453                 0.9083
 IR Inten    --      0.9617                 8.7189                 8.9185

                     22                     23                     24
                      A                      A                      A
 Frequencies --   1067.3956              1080.6722              1115.0041
 Red. masses --      5.1455                 2.1610                 1.4268
 Frc consts  --      3.4541                 1.4869                 1.0451
 IR Inten    --     62.2006                 8.0564                 2.0386

                     25                     26                     27
                      A                      A                      A
 Frequencies --   1141.7622              1179.8568              1181.8648
 Red. masses --      1.9420                 1.3197                 1.5870
 Frc consts  --      1.4916                 1.0824                 1.3060
 IR Inten    --     13.1692                 4.4836                16.6770

                     28                     29                     30
                      A                      A                      A
 Frequencies --   1215.8319              1218.5327              1243.4105
 Red. masses --      1.4959                 1.4642                 1.7747
 Frc consts  --      1.3028                 1.2809                 1.6166
 IR Inten    --      4.0550                 2.2292                 3.5117

                     31                     32                     33
                      A                      A                      A
 Frequencies --   1255.2397              1267.1356              1321.8001
 Red. masses --      1.2411                 2.0318                 1.5096
 Frc consts  --      1.1522                 1.9221                 1.5540
 IR Inten    --      5.1909                52.3504                 1.9739

                     34                     35                     36
                      A                      A                      A
 Frequencies --   1355.9725              1484.0773              1489.3610
 Red. masses --      2.7482                 1.1364                 1.1319
 Frc consts  --      2.9772                 1.4746                 1.4793
 IR Inten    --    131.8813                 2.8670                 2.4508

                     37                     38                     39
                      A                      A                      A
 Frequencies --   1491.0282              1494.0332              1505.7471
 Red. masses --      1.0625                 1.0827                 1.0548
 Frc consts  --      1.3917                 1.4239                 1.4091
 IR Inten    --      3.0140                 1.7647                10.2187

                     40                     41                     42
                      A                      A                      A
 Frequencies --   1517.5180              1908.4679              2994.3066
 Red. masses --      1.1237                12.4894                 1.0359
 Frc consts  --      1.5247                26.8016                 5.4720
 IR Inten    --      1.6267               298.9086                42.3209

                     43                     44                     45
                      A                      A                      A
 Frequencies --   3047.6885              3055.9692              3065.1878
 Red. masses --      1.0977                 1.0623                 1.0604
 Frc consts  --      6.0073                 5.8450                 5.8698
 IR Inten    --     27.9224                37.8685                44.7659

                     46                     47                     48
                      A                      A                      A
 Frequencies --   3067.5063              3097.4626              3115.6370
 Red. masses --      1.0571                 1.1074                 1.1065
 Frc consts  --      5.8606                 6.2596                 6.3286
 IR Inten    --     18.1022                 0.2438                32.1005

                     49                     50                     51
                      A                      A                      A
 Frequencies --   3125.3774              3139.5741              3159.0415
 Red. masses --      1.0980                 1.1101                 1.0913
 Frc consts  --      6.3191                 6.4467                 6.4168
 IR Inten    --     24.5971                14.1624                18.4048

 - Thermochemistry -
 -------------------
 Temperature   298.150 Kelvin.  Pressure   1.00000 Atm.
 Atom     1 has atomic number  6 and mass  12.00000

 Molecular mass:   126.06808 amu.
 Principal axes and moments of inertia in atomic units:
                           1         2         3
     Eigenvalues --   711.806541159.806421443.27246
           X            0.99978  -0.02082  -0.00140
           Y            0.02086   0.99907   0.03771
           Z            0.00061  -0.03773   0.99929
 This molecule is an asymmetric top.
 Rotational symmetry number  1.
 Warning -- assumption of classical behavior for rotation
           may cause significant error
 Rotational temperatures (Kelvin)      0.12168     0.07468     0.06001
 Rotational constants (GHZ):           2.53544     1.55607     1.25045
 Zero-point vibrational energy     419081.9 (Joules/Mol)
                                  100.16297 (Kcal/Mol)
 Warning -- explicit consideration of  10 degrees of freedom as
           vibrations may cause significant error
 Vibrational temperatures:    114.64   218.48   252.81   280.50   359.16
          (Kelvin)            462.05   554.93   613.46   783.64   788.04
                              989.50  1002.24  1112.60  1153.09  1247.61
                             1270.05  1302.48  1379.27  1400.74  1454.96
                             1478.33  1535.74  1554.84  1604.24  1642.74
                             1697.55  1700.44  1749.31  1753.19  1788.99
                             1806.01  1823.12  1901.77  1950.94  2135.25
                             2142.86  2145.25  2149.58  2166.43  2183.37
                             2745.86  4308.13  4384.94  4396.85  4410.12
                             4413.45  4456.55  4482.70  4496.72  4517.14
                             4545.15

 Zero-point correction=                           0.159620 (Hartree/Particle)
 Thermal correction to Energy=                    0.167887
 Thermal correction to Enthalpy=                  0.168831
 Thermal correction to Gibbs Free Energy=         0.126714
 Sum of electronic and zero-point Energies=           -423.019118
 Sum of electronic and thermal Energies=              -423.010851
 Sum of electronic and thermal Enthalpies=            -423.009907
 Sum of electronic and thermal Free Energies=         -423.052024

                     E (Thermal)             CV                S
                      KCal/Mol        Cal/Mol-Kelvin    Cal/Mol-Kelvin
 Total                  105.351             31.482             88.643
 Electronic               0.000              0.000              0.000
 Translational            0.889              2.981             40.409
 Rotational               0.889              2.981             28.568
 Vibrational            103.573             25.521             19.666
 Vibration     1          0.600              1.963              3.899
 Vibration     2          0.619              1.901              2.649
 Vibration     3          0.628              1.872              2.374
 Vibration     4          0.636              1.847              2.180
 Vibration     5          0.662              1.763              1.733
 Vibration     6          0.707              1.633              1.304
 Vibration     7          0.754              1.501              1.017
 Vibration     8          0.788              1.413              0.871
 Vibration     9          0.900              1.151              0.555
 Vibration    10          0.903              1.145              0.549

 Normal termination of Gaussian 09 at Tue Jan 28 10:04:24 2020.
