 Gaussian 09, Revision D.01,
 Gaussian 09:  ES64L-G09RevD.01 24-Apr-2013

 -----------------------------
 # b3lyp 6-31G(2df,p) opt Freq
 -----------------------------

 -----
 titel
 -----
 Symbolic Z-matrix:
 Charge =  0 Multiplicity = 1

 SCF Done:  E(RB3LYP) =  -423.172458048     A.U. after   14 cycles
 Optimization completed.
    -- Stationary point found.
 Normal termination of Gaussian 09 at Tue Jan 28 12:40:09 2020.

 ----------------------------------------------------------------------
 #N Geom=AllCheck Guess=TCheck SCRF=Check GenChk RB3LYP/6-31G(2df,p) Fr
 eq
 ----------------------------------------------------------------------

 Structure from the checkpoint file:  "/scratch/puck/g09_9d738241-28ae-4a24-b5c6-9a7552b9baf2/Gau-29123.chk"
 -----
 titel
 -----
 Charge =  0 Multiplicity = 1

                         Standard orientation:
 ---------------------------------------------------------------------
 Center     Atomic      Atomic             Coordinates (Angstroms)
 Number     Number       Type             X           Y           Z
 ---------------------------------------------------------------------
      1          8           0       -2.858559   -0.544345   -0.776176
      2          6           0       -2.373063    0.415088    0.160835
      3          6           0       -0.888220    0.316449    0.350489
      4          6           0        0.006038    1.287886    0.139895
      5          6           0        1.415394    0.827101    0.382297
      6          8           0        2.155714    0.541834   -0.837727
      7          6           0        1.954848   -0.877830   -0.664779
      8          6           0        1.267555   -0.683445    0.705647
      9          6           0       -0.238605   -0.980014    0.801859
     10          1           0       -2.426767   -0.362530   -1.617808
     11          1           0       -2.652495    1.438923   -0.127882
     12          1           0       -2.894219    0.184420    1.098049
     13          1           0       -0.234454    2.293365   -0.189619
     14          1           0        1.999536    1.477340    1.043146
     15          1           0        1.311550   -1.304770   -1.446646
     16          1           0        2.907577   -1.420045   -0.655081
     17          1           0        1.844127   -1.061443    1.549691
     18          1           0       -0.550571   -1.822990    0.174335
     19          1           0       -0.545200   -1.233599    1.825594
 ---------------------------------------------------------------------

 SCF Done:  E(RB3LYP) =  -423.172458048     A.U. after    1 cycles

 The electronic state is 1-A.
 Alpha  occ. eigenvalues --  -19.14010 -19.12545 -10.23410 -10.23163 -10.22679
 Alpha  occ. eigenvalues --  -10.19382 -10.19150 -10.18848 -10.18167  -1.03011
 Alpha  occ. eigenvalues --   -1.01926  -0.83824  -0.74394  -0.71546  -0.66720
 Alpha  occ. eigenvalues --   -0.64762  -0.55100  -0.52805  -0.51990  -0.49159
 Alpha  occ. eigenvalues --   -0.47429  -0.44633  -0.43621  -0.42455  -0.40446
 Alpha  occ. eigenvalues --   -0.39999  -0.37059  -0.34699  -0.33345  -0.31731
 Alpha  occ. eigenvalues --   -0.29885  -0.27564  -0.25563  -0.24102
 Alpha virt. eigenvalues --    0.00198   0.08220   0.09317   0.09815   0.11333
 Alpha virt. eigenvalues --    0.12770   0.13717   0.14420   0.16152   0.17488
 Alpha virt. eigenvalues --    0.17855   0.18246   0.19408   0.20981   0.22362

 Mulliken charges:
               1
     1  O   -0.412238
     2  C   -0.164248
     3  C    0.291889
     4  C   -0.202270
     5  C    0.096893
     6  O   -0.295201
     7  C   -0.080070
     8  C   -0.079509
     9  C   -0.321619
    10  H    0.284473
    11  H    0.095162
    12  H    0.115000
    13  H    0.095451
    14  H    0.076227
    15  H    0.093300
    16  H    0.102564
    17  H    0.079815
    18  H    0.117728
    19  H    0.106653
 Sum of Mulliken charges =   0.00000

 Dipole moment (field-independent basis, Debye):
    X=             -0.0954    Y=             -0.0992    Z=              0.9085  Tot=              0.9189
 Quadrupole moment (field-independent basis, Debye-Ang):
   XX=            -60.3948   YY=            -51.8961   ZZ=            -51.0041
   XY=             -5.6581   XZ=              2.8986   YZ=              0.8302

  Exact polarizability:  89.996   1.785  76.192  -1.459  -0.072  63.918
 Approx polarizability: 121.747  13.899 119.943  -4.502  -2.093  98.042

                      1                      2                      3
                      A                      A                      A
 Frequencies --     67.0920                89.9900               149.6211
 Red. masses --      4.1315                 2.5431                 3.6370
 Frc consts  --      0.0110                 0.0121                 0.0480
 IR Inten    --      3.3766                 1.9498                 0.3527

                      4                      5                      6
                      A                      A                      A
 Frequencies --    233.8794               304.0085               361.2971
 Red. masses --      3.6765                 1.8020                 1.7431
 Frc consts  --      0.1185                 0.0981                 0.1341
 IR Inten    --     10.0902                30.6025                20.0656

                      7                      8                      9
                      A                      A                      A
 Frequencies --    394.9454               430.3218               532.8362
 Red. masses --      1.5766                 4.2920                 2.3766
 Frc consts  --      0.1449                 0.4683                 0.3976
 IR Inten    --     75.0563                 5.9306                10.2513

                     10                     11                     12
                      A                      A                      A
 Frequencies --    642.8592               679.9001               802.0763
 Red. masses --      3.7579                 5.4383                 2.3186
 Frc consts  --      0.9150                 1.4812                 0.8788
 IR Inten    --      4.1349                 6.7230                 0.5235

                     13                     14                     15
                      A                      A                      A
 Frequencies --    855.9244               861.1985               871.0530
 Red. masses --      2.1948                 2.8720                 2.0712
 Frc consts  --      0.9474                 1.2550                 0.9259
 IR Inten    --      5.7083                 2.3777                10.5474

                     16                     17                     18
                      A                      A                      A
 Frequencies --    897.3479               936.5197               965.7262
 Red. masses --      2.0142                 1.9516                 1.6742
 Frc consts  --      0.9556                 1.0085                 0.9199
 IR Inten    --      6.0097                10.9809                28.2548

                     19                     20                     21
                      A                      A                      A
 Frequencies --    974.5152              1010.5729              1022.6246
 Red. masses --      3.3692                 8.1098                 1.9591
 Frc consts  --      1.8852                 4.8797                 1.2071
 IR Inten    --     26.6348                72.6019                26.6589

                     22                     23                     24
                      A                      A                      A
 Frequencies --   1053.3523              1075.3752              1084.3573
 Red. masses --      3.7783                 2.0379                 1.7042
 Frc consts  --      2.4700                 1.3885                 1.1806
 IR Inten    --     55.5311                 1.0433                 2.5033

                     25                     26                     27
                      A                      A                      A
 Frequencies --   1155.0084              1158.6912              1183.7630
 Red. masses --      2.2583                 1.1430                 1.1480
 Frc consts  --      1.7750                 0.9041                 0.9478
 IR Inten    --     25.1296                 2.6238                10.0642

                     28                     29                     30
                      A                      A                      A
 Frequencies --   1202.9602              1238.2656              1269.3295
 Red. masses --      1.1927                 1.8532                 1.4361
 Frc consts  --      1.0169                 1.6742                 1.3633
 IR Inten    --      2.7513                 2.6381                 1.2973

                     31                     32                     33
                      A                      A                      A
 Frequencies --   1286.6793              1319.2171              1332.8923
 Red. masses --      1.3479                 1.8030                 1.4568
 Frc consts  --      1.3148                 1.8487                 1.5248
 IR Inten    --      1.6877                 1.5269                19.2387

                     34                     35                     36
                      A                      A                      A
 Frequencies --   1343.4575              1362.6021              1382.7844
 Red. masses --      1.7510                 1.4253                 1.4422
 Frc consts  --      1.8620                 1.5592                 1.6247
 IR Inten    --      3.2444                 3.3171                 1.8292

                     37                     38                     39
                      A                      A                      A
 Frequencies --   1415.8754              1486.0067              1497.5267
 Red. masses --      1.2322                 1.0908                 1.0892
 Frc consts  --      1.4554                 1.4192                 1.4391
 IR Inten    --     60.6240                 2.7585                 0.9957

                     40                     41                     42
                      A                      A                      A
 Frequencies --   1519.5759              1704.3154              2996.3730
 Red. masses --      1.0990                 7.3798                 1.0644
 Frc consts  --      1.4952                12.6297                 5.6304
 IR Inten    --      0.8018                 2.8654                56.5805

                     43                     44                     45
                      A                      A                      A
 Frequencies --   3002.1651              3017.9319              3042.3771
 Red. masses --      1.0593                 1.0662                 1.0864
 Frc consts  --      5.6251                 5.7217                 5.9245
 IR Inten    --     68.5044                30.2792                48.3821

                     46                     47                     48
                      A                      A                      A
 Frequencies --   3052.2144              3053.9413              3058.8172
 Red. masses --      1.1050                 1.0976                 1.0956
 Frc consts  --      6.0651                 6.0316                 6.0396
 IR Inten    --     44.9651                28.1472                14.9532

                     49                     50                     51
                      A                      A                      A
 Frequencies --   3111.7405              3187.9781              3807.6522
 Red. masses --      1.0887                 1.0936                 1.0663
 Frc consts  --      6.2112                 6.5487                 9.1081
 IR Inten    --     38.2110                11.3417                15.6316

 - Thermochemistry -
 -------------------
 Temperature   298.150 Kelvin.  Pressure   1.00000 Atm.
 Atom     1 has atomic number  8 and mass  15.99491

 Molecular mass:   126.06808 amu.
 Principal axes and moments of inertia in atomic units:
                           1         2         3
     Eigenvalues --   512.420421674.387171780.02757
           X            0.99976  -0.02182   0.00309
           Y            0.02179   0.99972   0.00896
           Z           -0.00328  -0.00889   0.99996
 This molecule is an asymmetric top.
 Rotational symmetry number  1.
 Warning -- assumption of classical behavior for rotation
           may cause significant error
 Rotational temperatures (Kelvin)      0.16903     0.05173     0.04866
 Rotational constants (GHZ):           3.52199     1.07785     1.01388
 Zero-point vibrational energy     421609.1 (Joules/Mol)
                                  100.76699 (Kcal/Mol)
 Warning -- explicit consideration of   9 degrees of freedom as
           vibrations may cause significant error
 Vibrational temperatures:     96.53   129.48   215.27   336.50   437.40
          (Kelvin)            519.83   568.24   619.14   766.63   924.93
                              978.22  1154.01  1231.48  1239.07  1253.25
                             1291.08  1347.44  1389.46  1402.11  1453.99
                             1471.33  1515.54  1547.22  1560.15  1661.80
                             1667.10  1703.17  1730.79  1781.59  1826.28
                             1851.24  1898.06  1917.73  1932.93  1960.48
                             1989.52  2037.13  2138.03  2154.60  2186.33
                             2452.13  4311.11  4319.44  4342.13  4377.30
                             4391.45  4393.93  4400.95  4477.10  4586.78
                             5478.36

 Zero-point correction=                           0.160582 (Hartree/Particle)
 Thermal correction to Energy=                    0.168726
 Thermal correction to Enthalpy=                  0.169670
 Thermal correction to Gibbs Free Energy=         0.127246
 Sum of electronic and zero-point Energies=           -423.011876
 Sum of electronic and thermal Energies=              -423.003732
 Sum of electronic and thermal Enthalpies=            -423.002788
 Sum of electronic and thermal Free Energies=         -423.045212

                     E (Thermal)             CV                S
                      KCal/Mol        Cal/Mol-Kelvin    Cal/Mol-Kelvin
 Total                  105.877             30.774             89.288
 Electronic               0.000              0.000              0.000
 Translational            0.889              2.981             40.409
 Rotational               0.889              2.981             28.814
 Vibrational            104.100             24.812             20.065
 Vibration     1          0.598              1.970              4.237
 Vibration     2          0.602              1.956              3.660
 Vibration     3          0.618              1.903              2.677
 Vibration     4          0.654              1.789              1.849
 Vibration     5          0.695              1.666              1.395
 Vibration     6          0.735              1.552              1.117
 Vibration     7          0.762              1.481              0.981
 Vibration     8          0.792              1.404              0.858
 Vibration     9          0.888              1.177              0.581

 Normal termination of Gaussian 09 at Tue Jan 28 13:23:29 2020.
