 Gaussian 09, Revision D.01,
 Gaussian 09:  ES64L-G09RevD.01 24-Apr-2013

 -----------------------------
 # b3lyp 6-31G(2df,p) opt Freq
 -----------------------------

 -----
 titel
 -----
 Symbolic Z-matrix:
 Charge =  0 Multiplicity = 1

 SCF Done:  E(RB3LYP) =  -423.129987320     A.U. after   13 cycles
 Optimization completed.
    -- Stationary point found.
 Normal termination of Gaussian 09 at Mon Jan 27 23:03:05 2020.

 ----------------------------------------------------------------------
 #N Geom=AllCheck Guess=TCheck SCRF=Check GenChk RB3LYP/6-31G(2df,p) Fr
 eq
 ----------------------------------------------------------------------

 Structure from the checkpoint file:  "/scratch/puck/g09_7c421f11-f3f4-464d-a958-144425e511a6/Gau-195627.chk"
 -----
 titel
 -----
 Charge =  0 Multiplicity = 1

                         Standard orientation:
 ---------------------------------------------------------------------
 Center     Atomic      Atomic             Coordinates (Angstroms)
 Number     Number       Type             X           Y           Z
 ---------------------------------------------------------------------
      1          6           0        2.675504    0.704019   -0.150334
      2          6           0        1.198978    0.495820   -0.445137
      3          6           0        0.700070   -0.986834   -0.482269
      4          8           0        0.659431   -0.967916    0.968057
      5          6           0        0.246389    0.411060    0.794117
      6          6           0       -1.144712    0.271611    0.095766
      7          6           0       -2.084434    1.425473   -0.069103
      8          8           0       -1.688969   -1.047150    0.231028
      9          6           0       -0.796710   -0.786745   -0.855880
     10          1           0        2.875676    1.745419    0.123830
     11          1           0        3.000120    0.062138    0.672179
     12          1           0        3.285311    0.472974   -1.030451
     13          1           0        0.856294    1.133748   -1.268521
     14          1           0        1.267320   -1.813392   -0.909934
     15          1           0        0.346826    1.032087    1.684923
     16          1           0       -2.535065    1.700136    0.891241
     17          1           0       -1.557777    2.306025   -0.453199
     18          1           0       -2.891099    1.172542   -0.761786
     19          1           0       -1.181809   -0.897576   -1.863922
 ---------------------------------------------------------------------

 SCF Done:  E(RB3LYP) =  -423.129987320     A.U. after    1 cycles

 The electronic state is 1-A.
 Alpha  occ. eigenvalues --  -19.14611 -19.13774 -10.24192 -10.24059 -10.23765
 Alpha  occ. eigenvalues --  -10.23071 -10.20261 -10.18969 -10.17967  -1.08970
 Alpha  occ. eigenvalues --   -1.03118  -0.79025  -0.75223  -0.71770  -0.68582
 Alpha  occ. eigenvalues --   -0.61709  -0.56682  -0.54868  -0.51284  -0.49701
 Alpha  occ. eigenvalues --   -0.45409  -0.45011  -0.42322  -0.41666  -0.39926
 Alpha  occ. eigenvalues --   -0.38792  -0.37993  -0.36710  -0.36129  -0.32945
 Alpha  occ. eigenvalues --   -0.31306  -0.28753  -0.26313  -0.24062
 Alpha virt. eigenvalues --    0.07456   0.08850   0.09658   0.10892   0.12205
 Alpha virt. eigenvalues --    0.13145   0.14403   0.14763   0.15649   0.15997
 Alpha virt. eigenvalues --    0.16788   0.17889   0.18070   0.20557   0.21865

 Mulliken charges:
               1
     1  C   -0.429370
     2  C    0.021640
     3  C    0.007769
     4  O   -0.264230
     5  C   -0.031568
     6  C    0.423425
     7  C   -0.499132
     8  O   -0.274309
     9  C   -0.049461
    10  H    0.116136
    11  H    0.138614
    12  H    0.116440
    13  H    0.069249
    14  H    0.084041
    15  H    0.079676
    16  H    0.132546
    17  H    0.123553
    18  H    0.134998
    19  H    0.099982
 Sum of Mulliken charges =   0.00000

 Dipole moment (field-independent basis, Debye):
    X=              0.8345    Y=              2.3947    Z=             -1.9994  Tot=              3.2293
 Quadrupole moment (field-independent basis, Debye-Ang):
   XX=            -54.0636   YY=            -53.7202   ZZ=            -52.0739
   XY=             -2.8374   XZ=              0.1208   YZ=              4.2039

  Exact polarizability:  84.041  -1.567  71.868  -0.823   5.254  66.502
 Approx polarizability: 109.006   0.043 111.747  -3.538   5.662 107.962

                      1                      2                      3
                      A                      A                      A
 Frequencies --    173.8102               181.9135               224.5955
 Red. masses --      2.5209                 1.0931                 1.2333
 Frc consts  --      0.0449                 0.0213                 0.0367
 IR Inten    --      0.7212                 0.1535                 0.1570

                      4                      5                      6
                      A                      A                      A
 Frequencies --    244.5552               255.5378               316.6739
 Red. masses --      2.7800                 1.9338                 2.8862
 Frc consts  --      0.0980                 0.0744                 0.1705
 IR Inten    --      1.0045                 0.3726                 0.5333

                      7                      8                      9
                      A                      A                      A
 Frequencies --    434.6771               484.5887               503.5404
 Red. masses --      3.8114                 4.5093                 5.5031
 Frc consts  --      0.4243                 0.6239                 0.8221
 IR Inten    --      0.3502                 1.3236                 3.9660

                     10                     11                     12
                      A                      A                      A
 Frequencies --    577.3645               706.4130               747.8341
 Red. masses --      4.5092                 4.5514                 3.8421
 Frc consts  --      0.8856                 1.3382                 1.2660
 IR Inten    --      9.3402                15.1194                 3.3216

                     13                     14                     15
                      A                      A                      A
 Frequencies --    814.6265               842.3695               852.6164
 Red. masses --      2.1958                 2.9746                 2.8559
 Frc consts  --      0.8585                 1.2436                 1.2232
 IR Inten    --     11.1010                 5.1882                 4.3313

                     16                     17                     18
                      A                      A                      A
 Frequencies --    871.8891               885.5279               905.6471
 Red. masses --      2.5009                 2.9216                 2.6942
 Frc consts  --      1.1201                 1.3498                 1.3020
 IR Inten    --      9.5680                28.3511                15.5548

                     19                     20                     21
                      A                      A                      A
 Frequencies --    948.9711               982.4474              1032.3811
 Red. masses --      4.9852                 1.6995                 1.9460
 Frc consts  --      2.6451                 0.9665                 1.2220
 IR Inten    --     24.3535                11.2912                 3.9652

                     22                     23                     24
                      A                      A                      A
 Frequencies --   1051.7292              1062.6764              1079.5344
 Red. masses --      2.0467                 1.7136                 2.3502
 Frc consts  --      1.3339                 1.1402                 1.6137
 IR Inten    --      0.9955                 0.5612                 7.1909

                     25                     26                     27
                      A                      A                      A
 Frequencies --   1102.2988              1140.6464              1165.2655
 Red. masses --      1.6140                 2.6496                 1.4610
 Frc consts  --      1.1554                 2.0311                 1.1688
 IR Inten    --      3.0183                11.5364                 2.7621

                     28                     29                     30
                      A                      A                      A
 Frequencies --   1198.3619              1226.9942              1237.0484
 Red. masses --      1.6385                 1.4348                 1.6895
 Frc consts  --      1.3863                 1.2727                 1.5233
 IR Inten    --      5.7949                 5.6229                 1.3099

                     31                     32                     33
                      A                      A                      A
 Frequencies --   1258.2129              1278.9139              1305.1568
 Red. masses --      1.6309                 1.5802                 1.5525
 Frc consts  --      1.5212                 1.5228                 1.5581
 IR Inten    --      3.0217                 8.2210                 3.9654

                     34                     35                     36
                      A                      A                      A
 Frequencies --   1378.8136              1405.2687              1410.0881
 Red. masses --      1.5292                 1.2730                 1.2946
 Frc consts  --      1.7129                 1.4811                 1.5167
 IR Inten    --      4.5764                 4.8152                 1.0861

                     37                     38                     39
                      A                      A                      A
 Frequencies --   1457.2983              1486.5714              1494.1012
 Red. masses --      2.6297                 1.1910                 1.0463
 Frc consts  --      3.2905                 1.5507                 1.3762
 IR Inten    --     10.5288                 6.9507                 4.5588

                     40                     41                     42
                      A                      A                      A
 Frequencies --   1496.5851              1503.9445              3032.0531
 Red. masses --      1.1472                 1.0484                 1.0449
 Frc consts  --      1.5138                 1.3972                 5.6597
 IR Inten    --      3.1535                 3.3380                10.0700

                     43                     44                     45
                      A                      A                      A
 Frequencies --   3033.0703              3039.5187              3092.3425
 Red. masses --      1.0442                 1.0672                 1.1002
 Frc consts  --      5.6597                 5.8088                 6.1985
 IR Inten    --     38.7690                35.5374                17.7060

                     46                     47                     48
                      A                      A                      A
 Frequencies --   3093.8717              3117.3889              3119.9690
 Red. masses --      1.1009                 1.0903                 1.1003
 Frc consts  --      6.2085                 6.2428                 6.3105
 IR Inten    --     19.1530                38.2086                20.8201

                     49                     50                     51
                      A                      A                      A
 Frequencies --   3124.2905              3126.1636              3174.9871
 Red. masses --      1.0920                 1.0998                 1.0930
 Frc consts  --      6.2801                 6.3329                 6.4916
 IR Inten    --     24.6360                17.2202                15.7526

 - Thermochemistry -
 -------------------
 Temperature   298.150 Kelvin.  Pressure   1.00000 Atm.
 Atom     1 has atomic number  6 and mass  12.00000

 Molecular mass:   126.06808 amu.
 Principal axes and moments of inertia in atomic units:
                           1         2         3
     Eigenvalues --   558.900751203.100601408.04500
           X            0.99973  -0.02337  -0.00042
           Y            0.02336   0.99855   0.04854
           Z           -0.00072  -0.04853   0.99882
 This molecule is an asymmetric top.
 Rotational symmetry number  1.
 Warning -- assumption of classical behavior for rotation
           may cause significant error
 Rotational temperatures (Kelvin)      0.15497     0.07199     0.06151
 Rotational constants (GHZ):           3.22909     1.50008     1.28174
 Zero-point vibrational energy     416785.8 (Joules/Mol)
                                   99.61420 (Kcal/Mol)
 Warning -- explicit consideration of  10 degrees of freedom as
           vibrations may cause significant error
 Vibrational temperatures:    250.07   261.73   323.14   351.86   367.66
          (Kelvin)            455.62   625.40   697.21   724.48   830.70
                             1016.37  1075.97  1172.06  1211.98  1226.72
                             1254.45  1274.08  1303.02  1365.36  1413.52
                             1485.36  1513.20  1528.95  1553.21  1585.96
                             1641.13  1676.55  1724.17  1765.37  1779.83
                             1810.29  1840.07  1877.83  1983.80  2021.87
                             2028.80  2096.72  2138.84  2149.68  2153.25
                             2163.84  4362.44  4363.91  4373.18  4449.19
                             4451.39  4485.22  4488.93  4495.15  4497.85
                             4568.09

 Zero-point correction=                           0.158745 (Hartree/Particle)
 Thermal correction to Energy=                    0.166553
 Thermal correction to Enthalpy=                  0.167498
 Thermal correction to Gibbs Free Energy=         0.126935
 Sum of electronic and zero-point Energies=           -422.971242
 Sum of electronic and thermal Energies=              -422.963434
 Sum of electronic and thermal Enthalpies=            -422.962490
 Sum of electronic and thermal Free Energies=         -423.003052

                     E (Thermal)             CV                S
                      KCal/Mol        Cal/Mol-Kelvin    Cal/Mol-Kelvin
 Total                  104.514             31.189             85.371
 Electronic               0.000              0.000              0.000
 Translational            0.889              2.981             40.409
 Rotational               0.889              2.981             28.339
 Vibrational            102.736             25.227             16.623
 Vibration     1          0.627              1.875              2.394
 Vibration     2          0.630              1.864              2.309
 Vibration     3          0.649              1.804              1.922
 Vibration     4          0.660              1.772              1.769
 Vibration     5          0.666              1.753              1.692
 Vibration     6          0.704              1.642              1.327
 Vibration     7          0.795              1.395              0.844
 Vibration     8          0.841              1.284              0.698
 Vibration     9          0.859              1.242              0.649
 Vibration    10          0.934              1.080              0.490

 Optimization completed.
    -- Stationary point found.
 Normal termination of Gaussian 09 at Mon Jan 27 23:45:28 2020.
