 Gaussian 09, Revision D.01,
 Gaussian 09:  ES64L-G09RevD.01 24-Apr-2013

 -----------------------------
 # b3lyp 6-31G(2df,p) opt Freq
 -----------------------------

 -----
 titel
 -----
 Symbolic Z-matrix:
 Charge =  0 Multiplicity = 1

 SCF Done:  E(RB3LYP) =  -423.174776209     A.U. after   15 cycles
 Optimization completed.
    -- Stationary point found.
 Normal termination of Gaussian 09 at Tue Jan 28 08:18:45 2020.

 ----------------------------------------------------------------------
 #N Geom=AllCheck Guess=TCheck SCRF=Check GenChk RB3LYP/6-31G(2df,p) Fr
 eq
 ----------------------------------------------------------------------

 Structure from the checkpoint file:  "/scratch/puck/g09_742dc3e9-77a3-43ad-bda7-6d9f7c486837/Gau-79819.chk"
 -----
 titel
 -----
 Charge =  0 Multiplicity = 1

                         Standard orientation:
 ---------------------------------------------------------------------
 Center     Atomic      Atomic             Coordinates (Angstroms)
 Number     Number       Type             X           Y           Z
 ---------------------------------------------------------------------
      1          6           0        3.605048   -0.889163   -0.034782
      2          6           0        3.046240    0.531149    0.164837
      3          6           0        1.595590    0.608161    0.063102
      4          6           0        0.390768    0.676992   -0.014424
      5          6           0       -1.052326    0.791654   -0.128117
      6          8           0       -1.619358    1.861467   -0.076336
      7          6           0       -1.810219   -0.526755   -0.372142
      8          6           0       -3.126449   -0.553256    0.394657
      9          8           0       -1.060459   -1.669894   -0.013866
     10          1           0        3.200950   -1.575441    0.714002
     11          1           0        3.347163   -1.273745   -1.025217
     12          1           0        4.694512   -0.881590    0.057032
     13          1           0        3.344533    0.916306    1.148432
     14          1           0        3.487586    1.216230   -0.570249
     15          1           0       -2.029072   -0.527085   -1.456629
     16          1           0       -3.705757    0.343486    0.169363
     17          1           0       -3.701576   -1.439512    0.116627
     18          1           0       -2.931328   -0.588990    1.470221
     19          1           0       -0.160392   -1.554936   -0.340755
 ---------------------------------------------------------------------

 SCF Done:  E(RB3LYP) =  -423.174776209     A.U. after    1 cycles

 The electronic state is 1-A.
 Alpha  occ. eigenvalues --  -19.13866 -19.13764 -10.28590 -10.24150 -10.22995
 Alpha  occ. eigenvalues --  -10.21397 -10.20092 -10.19416 -10.17412  -1.04954
 Alpha  occ. eigenvalues --   -1.02261  -0.82142  -0.76676  -0.75281  -0.68040
 Alpha  occ. eigenvalues --   -0.64841  -0.59194  -0.53354  -0.49773  -0.48468
 Alpha  occ. eigenvalues --   -0.47657  -0.45128  -0.41829  -0.40894  -0.39137
 Alpha  occ. eigenvalues --   -0.38946  -0.38265  -0.38051  -0.37462  -0.34685
 Alpha  occ. eigenvalues --   -0.29432  -0.28488  -0.28202  -0.24805
 Alpha virt. eigenvalues --   -0.05588   0.02643   0.07502   0.08968   0.11246
 Alpha virt. eigenvalues --    0.12740   0.13767   0.14096   0.14989   0.15676
 Alpha virt. eigenvalues --    0.17046   0.18334   0.19052   0.19321   0.20277

 Mulliken charges:
               1
     1  C   -0.374351
     2  C   -0.324143
     3  C    0.145439
     4  C   -0.025230
     5  C    0.183939
     6  O   -0.291979
     7  C    0.039446
     8  C   -0.384080
     9  O   -0.432032
    10  H    0.137462
    11  H    0.132052
    12  H    0.126678
    13  H    0.149909
    14  H    0.147524
    15  H    0.097966
    16  H    0.140381
    17  H    0.123148
    18  H    0.128051
    19  H    0.279819
 Sum of Mulliken charges =   0.00000

 Dipole moment (field-independent basis, Debye):
    X=              3.3811    Y=             -1.1661    Z=             -0.6158  Tot=              3.6292
 Quadrupole moment (field-independent basis, Debye-Ang):
   XX=            -44.0090   YY=            -61.4580   ZZ=            -51.9329
   XY=              2.5671   XZ=              0.9619   YZ=              1.1122

  Exact polarizability: 123.260  -3.925  70.845   1.740   0.512  57.238
 Approx polarizability: 172.564 -14.286 107.304   4.557   0.090  85.974

                      1                      2                      3
                      A                      A                      A
 Frequencies --     22.0008                27.7591                62.1503
 Red. masses --      2.8862                 2.6560                 4.1904
 Frc consts  --      0.0008                 0.0012                 0.0095
 IR Inten    --      0.2220                 1.9573                 0.4807

                      4                      5                      6
                      A                      A                      A
 Frequencies --    124.6776               178.0969               205.1111
 Red. masses --      3.2382                 3.5193                 1.0982
 Frc consts  --      0.0297                 0.0658                 0.0272
 IR Inten    --      0.0349                 2.4364                 1.8076

                      7                      8                      9
                      A                      A                      A
 Frequencies --    235.3463               268.9019               279.7507
 Red. masses --      1.2808                 3.1787                 1.1999
 Frc consts  --      0.0418                 0.1354                 0.0553
 IR Inten    --      0.1714                11.3613               133.8113

                     10                     11                     12
                      A                      A                      A
 Frequencies --    310.0176               390.0061               417.3532
 Red. masses --      4.1424                 3.2257                 4.1017
 Frc consts  --      0.2346                 0.2891                 0.4209
 IR Inten    --      5.3817                 2.5233                 6.7593

                     13                     14                     15
                      A                      A                      A
 Frequencies --    436.2913               516.1882               590.1342
 Red. masses --      3.6963                 4.6180                 5.1502
 Frc consts  --      0.4145                 0.7250                 1.0567
 IR Inten    --      1.1290                 6.4520                17.5120

                     16                     17                     18
                      A                      A                      A
 Frequencies --    638.6786               761.6027               779.5906
 Red. masses --      6.5588                 3.7115                 1.2066
 Frc consts  --      1.5763                 1.2684                 0.4321
 IR Inten    --      2.1064                12.4557                 2.8559

                     19                     20                     21
                      A                      A                      A
 Frequencies --    876.2217               925.8824              1004.2790
 Red. masses --      2.7865                 2.1865                 2.2895
 Frc consts  --      1.2605                 1.1044                 1.3605
 IR Inten    --     15.2579                 1.9850                58.3337

                     22                     23                     24
                      A                      A                      A
 Frequencies --   1054.0555              1078.0062              1085.4406
 Red. masses --      2.1597                 1.8872                 1.8003
 Frc consts  --      1.4138                 1.2922                 1.2497
 IR Inten    --     20.6714                 7.8082                 6.1018

                     25                     26                     27
                      A                      A                      A
 Frequencies --   1098.7269              1164.4299              1209.9828
 Red. masses --      1.4823                 2.8223                 4.0237
 Frc consts  --      1.0543                 2.2547                 3.4708
 IR Inten    --      0.0897                38.7549               163.1761

                     28                     29                     30
                      A                      A                      A
 Frequencies --   1279.3425              1282.5874              1341.5165
 Red. masses --      1.1711                 1.1510                 1.3328
 Frc consts  --      1.1293                 1.1156                 1.4132
 IR Inten    --     32.5998                 0.1633                15.3223

                     31                     32                     33
                      A                      A                      A
 Frequencies --   1347.5325              1393.6620              1411.2405
 Red. masses --      1.4988                 1.2637                 1.2333
 Frc consts  --      1.6035                 1.4462                 1.4472
 IR Inten    --     46.0676                13.1225                 4.8297

                     34                     35                     36
                      A                      A                      A
 Frequencies --   1415.0765              1461.6903              1485.3189
 Red. masses --      1.5091                 1.0748                 1.0519
 Frc consts  --      1.7804                 1.3530                 1.3674
 IR Inten    --     12.2281                 3.8684                 7.9470

                     37                     38                     39
                      A                      A                      A
 Frequencies --   1497.0926              1497.2896              1504.6027
 Red. masses --      1.0412                 1.0502                 1.0527
 Frc consts  --      1.3749                 1.3872                 1.4040
 IR Inten    --      4.3189                 2.1084                 2.0835

                     40                     41                     42
                      A                      A                      A
 Frequencies --   1762.1473              2318.9399              2927.2786
 Red. masses --     12.8506                11.9377                 1.0794
 Frc consts  --     23.5103                37.8226                 5.4495
 IR Inten    --    177.1825               158.9776                40.0695

                     43                     44                     45
                      A                      A                      A
 Frequencies --   3026.3059              3048.7504              3054.8860
 Red. masses --      1.0591                 1.0342                 1.0350
 Frc consts  --      5.7150                 5.6637                 5.6906
 IR Inten    --      9.8192                21.9430                15.7060

                     46                     47                     48
                      A                      A                      A
 Frequencies --   3055.4272              3124.4705              3127.2164
 Red. masses --      1.1003                 1.1026                 1.1032
 Frc consts  --      6.0522                 6.3418                 6.3563
 IR Inten    --      3.4319                22.9932                19.2106

                     49                     50                     51
                      A                      A                      A
 Frequencies --   3128.0493              3151.1237              3786.2454
 Red. masses --      1.1024                 1.1017                 1.0654
 Frc consts  --      6.3551                 6.4453                 8.9990
 IR Inten    --     18.6497                 7.5140                32.3452

 - Thermochemistry -
 -------------------
 Temperature   298.150 Kelvin.  Pressure   1.00000 Atm.
 Atom     1 has atomic number  6 and mass  12.00000

 Molecular mass:   126.06808 amu.
 Principal axes and moments of inertia in atomic units:
                           1         2         3
     Eigenvalues --   577.034452317.833402809.75742
           X            1.00000   0.00149  -0.00217
           Y           -0.00147   0.99998   0.00574
           Z            0.00218  -0.00574   0.99998
 This molecule is an asymmetric top.
 Rotational symmetry number  1.
 Warning -- assumption of classical behavior for rotation
           may cause significant error
 Rotational temperatures (Kelvin)      0.15010     0.03737     0.03083
 Rotational constants (GHZ):           3.12761     0.77863     0.64231
 Zero-point vibrational energy     407738.0 (Joules/Mol)
                                   97.45173 (Kcal/Mol)
 Warning -- explicit consideration of  15 degrees of freedom as
           vibrations may cause significant error
 Vibrational temperatures:     31.65    39.94    89.42   179.38   256.24
          (Kelvin)            295.11   338.61   386.89   402.50   446.05
                              561.13   600.48   627.73   742.68   849.07
                              918.91  1095.78  1121.66  1260.69  1332.14
                             1444.93  1516.55  1551.01  1561.71  1580.82
                             1675.35  1740.89  1840.69  1845.35  1930.14
                             1938.80  2005.17  2030.46  2035.98  2103.04
                             2137.04  2153.98  2154.26  2164.79  2535.33
                             3336.43  4211.70  4354.17  4386.47  4395.29
                             4396.07  4495.41  4499.36  4500.56  4533.76
                             5447.56

 Zero-point correction=                           0.155299 (Hartree/Particle)
 Thermal correction to Energy=                    0.166338
 Thermal correction to Enthalpy=                  0.167282
 Thermal correction to Gibbs Free Energy=         0.116744
 Sum of electronic and zero-point Energies=           -423.019477
 Sum of electronic and thermal Energies=              -423.008438
 Sum of electronic and thermal Enthalpies=            -423.007494
 Sum of electronic and thermal Free Energies=         -423.058032

                     E (Thermal)             CV                S
                      KCal/Mol        Cal/Mol-Kelvin    Cal/Mol-Kelvin
 Total                  104.379             37.649            106.366
 Electronic               0.000              0.000              0.000
 Translational            0.889              2.981             40.409
 Rotational               0.889              2.981             29.709
 Vibrational            102.601             31.688             36.249
 Vibration     1          0.593              1.985              6.445
 Vibration     2          0.593              1.984              5.983
 Vibration     3          0.597              1.972              4.388
 Vibration     4          0.610              1.928              3.027
 Vibration     5          0.629              1.869              2.348
 Vibration     6          0.640              1.833              2.087
 Vibration     7          0.655              1.787              1.838
 Vibration     8          0.673              1.730              1.603
 Vibration     9          0.680              1.711              1.535
 Vibration    10          0.699              1.655              1.362
 Vibration    11          0.758              1.492              1.000
 Vibration    12          0.780              1.433              0.901
 Vibration    13          0.797              1.391              0.838
 Vibration    14          0.871              1.214              0.619
 Vibration    15          0.947              1.053              0.467

 Optimization completed.
    -- Stationary point found.
 Normal termination of Gaussian 09 at Tue Jan 28 09:05:23 2020.
