 Gaussian 09, Revision D.01,
 Gaussian 09:  ES64L-G09RevD.01 24-Apr-2013

 -----------------------------
 # b3lyp 6-31G(2df,p) opt Freq
 -----------------------------

 -----
 titel
 -----
 Symbolic Z-matrix:
 Charge =  0 Multiplicity = 1

 SCF Done:  E(RB3LYP) =  -423.167840478     A.U. after   14 cycles
 Optimization completed.
    -- Stationary point found.
 Normal termination of Gaussian 09 at Tue Jan 28 09:16:21 2020.

 ----------------------------------------------------------------------
 #N Geom=AllCheck Guess=TCheck SCRF=Check GenChk RB3LYP/6-31G(2df,p) Fr
 eq
 ----------------------------------------------------------------------

 Structure from the checkpoint file:  "/scratch/puck/g09_b1f3e846-2d7f-4f07-a953-2add60d7cba0/Gau-82392.chk"
 -----
 titel
 -----
 Charge =  0 Multiplicity = 1

                         Standard orientation:
 ---------------------------------------------------------------------
 Center     Atomic      Atomic             Coordinates (Angstroms)
 Number     Number       Type             X           Y           Z
 ---------------------------------------------------------------------
      1          6           0       -2.524412   -0.873556    0.011837
      2          8           0       -1.243434   -0.866950   -0.612320
      3          6           0       -0.305158   -0.140663    0.068578
      4          6           0        0.410865   -0.703879    1.300532
      5          6           0        1.237250   -0.341372    0.108388
      6          6           0        2.059357   -1.314401   -0.682923
      7          6           0        1.453385    1.184136    0.138469
      8          6           0       -0.086611    1.340695   -0.011976
      9          8           0       -0.791702    2.265071   -0.307105
     10          1           0       -2.933940    0.140748    0.078841
     11          1           0       -3.174644   -1.487741   -0.614059
     12          1           0       -2.472369   -1.308854    1.019233
     13          1           0        0.481686   -0.142735    2.228818
     14          1           0        0.212815   -1.764860    1.425369
     15          1           0        2.237529   -0.946185   -1.698785
     16          1           0        3.034442   -1.480990   -0.211193
     17          1           0        1.551917   -2.280826   -0.758074
     18          1           0        1.919989    1.599009    1.036854
     19          1           0        1.955609    1.581711   -0.749042
 ---------------------------------------------------------------------

 SCF Done:  E(RB3LYP) =  -423.167840478     A.U. after    1 cycles

 The electronic state is 1-A.
 Alpha  occ. eigenvalues --  -19.15928 -19.12866 -10.26560 -10.24739 -10.22994
 Alpha  occ. eigenvalues --  -10.21878 -10.20298 -10.19456 -10.19089  -1.05758
 Alpha  occ. eigenvalues --   -1.03516  -0.90488  -0.73497  -0.72979  -0.70177
 Alpha  occ. eigenvalues --   -0.62485  -0.56375  -0.53618  -0.48922  -0.47927
 Alpha  occ. eigenvalues --   -0.45537  -0.45279  -0.44230  -0.42532  -0.41635
 Alpha  occ. eigenvalues --   -0.41092  -0.39675  -0.37759  -0.35706  -0.34605
 Alpha  occ. eigenvalues --   -0.31975  -0.28320  -0.26257  -0.22979
 Alpha virt. eigenvalues --   -0.00825   0.08590   0.10182   0.10694   0.11672
 Alpha virt. eigenvalues --    0.12712   0.14050   0.14474   0.15716   0.16507
 Alpha virt. eigenvalues --    0.16671   0.16945   0.18265   0.19567   0.20091

 Mulliken charges:
               1
     1  C   -0.263928
     2  O   -0.282768
     3  C    0.300019
     4  C   -0.390808
     5  C    0.247684
     6  C   -0.490273
     7  C   -0.412025
     8  C    0.362343
     9  O   -0.330166
    10  H    0.141526
    11  H    0.131049
    12  H    0.111733
    13  H    0.116232
    14  H    0.126012
    15  H    0.127359
    16  H    0.127089
    17  H    0.132254
    18  H    0.116508
    19  H    0.130159
 Sum of Mulliken charges =   0.00000

 Dipole moment (field-independent basis, Debye):
    X=              1.2425    Y=             -2.3413    Z=              1.3411  Tot=              2.9705
 Quadrupole moment (field-independent basis, Debye-Ang):
   XX=            -48.7551   YY=            -58.8925   ZZ=            -52.5797
   XY=              4.0721   XZ=             -1.8604   YZ=              0.3622

  Exact polarizability:  88.081  -0.614  80.031   0.194  -2.492  65.146
 Approx polarizability: 121.535  -7.049 119.329   3.529  -6.001 100.795

                      1                      2                      3
                      A                      A                      A
 Frequencies --     75.3664               108.5629               138.3547
 Red. masses --      2.9727                 4.1496                 2.6118
 Frc consts  --      0.0099                 0.0288                 0.0295
 IR Inten    --      5.6021                 3.3715                 1.5550

                      4                      5                      6
                      A                      A                      A
 Frequencies --    174.1011               208.8682               258.4426
 Red. masses --      1.1567                 1.0801                 2.8074
 Frc consts  --      0.0207                 0.0278                 0.1105
 IR Inten    --      0.2889                 0.2001                 2.0940

                      7                      8                      9
                      A                      A                      A
 Frequencies --    276.2554               349.0714               396.4399
 Red. masses --      4.6065                 2.3182                 2.4737
 Frc consts  --      0.2071                 0.1664                 0.2291
 IR Inten    --      4.7059                 0.0717                 0.5372

                     10                     11                     12
                      A                      A                      A
 Frequencies --    493.4899               499.8721               567.3025
 Red. masses --      3.0279                 3.5647                 4.0066
 Frc consts  --      0.4345                 0.5248                 0.7597
 IR Inten    --      2.9240                 1.8166                 3.8456

                     13                     14                     15
                      A                      A                      A
 Frequencies --    614.2123               665.5280               743.0054
 Red. masses --      2.8253                 3.7546                 3.5235
 Frc consts  --      0.6280                 0.9798                 1.1461
 IR Inten    --      3.7951                 1.7981                15.8250

                     16                     17                     18
                      A                      A                      A
 Frequencies --    829.2588               857.9619               958.9764
 Red. masses --      5.0362                 2.3809                 1.4385
 Frc consts  --      2.0405                 1.0326                 0.7794
 IR Inten    --     15.1055                 6.6335                 0.1104

                     19                     20                     21
                      A                      A                      A
 Frequencies --    977.5554               987.0088              1010.2718
 Red. masses --      1.5939                 2.2184                 2.1791
 Frc consts  --      0.8974                 1.2733                 1.3104
 IR Inten    --     21.4362                 6.8099                21.7879

                     22                     23                     24
                      A                      A                      A
 Frequencies --   1050.5290              1065.5901              1082.6650
 Red. masses --      3.1230                 1.6269                 1.4207
 Frc consts  --      2.0307                 1.0884                 0.9812
 IR Inten    --     38.9548                 9.9581                 2.0734

                     25                     26                     27
                      A                      A                      A
 Frequencies --   1124.4051              1138.7396              1180.2199
 Red. masses --      1.6674                 3.4109                 1.2885
 Frc consts  --      1.2420                 2.6060                 1.0574
 IR Inten    --     35.7057                59.6506                 2.9845

                     28                     29                     30
                      A                      A                      A
 Frequencies --   1201.1026              1219.4338              1256.5608
 Red. masses --      1.4546                 1.4473                 3.3477
 Frc consts  --      1.2364                 1.2680                 3.1144
 IR Inten    --     10.7963                 1.7317                12.7174

                     31                     32                     33
                      A                      A                      A
 Frequencies --   1352.2177              1383.4968              1423.3968
 Red. masses --      3.8093                 2.0215                 1.5160
 Frc consts  --      4.1038                 2.2797                 1.8097
 IR Inten    --     93.7418                21.4259                 2.0803

                     34                     35                     36
                      A                      A                      A
 Frequencies --   1457.1386              1478.0170              1486.1540
 Red. masses --      1.1069                 1.1539                 1.0501
 Frc consts  --      1.3847                 1.4851                 1.3665
 IR Inten    --      3.0903                 1.5849                 4.2911

                     37                     38                     39
                      A                      A                      A
 Frequencies --   1488.1023              1495.5002              1506.5638
 Red. masses --      1.0654                 1.0582                 1.1819
 Frc consts  --      1.3901                 1.3944                 1.5805
 IR Inten    --      6.0591                 2.8846                21.0870

                     40                     41                     42
                      A                      A                      A
 Frequencies --   1508.7081              1872.5251              3005.3568
 Red. masses --      1.2881                12.7279                 1.0367
 Frc consts  --      1.7275                26.2943                 5.5171
 IR Inten    --      2.7562               339.0428                49.6321

                     43                     44                     45
                      A                      A                      A
 Frequencies --   3029.5456              3050.9682              3075.6183
 Red. masses --      1.0358                 1.0575                 1.0999
 Frc consts  --      5.6011                 5.8000                 6.1303
 IR Inten    --     30.6335                20.1157                28.2426

                     46                     47                     48
                      A                      A                      A
 Frequencies --   3091.1812              3106.1496              3107.1729
 Red. masses --      1.1006                 1.1064                 1.0583
 Frc consts  --      6.1964                 6.2893                 6.0199
 IR Inten    --     17.1998                13.6699                 7.2854

                     49                     50                     51
                      A                      A                      A
 Frequencies --   3109.2668              3131.8379              3197.8212
 Red. masses --      1.0972                 1.1015                 1.1157
 Frc consts  --      6.2497                 6.3658                 6.7220
 IR Inten    --     20.3786                24.0477                 7.4578

 - Thermochemistry -
 -------------------
 Temperature   298.150 Kelvin.  Pressure   1.00000 Atm.
 Atom     1 has atomic number  6 and mass  12.00000

 Molecular mass:   126.06808 amu.
 Principal axes and moments of inertia in atomic units:
                           1         2         3
     Eigenvalues --   848.144891093.469291603.23741
           X            0.99884   0.04336  -0.02094
           Y           -0.04326   0.99905   0.00508
           Z            0.02114  -0.00417   0.99977
 This molecule is an asymmetric top.
 Rotational symmetry number  1.
 Warning -- assumption of classical behavior for rotation
           may cause significant error
 Rotational temperatures (Kelvin)      0.10212     0.07921     0.05402
 Rotational constants (GHZ):           2.12787     1.65047     1.12569
 Zero-point vibrational energy     411909.5 (Joules/Mol)
                                   98.44873 (Kcal/Mol)
 Warning -- explicit consideration of  13 degrees of freedom as
           vibrations may cause significant error
 Vibrational temperatures:    108.44   156.20   199.06   250.49   300.51
          (Kelvin)            371.84   397.47   502.24   570.39   710.02
                              719.20   816.22   883.71   957.55  1069.02
                             1193.12  1234.41  1379.75  1406.48  1420.08
                             1453.55  1511.48  1533.14  1557.71  1617.77
                             1638.39  1698.07  1728.12  1754.49  1807.91
                             1945.54  1990.54  2047.95  2096.49  2126.53
                             2138.24  2141.04  2151.69  2167.61  2170.69
                             2694.14  4324.03  4358.83  4389.66  4425.12
                             4447.51  4469.05  4470.52  4473.54  4506.01
                             4600.95

 Zero-point correction=                           0.156888 (Hartree/Particle)
 Thermal correction to Energy=                    0.166189
 Thermal correction to Enthalpy=                  0.167133
 Thermal correction to Gibbs Free Energy=         0.122756
 Sum of electronic and zero-point Energies=           -423.010952
 Sum of electronic and thermal Energies=              -423.001651
 Sum of electronic and thermal Enthalpies=            -423.000707
 Sum of electronic and thermal Free Energies=         -423.045085

                     E (Thermal)             CV                S
                      KCal/Mol        Cal/Mol-Kelvin    Cal/Mol-Kelvin
 Total                  104.285             34.145             93.401
 Electronic               0.000              0.000              0.000
 Translational            0.889              2.981             40.409
 Rotational               0.889              2.981             28.788
 Vibrational            102.508             28.184             24.204
 Vibration     1          0.599              1.965              4.008
 Vibration     2          0.606              1.942              3.294
 Vibration     3          0.614              1.915              2.827
 Vibration     4          0.627              1.874              2.391
 Vibration     5          0.642              1.827              2.054
 Vibration     6          0.667              1.748              1.672
 Vibration     7          0.678              1.717              1.557
 Vibration     8          0.726              1.577              1.170
 Vibration     9          0.763              1.478              0.976
 Vibration    10          0.849              1.264              0.675
 Vibration    11          0.855              1.250              0.658
 Vibration    12          0.923              1.102              0.509
 Vibration    13          0.974              1.002              0.426

 Optimization completed.
    -- Stationary point found.
 Normal termination of Gaussian 09 at Tue Jan 28 10:09:09 2020.
