 Gaussian 09, Revision D.01,
 Gaussian 09:  ES64L-G09RevD.01 24-Apr-2013

 -----------------------------
 # b3lyp 6-31G(2df,p) opt Freq
 -----------------------------

 -----
 titel
 -----
 Symbolic Z-matrix:
 Charge =  0 Multiplicity = 1

 SCF Done:  E(RB3LYP) =  -423.105354460     A.U. after   13 cycles
 Optimization completed.
    -- Stationary point found.
 Normal termination of Gaussian 09 at Tue Jan 28 09:42:27 2020.

 ----------------------------------------------------------------------
 #N Geom=AllCheck Guess=TCheck SCRF=Check GenChk RB3LYP/6-31G(2df,p) Fr
 eq
 ----------------------------------------------------------------------

 Structure from the checkpoint file:  "/scratch/puck/g09_d9437e09-6a2f-4131-a2b6-4eb0ad6e6a79/Gau-106473.chk"
 -----
 titel
 -----
 Charge =  0 Multiplicity = 1

                         Standard orientation:
 ---------------------------------------------------------------------
 Center     Atomic      Atomic             Coordinates (Angstroms)
 Number     Number       Type             X           Y           Z
 ---------------------------------------------------------------------
      1          6           0       -2.737858   -0.706074    0.206995
      2          8           0       -1.930044    0.160198   -0.577039
      3          6           0       -0.629462    0.240950   -0.134424
      4          6           0       -0.217931    1.013214    1.081753
      5          6           0        0.340770    1.412588   -0.272072
      6          6           0        1.458524    0.458826   -0.752252
      7          6           0        2.327859   -0.273964    0.292335
      8          8           0        1.322058   -1.309416    0.461044
      9          6           0        0.496592   -0.730253   -0.578912
     10          1           0       -2.786049   -0.370585    1.251750
     11          1           0       -3.739769   -0.685587   -0.227143
     12          1           0       -2.360916   -1.738009    0.189104
     13          1           0       -0.984739    1.691634    1.442605
     14          1           0        0.398537    0.568041    1.854922
     15          1           0        0.164277    2.403031   -0.672521
     16          1           0        1.906284    0.707099   -1.712815
     17          1           0        3.256253   -0.693286   -0.113566
     18          1           0        2.548516    0.251996    1.228203
     19          1           0        0.230528   -1.432313   -1.373129
 ---------------------------------------------------------------------

 SCF Done:  E(RB3LYP) =  -423.105354460     A.U. after    1 cycles

 The electronic state is 1-A.
 Alpha  occ. eigenvalues --  -19.14964 -19.13146 -10.23674 -10.23130 -10.22842
 Alpha  occ. eigenvalues --  -10.22539 -10.19675 -10.19426 -10.18703  -1.04715
 Alpha  occ. eigenvalues --   -1.03228  -0.87878  -0.73383  -0.70199  -0.68734
 Alpha  occ. eigenvalues --   -0.60428  -0.57372  -0.53303  -0.52006  -0.49358
 Alpha  occ. eigenvalues --   -0.46805  -0.45635  -0.44228  -0.43671  -0.40504
 Alpha  occ. eigenvalues --   -0.39772  -0.37838  -0.34914  -0.33725  -0.30213
 Alpha  occ. eigenvalues --   -0.29860  -0.27259  -0.24368  -0.23618
 Alpha virt. eigenvalues --    0.06621   0.09089   0.10170   0.11207   0.12844
 Alpha virt. eigenvalues --    0.13644   0.14493   0.14989   0.15878   0.16351
 Alpha virt. eigenvalues --    0.17579   0.18111   0.19019   0.19564   0.20935

 Mulliken charges:
               1
     1  C   -0.259244
     2  O   -0.283055
     3  C    0.431839
     4  C   -0.355635
     5  C   -0.167688
     6  C   -0.064757
     7  C   -0.108622
     8  O   -0.297627
     9  C    0.027202
    10  H    0.114418
    11  H    0.127024
    12  H    0.117850
    13  H    0.116743
    14  H    0.128129
    15  H    0.099015
    16  H    0.083690
    17  H    0.103386
    18  H    0.104376
    19  H    0.082957
 Sum of Mulliken charges =   0.00000

 Dipole moment (field-independent basis, Debye):
    X=              0.0580    Y=              0.7915    Z=             -0.1170  Tot=              0.8022
 Quadrupole moment (field-independent basis, Debye-Ang):
   XX=            -49.3359   YY=            -54.4414   ZZ=            -52.9291
   XY=              3.4680   XZ=             -3.4001   YZ=              1.8813

  Exact polarizability:  88.595   1.745  69.194  -1.483   2.151  66.468
 Approx polarizability: 114.633   3.674 105.265   0.472   0.211 103.023

                      1                      2                      3
                      A                      A                      A
 Frequencies --     85.5131               137.2779               170.6745
 Red. masses --      2.8668                 3.2567                 1.0827
 Frc consts  --      0.0124                 0.0362                 0.0186
 IR Inten    --      3.9684                 3.0515                 0.1487

                      4                      5                      6
                      A                      A                      A
 Frequencies --    241.1204               294.1481               356.4454
 Red. masses --      3.3765                 2.8558                 3.8881
 Frc consts  --      0.1157                 0.1456                 0.2911
 IR Inten    --      3.5006                 3.0998                 0.0731

                      7                      8                      9
                      A                      A                      A
 Frequencies --    389.0314               459.8855               517.1465
 Red. masses --      3.8589                 2.7577                 2.4837
 Frc consts  --      0.3441                 0.3436                 0.3914
 IR Inten    --      6.5651                 5.2101                 2.6426

                     10                     11                     12
                      A                      A                      A
 Frequencies --    655.8646               704.3004               805.0272
 Red. masses --      3.6431                 3.2941                 2.3200
 Frc consts  --      0.9233                 0.9627                 0.8859
 IR Inten    --     11.9034                 3.4915                 2.7462

                     13                     14                     15
                      A                      A                      A
 Frequencies --    831.6401               855.4702               898.8867
 Red. masses --      2.5370                 2.2910                 2.3131
 Frc consts  --      1.0338                 0.9879                 1.1012
 IR Inten    --      1.5552                 5.9068                 6.9513

                     16                     17                     18
                      A                      A                      A
 Frequencies --    908.2121               964.4828               969.3154
 Red. masses --      1.7749                 1.9054                 2.3853
 Frc consts  --      0.8626                 1.0443                 1.3205
 IR Inten    --      9.0813                24.8977                31.5872

                     19                     20                     21
                      A                      A                      A
 Frequencies --    983.0182              1000.1967              1017.9243
 Red. masses --      4.5155                 3.1597                 1.6623
 Frc consts  --      2.5709                 1.8624                 1.0148
 IR Inten    --     64.1399                16.3535                 1.2017

                     22                     23                     24
                      A                      A                      A
 Frequencies --   1047.2138              1066.8524              1078.2553
 Red. masses --      1.9198                 1.9656                 2.1890
 Frc consts  --      1.2405                 1.3181                 1.4995
 IR Inten    --     13.5270                19.8414                39.7116

                     25                     26                     27
                      A                      A                      A
 Frequencies --   1106.8648              1158.3226              1179.2313
 Red. masses --      2.1298                 1.2487                 1.3664
 Frc consts  --      1.5374                 0.9871                 1.1195
 IR Inten    --      4.8340                 4.2277                 1.7318

                     28                     29                     30
                      A                      A                      A
 Frequencies --   1180.2478              1195.8449              1218.6902
 Red. masses --      1.5978                 1.9491                 1.4716
 Frc consts  --      1.3114                 1.6423                 1.2878
 IR Inten    --      4.0345                11.5754                 3.6475

                     31                     32                     33
                      A                      A                      A
 Frequencies --   1241.6408              1243.4304              1286.1461
 Red. masses --      1.8294                 1.6639                 1.8754
 Frc consts  --      1.6617                 1.5157                 1.8277
 IR Inten    --     40.0571                38.6038                10.7507

                     34                     35                     36
                      A                      A                      A
 Frequencies --   1303.7603              1349.6085              1382.1038
 Red. masses --      1.8288                 1.4890                 2.0204
 Frc consts  --      1.8315                 1.5979                 2.2739
 IR Inten    --     15.6116                 3.3625                82.5216

                     37                     38                     39
                      A                      A                      A
 Frequencies --   1472.3136              1486.9155              1499.2109
 Red. masses --      1.1359                 1.0583                 1.4124
 Frc consts  --      1.4508                 1.3786                 1.8703
 IR Inten    --      4.8176                 3.5816                22.6937

                     40                     41                     42
                      A                      A                      A
 Frequencies --   1505.3969              1519.3367              2997.1551
 Red. masses --      1.0826                 1.0952                 1.0342
 Frc consts  --      1.4456                 1.4895                 5.4738
 IR Inten    --      2.8102                 0.9065                49.4132

                     43                     44                     45
                      A                      A                      A
 Frequencies --   3020.6381              3052.8489              3066.2569
 Red. masses --      1.0553                 1.1040                 1.1106
 Frc consts  --      5.6732                 6.0625                 6.1519
 IR Inten    --     75.6573                35.7295                34.7305

                     46                     47                     48
                      A                      A                      A
 Frequencies --   3082.3419              3123.9770              3128.2500
 Red. masses --      1.0892                 1.0992                 1.0897
 Frc consts  --      6.0972                 6.3204                 6.2830
 IR Inten    --     39.1363                29.5860                29.9235

                     49                     50                     51
                      A                      A                      A
 Frequencies --   3131.3852              3191.0806              3217.8216
 Red. masses --      1.0531                 1.0942                 1.1155
 Frc consts  --      6.0840                 6.5650                 6.8051
 IR Inten    --      7.9645                11.5821                 6.8123

 - Thermochemistry -
 -------------------
 Temperature   298.150 Kelvin.  Pressure   1.00000 Atm.
 Atom     1 has atomic number  6 and mass  12.00000

 Molecular mass:   126.06808 amu.
 Principal axes and moments of inertia in atomic units:
                           1         2         3
     Eigenvalues --   522.967621348.706521513.95543
           X            0.99951   0.02689  -0.01577
           Y           -0.02608   0.99845   0.04912
           Z            0.01706  -0.04869   0.99867
 This molecule is an asymmetric top.
 Rotational symmetry number  1.
 Warning -- assumption of classical behavior for rotation
           may cause significant error
 Rotational temperatures (Kelvin)      0.16562     0.06422     0.05721
 Rotational constants (GHZ):           3.45096     1.33813     1.19207
 Zero-point vibrational energy     417369.4 (Joules/Mol)
                                   99.75369 (Kcal/Mol)
 Warning -- explicit consideration of   9 degrees of freedom as
           vibrations may cause significant error
 Vibrational temperatures:    123.03   197.51   245.56   346.92   423.21
          (Kelvin)            512.84   559.73   661.67   744.06   943.64
                             1013.33  1158.25  1196.54  1230.83  1293.30
                             1306.71  1387.67  1394.63  1414.34  1439.06
                             1464.56  1506.71  1534.96  1551.37  1592.53
                             1666.57  1696.65  1698.11  1720.55  1753.42
                             1786.44  1789.02  1850.48  1875.82  1941.78
                             1988.54  2118.33  2139.34  2157.03  2165.93
                             2185.98  4312.23  4346.02  4392.36  4411.65
                             4434.80  4494.70  4500.85  4505.36  4591.25
                             4629.72

 Zero-point correction=                           0.158968 (Hartree/Particle)
 Thermal correction to Energy=                    0.166952
 Thermal correction to Enthalpy=                  0.167896
 Thermal correction to Gibbs Free Energy=         0.126380
 Sum of electronic and zero-point Energies=           -422.946387
 Sum of electronic and thermal Energies=              -422.938403
 Sum of electronic and thermal Enthalpies=            -422.937459
 Sum of electronic and thermal Free Energies=         -422.978974

                     E (Thermal)             CV                S
                      KCal/Mol        Cal/Mol-Kelvin    Cal/Mol-Kelvin
 Total                  104.764             30.839             87.376
 Electronic               0.000              0.000              0.000
 Translational            0.889              2.981             40.409
 Rotational               0.889              2.981             28.459
 Vibrational            102.986             24.877             18.509
 Vibration     1          0.601              1.959              3.760
 Vibration     2          0.614              1.916              2.841
 Vibration     3          0.626              1.879              2.428
 Vibration     4          0.658              1.777              1.795
 Vibration     5          0.689              1.685              1.450
 Vibration     6          0.732              1.562              1.138
 Vibration     7          0.757              1.494              1.004
 Vibration     8          0.818              1.339              0.766
 Vibration     9          0.872              1.212              0.617

 Optimization completed.
    -- Stationary point found.
 Normal termination of Gaussian 09 at Tue Jan 28 10:26:49 2020.
