 Gaussian 09, Revision D.01,
 Gaussian 09:  ES64L-G09RevD.01 24-Apr-2013

 -----------------------------
 # b3lyp 6-31G(2df,p) opt Freq
 -----------------------------

 -----
 titel
 -----
 Symbolic Z-matrix:
 Charge =  0 Multiplicity = 1

 SCF Done:  E(RB3LYP) =  -423.134461555     A.U. after   14 cycles
 Optimization completed.
    -- Stationary point found.
 Normal termination of Gaussian 09 at Tue Jan 28 00:44:48 2020.

 ----------------------------------------------------------------------
 #N Geom=AllCheck Guess=TCheck SCRF=Check GenChk RB3LYP/6-31G(2df,p) Fr
 eq
 ----------------------------------------------------------------------

 Structure from the checkpoint file:  "/scratch/puck/g09_33a2ca4d-4fa2-404e-acc7-fa30f5cee0b5/Gau-189850.chk"
 -----
 titel
 -----
 Charge =  0 Multiplicity = 1

                         Standard orientation:
 ---------------------------------------------------------------------
 Center     Atomic      Atomic             Coordinates (Angstroms)
 Number     Number       Type             X           Y           Z
 ---------------------------------------------------------------------
      1          6           0       -2.652794    0.422002   -0.686718
      2          6           0       -1.800560   -0.115671    0.442539
      3          8           0       -1.111603   -1.349594    0.094865
      4          6           0        0.164009   -0.814380    0.490212
      5          6           0        1.200260   -0.897337   -0.635375
      6          6           0        2.419866   -0.181748   -0.278520
      7          6           0        3.388915    0.446900    0.058756
      8          6           0       -0.456068    0.580874    0.765235
      9          8           0       -0.137566    1.597077   -0.153951
     10          1           0       -2.043526    0.654221   -1.561679
     11          1           0       -3.405800   -0.322692   -0.962402
     12          1           0       -3.169281    1.334671   -0.372541
     13          1           0       -2.410682   -0.272825    1.342291
     14          1           0        0.548173   -1.312046    1.390575
     15          1           0        1.417383   -1.950838   -0.846190
     16          1           0        0.764764   -0.465605   -1.541760
     17          1           0        4.266093    0.976676    0.337910
     18          1           0       -0.354496    0.930134    1.799827
     19          1           0        0.798961    1.804591   -0.050109
 ---------------------------------------------------------------------

 SCF Done:  E(RB3LYP) =  -423.134461555     A.U. after    1 cycles

 The electronic state is 1-A.
 Alpha  occ. eigenvalues --  -19.14479 -19.13224 -10.23756 -10.23632 -10.23312
 Alpha  occ. eigenvalues --  -10.21016 -10.19429 -10.18278 -10.17156  -1.04869
 Alpha  occ. eigenvalues --   -1.01665  -0.80292  -0.75322  -0.73054  -0.69670
 Alpha  occ. eigenvalues --   -0.62029  -0.55825  -0.53719  -0.51427  -0.50097
 Alpha  occ. eigenvalues --   -0.47765  -0.46041  -0.43924  -0.41695  -0.40358
 Alpha  occ. eigenvalues --   -0.38139  -0.37946  -0.36054  -0.33808  -0.30639
 Alpha  occ. eigenvalues --   -0.28132  -0.27532  -0.26382  -0.25021
 Alpha virt. eigenvalues --    0.04205   0.04726   0.07230   0.09801   0.11186
 Alpha virt. eigenvalues --    0.12180   0.12676   0.13664   0.15997   0.16345
 Alpha virt. eigenvalues --    0.16897   0.17611   0.18487   0.19050   0.22365

 Mulliken charges:
               1
     1  C   -0.395899
     2  C    0.138533
     3  O   -0.313538
     4  C    0.112217
     5  C   -0.368896
     6  C    0.280453
     7  C   -0.455009
     8  C    0.039954
     9  O   -0.427236
    10  H    0.133498
    11  H    0.122596
    12  H    0.120307
    13  H    0.075529
    14  H    0.080685
    15  H    0.139604
    16  H    0.147578
    17  H    0.202018
    18  H    0.073147
    19  H    0.294459
 Sum of Mulliken charges =   0.00000

 Dipole moment (field-independent basis, Debye):
    X=              0.9663    Y=              0.7502    Z=              0.9916  Tot=              1.5748
 Quadrupole moment (field-independent basis, Debye-Ang):
   XX=            -48.7537   YY=            -55.6251   ZZ=            -52.2047
   XY=              1.2550   XZ=              0.2853   YZ=              1.5168

  Exact polarizability: 100.484   6.308  67.970   4.149   2.149  62.728
 Approx polarizability: 132.876  17.246 106.765   9.840   5.793  94.577

                      1                      2                      3
                      A                      A                      A
 Frequencies --     50.8642                76.2936               134.1587
 Red. masses --      3.8981                 3.8401                 3.6905
 Frc consts  --      0.0059                 0.0132                 0.0391
 IR Inten    --      0.6112                 2.0564                 0.6739

                      4                      5                      6
                      A                      A                      A
 Frequencies --    196.5828               245.5471               251.8552
 Red. masses --      1.1198                 3.3550                 3.6995
 Frc consts  --      0.0255                 0.1192                 0.1383
 IR Inten    --      1.3238                 5.1262                 1.7178

                      7                      8                      9
                      A                      A                      A
 Frequencies --    355.7883               365.2003               383.1876
 Red. masses --      2.6912                 3.4416                 2.2604
 Frc consts  --      0.2007                 0.2704                 0.1955
 IR Inten    --      2.8962                 8.1983                32.4615

                     10                     11                     12
                      A                      A                      A
 Frequencies --    393.9617               444.1810               537.1064
 Red. masses --      1.4189                 5.5426                 2.9748
 Frc consts  --      0.1297                 0.6443                 0.5056
 IR Inten    --     95.2527                16.0639                 8.4652

                     13                     14                     15
                      A                      A                      A
 Frequencies --    594.0307               634.6302               651.6294
 Red. masses --      4.1940                 1.2126                 1.2318
 Frc consts  --      0.8720                 0.2878                 0.3082
 IR Inten    --      1.7210                43.6704                47.1360

                     16                     17                     18
                      A                      A                      A
 Frequencies --    770.9609               808.8278               858.4253
 Red. masses --      2.4854                 2.5895                 2.8556
 Frc consts  --      0.8704                 0.9981                 1.2398
 IR Inten    --      4.5864                 7.6688                 1.2136

                     19                     20                     21
                      A                      A                      A
 Frequencies --    900.3718               961.7468               965.4417
 Red. masses --      2.6001                 3.6374                 1.7674
 Frc consts  --      1.2419                 1.9823                 0.9706
 IR Inten    --     20.1883                 3.1877                 6.6420

                     22                     23                     24
                      A                      A                      A
 Frequencies --   1012.0496              1039.0355              1082.1503
 Red. masses --      1.8956                 4.8193                 2.5917
 Frc consts  --      1.1439                 3.0654                 1.7882
 IR Inten    --     66.8986                97.1895                42.1704

                     25                     26                     27
                      A                      A                      A
 Frequencies --   1106.8577              1133.3075              1181.1621
 Red. masses --      2.0808                 1.9805                 2.4492
 Frc consts  --      1.5020                 1.4987                 2.0133
 IR Inten    --      8.7617                13.2692                44.4904

                     28                     29                     30
                      A                      A                      A
 Frequencies --   1205.1214              1223.8862              1268.8148
 Red. masses --      1.7451                 1.2106                 1.2309
 Frc consts  --      1.4933                 1.0684                 1.1676
 IR Inten    --     18.5484                 8.9014                 1.0654

                     31                     32                     33
                      A                      A                      A
 Frequencies --   1297.7618              1329.8202              1346.5659
 Red. masses --      1.3308                 1.3608                 1.4496
 Frc consts  --      1.3205                 1.4178                 1.5486
 IR Inten    --      2.5363                37.4282                 3.8406

                     34                     35                     36
                      A                      A                      A
 Frequencies --   1363.0482              1394.5588              1413.0299
 Red. masses --      1.2924                 1.2778                 1.5268
 Frc consts  --      1.4147                 1.4641                 1.7961
 IR Inten    --     24.5776                 2.9228                 6.0759

                     37                     38                     39
                      A                      A                      A
 Frequencies --   1429.2224              1463.8047              1483.7763
 Red. masses --      1.4367                 1.0892                 1.0568
 Frc consts  --      1.7291                 1.3751                 1.3708
 IR Inten    --      5.4614                 6.2418                 4.8220

                     40                     41                     42
                      A                      A                      A
 Frequencies --   1490.5007              2230.0185              3006.4603
 Red. masses --      1.0675                 5.9464                 1.0848
 Frc consts  --      1.3973                17.4229                 5.7773
 IR Inten    --      3.5193                 3.2453                26.1095

                     43                     44                     45
                      A                      A                      A
 Frequencies --   3011.1464              3033.1401              3044.4252
 Red. masses --      1.0839                 1.0863                 1.0594
 Frc consts  --      5.7904                 5.8880                 5.7850
 IR Inten    --     28.6666               100.0664                 7.8212

                     46                     47                     48
                      A                      A                      A
 Frequencies --   3045.5877              3091.7856              3112.1050
 Red. masses --      1.0387                 1.1001                 1.1011
 Frc consts  --      5.6768                 6.1959                 6.2830
 IR Inten    --     14.9141                 7.1481                16.4172

                     49                     50                     51
                      A                      A                      A
 Frequencies --   3142.3189              3503.1723              3787.3342
 Red. masses --      1.1007                 1.1614                 1.0659
 Frc consts  --      6.4035                 8.3975                 9.0085
 IR Inten    --     17.5008                72.2444                46.9831

 - Thermochemistry -
 -------------------
 Temperature   298.150 Kelvin.  Pressure   1.00000 Atm.
 Atom     1 has atomic number  6 and mass  12.00000

 Molecular mass:   126.06808 amu.
 Principal axes and moments of inertia in atomic units:
                           1         2         3
     Eigenvalues --   528.482821655.115441912.11908
           X            0.99993  -0.00769   0.00908
           Y            0.00759   0.99990   0.01178
           Z           -0.00917  -0.01171   0.99989
 This molecule is an asymmetric top.
 Rotational symmetry number  1.
 Warning -- assumption of classical behavior for rotation
           may cause significant error
 Rotational temperatures (Kelvin)      0.16389     0.05233     0.04530
 Rotational constants (GHZ):           3.41495     1.09040     0.94384
 Zero-point vibrational energy     411831.0 (Joules/Mol)
                                   98.42996 (Kcal/Mol)
 Warning -- explicit consideration of  13 degrees of freedom as
           vibrations may cause significant error
 Vibrational temperatures:     73.18   109.77   193.02   282.84   353.29
          (Kelvin)            362.36   511.90   525.44   551.32   566.82
                              639.08   772.78   854.68   913.09   937.55
                             1109.24  1163.72  1235.08  1295.43  1383.74
                             1389.05  1456.11  1494.94  1556.97  1592.52
                             1630.57  1699.43  1733.90  1760.90  1825.54
                             1867.19  1913.31  1937.41  1961.12  2006.46
                             2033.03  2056.33  2106.09  2134.82  2144.50
                             3208.50  4325.62  4332.36  4364.01  4380.24
                             4381.92  4448.38  4477.62  4521.09  5040.28
                             5449.12

 Zero-point correction=                           0.156858 (Hartree/Particle)
 Thermal correction to Energy=                    0.166409
 Thermal correction to Enthalpy=                  0.167353
 Thermal correction to Gibbs Free Energy=         0.122162
 Sum of electronic and zero-point Energies=           -422.977603
 Sum of electronic and thermal Energies=              -422.968052
 Sum of electronic and thermal Enthalpies=            -422.967108
 Sum of electronic and thermal Free Energies=         -423.012300

                     E (Thermal)             CV                S
                      KCal/Mol        Cal/Mol-Kelvin    Cal/Mol-Kelvin
 Total                  104.423             35.375             95.114
 Electronic               0.000              0.000              0.000
 Translational            0.889              2.981             40.409
 Rotational               0.889              2.981             28.905
 Vibrational            102.646             29.413             25.801
 Vibration     1          0.595              1.977              4.784
 Vibration     2          0.599              1.965              3.984
 Vibration     3          0.613              1.919              2.886
 Vibration     4          0.636              1.845              2.165
 Vibration     5          0.660              1.770              1.762
 Vibration     6          0.664              1.760              1.718
 Vibration     7          0.731              1.563              1.140
 Vibration     8          0.738              1.544              1.100
 Vibration     9          0.752              1.506              1.027
 Vibration    10          0.761              1.483              0.985
 Vibration    11          0.804              1.374              0.814
 Vibration    12          0.892              1.168              0.572
 Vibration    13          0.952              1.044              0.460

 Optimization completed.
    -- Stationary point found.
 Normal termination of Gaussian 09 at Tue Jan 28 01:24:48 2020.
