 Gaussian 09, Revision D.01,
 Gaussian 09:  ES64L-G09RevD.01 24-Apr-2013

 -----------------------------
 # b3lyp 6-31G(2df,p) opt Freq
 -----------------------------

 -----
 titel
 -----
 Symbolic Z-matrix:
 Charge =  0 Multiplicity = 1

 SCF Done:  E(RB3LYP) =  -423.145763138     A.U. after   14 cycles
 Optimization completed.
    -- Stationary point found.
 Normal termination of Gaussian 09 at Mon Jan 27 22:01:02 2020.

 ----------------------------------------------------------------------
 #N Geom=AllCheck Guess=TCheck SCRF=Check GenChk RB3LYP/6-31G(2df,p) Fr
 eq
 ----------------------------------------------------------------------

 Structure from the checkpoint file:  "/scratch/puck/g09_88ebdee3-22bf-4f2c-8adf-6637ba9c5385/Gau-98606.chk"
 -----
 titel
 -----
 Charge =  0 Multiplicity = 1

                         Standard orientation:
 ---------------------------------------------------------------------
 Center     Atomic      Atomic             Coordinates (Angstroms)
 Number     Number       Type             X           Y           Z
 ---------------------------------------------------------------------
      1          6           0       -2.644584   -0.723994   -0.119211
      2          6           0       -1.172207   -0.436820   -0.006684
      3          6           0        0.017377   -1.310423   -0.515583
      4          6           0        0.696312   -0.086697    0.144184
      5          6           0       -0.339464   -0.226443    1.304943
      6          6           0        2.148060    0.209516    0.243937
      7          8           0        3.013887   -0.432762   -0.299990
      8          6           0       -0.398856    0.780300   -0.607892
      9          8           0       -0.694891    2.091540   -0.240902
     10          1           0       -3.238451    0.111448    0.267829
     11          1           0       -2.932394   -0.881925   -1.164092
     12          1           0       -2.918199   -1.621836    0.445026
     13          1           0        0.164976   -2.263271   -0.003779
     14          1           0        0.129552   -1.413491   -1.597771
     15          1           0       -0.217762   -1.103025    1.946685
     16          1           0       -0.547055    0.656097    1.918881
     17          1           0        2.398599    1.104819    0.858793
     18          1           0       -0.288442    0.786537   -1.695540
     19          1           0       -0.942618    2.121789    0.688940
 ---------------------------------------------------------------------

 SCF Done:  E(RB3LYP) =  -423.145763138     A.U. after    1 cycles

 The electronic state is 1-A.
 Alpha  occ. eigenvalues --  -19.15479 -19.13650 -10.26723 -10.25184 -10.21804
 Alpha  occ. eigenvalues --  -10.21268 -10.20734 -10.19599 -10.18696  -1.04387
 Alpha  occ. eigenvalues --   -1.04034  -0.91845  -0.74304  -0.69037  -0.67474
 Alpha  occ. eigenvalues --   -0.66385  -0.57501  -0.54717  -0.50650  -0.48517
 Alpha  occ. eigenvalues --   -0.47051  -0.44102  -0.43173  -0.42203  -0.40038
 Alpha  occ. eigenvalues --   -0.39540  -0.38259  -0.37200  -0.33831  -0.33734
 Alpha  occ. eigenvalues --   -0.32246  -0.31304  -0.27270  -0.24125
 Alpha virt. eigenvalues --   -0.02733   0.05792   0.09911   0.11300   0.12649
 Alpha virt. eigenvalues --    0.13460   0.13948   0.14384   0.14697   0.15019
 Alpha virt. eigenvalues --    0.16000   0.17954   0.18721   0.20882   0.22182

 Mulliken charges:
               1
     1  C   -0.510487
     2  C    0.266504
     3  C   -0.292756
     4  C    0.210938
     5  C   -0.342615
     6  C    0.026876
     7  O   -0.251108
     8  C    0.113340
     9  O   -0.442721
    10  H    0.120504
    11  H    0.126965
    12  H    0.124315
    13  H    0.104286
    14  H    0.103853
    15  H    0.107433
    16  H    0.081691
    17  H    0.070751
    18  H    0.095554
    19  H    0.286677
 Sum of Mulliken charges =   0.00000

 Dipole moment (field-independent basis, Debye):
    X=             -2.9228    Y=             -0.0945    Z=              1.7298  Tot=              3.3976
 Quadrupole moment (field-independent basis, Debye-Ang):
   XX=            -62.1938   YY=            -55.1833   ZZ=            -50.6241
   XY=              3.2639   XZ=              1.2698   YZ=              2.4675

  Exact polarizability:  89.370  -0.919  74.299  -1.115   3.960  69.969
 Approx polarizability: 123.066  -9.180 114.371  -5.676   6.631 109.977

                      1                      2                      3
                      A                      A                      A
 Frequencies --     68.3372               140.6958               183.9762
 Red. masses --      4.8392                 4.5644                 1.4400
 Frc consts  --      0.0133                 0.0532                 0.0287
 IR Inten    --      4.5671                 2.7563                 1.0432

                      4                      5                      6
                      A                      A                      A
 Frequencies --    195.0194               204.3338               258.3973
 Red. masses --      2.0699                 1.6930                 1.2588
 Frc consts  --      0.0464                 0.0416                 0.0495
 IR Inten    --      1.5459                 2.7045                85.9554

                      7                      8                      9
                      A                      A                      A
 Frequencies --    311.1909               353.9637               403.8388
 Red. masses --      2.8293                 2.8700                 3.5419
 Frc consts  --      0.1614                 0.2119                 0.3403
 IR Inten    --      1.0730                 6.5037                 0.3079

                     10                     11                     12
                      A                      A                      A
 Frequencies --    498.7091               529.0683               592.3559
 Red. masses --      3.6708                 2.0590                 2.8503
 Frc consts  --      0.5379                 0.3396                 0.5893
 IR Inten    --      2.4278                 1.5677                 7.4176

                     13                     14                     15
                      A                      A                      A
 Frequencies --    643.2904               710.1958               762.6468
 Red. masses --      3.0968                 3.2690                 3.3516
 Frc consts  --      0.7550                 0.9714                 1.1486
 IR Inten    --      2.1901                23.5257                 4.7220

                     16                     17                     18
                      A                      A                      A
 Frequencies --    825.3746               859.3785               910.1437
 Red. masses --      2.9028                 2.4313                 3.1759
 Frc consts  --      1.1651                 1.0579                 1.5500
 IR Inten    --      6.6553                13.7426                14.1222

                     19                     20                     21
                      A                      A                      A
 Frequencies --    976.9403              1007.6603              1018.5947
 Red. masses --      1.5002                 1.3877                 1.4387
 Frc consts  --      0.8436                 0.8302                 0.8795
 IR Inten    --      1.4939                 1.5531                 0.2070

                     22                     23                     24
                      A                      A                      A
 Frequencies --   1033.9646              1056.5103              1101.5279
 Red. masses --      1.5432                 1.7874                 1.5461
 Frc consts  --      0.9721                 1.1755                 1.1053
 IR Inten    --      1.0915                21.3411                41.4923

                     25                     26                     27
                      A                      A                      A
 Frequencies --   1140.5353              1153.3376              1155.7369
 Red. masses --      1.3615                 2.0442                 1.9693
 Frc consts  --      1.0435                 1.6021                 1.5498
 IR Inten    --      2.5503                44.0312                14.0162

                     28                     29                     30
                      A                      A                      A
 Frequencies --   1172.5992              1183.2301              1207.6910
 Red. masses --      2.5659                 1.7782                 2.3123
 Frc consts  --      2.0787                 1.4668                 1.9871
 IR Inten    --     62.0610                22.1880                30.0026

                     31                     32                     33
                      A                      A                      A
 Frequencies --   1275.3500              1293.6760              1355.9112
 Red. masses --      1.4906                 2.9821                 2.7685
 Frc consts  --      1.4285                 2.9405                 2.9989
 IR Inten    --     20.5862                 0.2028                31.2483

                     34                     35                     36
                      A                      A                      A
 Frequencies --   1411.7349              1424.7657              1448.8287
 Red. masses --      1.3916                 1.2891                 1.2098
 Frc consts  --      1.6341                 1.5418                 1.4962
 IR Inten    --      3.4015                19.5286                54.2361

                     37                     38                     39
                      A                      A                      A
 Frequencies --   1488.1232              1488.8457              1505.6713
 Red. masses --      1.0479                 1.0485                 1.1037
 Frc consts  --      1.3672                 1.3693                 1.4742
 IR Inten    --      4.0817                 7.1113                 9.0477

                     40                     41                     42
                      A                      A                      A
 Frequencies --   1548.3508              1809.4952              2863.2660
 Red. masses --      1.2157                10.7046                 1.0816
 Frc consts  --      1.7172                20.6508                 5.2246
 IR Inten    --      9.2385               194.9212               123.8909

                     43                     44                     45
                      A                      A                      A
 Frequencies --   3028.4063              3041.9388              3064.1056
 Red. masses --      1.0354                 1.0578                 1.0560
 Frc consts  --      5.5946                 5.7670                 5.8416
 IR Inten    --     24.6749                50.1697                18.9548

                     46                     47                     48
                      A                      A                      A
 Frequencies --   3085.3649              3095.3639              3099.5107
 Red. masses --      1.0861                 1.1008                 1.1012
 Frc consts  --      6.0915                 6.2142                 6.2328
 IR Inten    --     30.3367                14.3052                14.6864

                     49                     50                     51
                      A                      A                      A
 Frequencies --   3103.8259              3131.8980              3814.6098
 Red. masses --      1.1058                 1.1107                 1.0649
 Frc consts  --      6.2768                 6.4189                 9.1295
 IR Inten    --     34.8926                27.0497                14.1964

 - Thermochemistry -
 -------------------
 Temperature   298.150 Kelvin.  Pressure   1.00000 Atm.
 Atom     1 has atomic number  6 and mass  12.00000

 Molecular mass:   126.06808 amu.
 Principal axes and moments of inertia in atomic units:
                           1         2         3
     Eigenvalues --   630.304871427.946661720.42930
           X            0.99953   0.03025   0.00515
           Y           -0.03041   0.99897   0.03375
           Z           -0.00412  -0.03389   0.99942
 This molecule is an asymmetric top.
 Rotational symmetry number  1.
 Warning -- assumption of classical behavior for rotation
           may cause significant error
 Rotational temperatures (Kelvin)      0.13742     0.06066     0.05034
 Rotational constants (GHZ):           2.86328     1.26387     1.04901
 Zero-point vibrational energy     412940.7 (Joules/Mol)
                                   98.69519 (Kcal/Mol)
 Warning -- explicit consideration of  12 degrees of freedom as
           vibrations may cause significant error
 Vibrational temperatures:     98.32   202.43   264.70   280.59   293.99
          (Kelvin)            371.78   447.73   509.27   581.03   717.53
                              761.21   852.27   925.55  1021.81  1097.28
                             1187.53  1236.45  1309.49  1405.60  1449.80
                             1465.53  1487.64  1520.08  1584.85  1640.97
                             1659.39  1662.85  1687.11  1702.40  1737.60
                             1834.94  1861.31  1950.85  2031.17  2049.92
                             2084.54  2141.07  2142.11  2166.32  2227.73
                             2603.46  4119.60  4357.20  4376.67  4408.56
                             4439.15  4453.53  4459.50  4465.71  4506.10
                             5488.37

 Zero-point correction=                           0.157281 (Hartree/Particle)
 Thermal correction to Energy=                    0.166322
 Thermal correction to Enthalpy=                  0.167266
 Thermal correction to Gibbs Free Energy=         0.123558
 Sum of electronic and zero-point Energies=           -422.988482
 Sum of electronic and thermal Energies=              -422.979441
 Sum of electronic and thermal Enthalpies=            -422.978497
 Sum of electronic and thermal Free Energies=         -423.022205

                     E (Thermal)             CV                S
                      KCal/Mol        Cal/Mol-Kelvin    Cal/Mol-Kelvin
 Total                  104.369             33.892             91.991
 Electronic               0.000              0.000              0.000
 Translational            0.889              2.981             40.409
 Rotational               0.889              2.981             28.828
 Vibrational            102.591             27.930             22.754
 Vibration     1          0.598              1.969              4.201
 Vibration     2          0.615              1.913              2.794
 Vibration     3          0.631              1.862              2.288
 Vibration     4          0.636              1.847              2.180
 Vibration     5          0.640              1.834              2.094
 Vibration     6          0.667              1.749              1.673
 Vibration     7          0.700              1.652              1.356
 Vibration     8          0.730              1.567              1.149
 Vibration     9          0.769              1.462              0.949
 Vibration    10          0.854              1.253              0.661
 Vibration    11          0.884              1.186              0.589
 Vibration    12          0.950              1.048              0.463

 Normal termination of Gaussian 09 at Mon Jan 27 22:46:24 2020.
