 Gaussian 09, Revision D.01,
 Gaussian 09:  ES64L-G09RevD.01 24-Apr-2013

 -----------------------------
 # b3lyp 6-31G(2df,p) opt Freq
 -----------------------------

 -----
 titel
 -----
 Symbolic Z-matrix:
 Charge =  0 Multiplicity = 1

 SCF Done:  E(RB3LYP) =  -423.178927211     A.U. after   14 cycles
 Optimization completed.
    -- Stationary point found.
 Normal termination of Gaussian 09 at Tue Jan 28 01:53:11 2020.

 ----------------------------------------------------------------------
 #N Geom=AllCheck Guess=TCheck SCRF=Check GenChk RB3LYP/6-31G(2df,p) Fr
 eq
 ----------------------------------------------------------------------

 Structure from the checkpoint file:  "/scratch/puck/g09_fab23921-1e7c-42fb-aadc-a39fe6e6366f/Gau-190622.chk"
 -----
 titel
 -----
 Charge =  0 Multiplicity = 1

                         Standard orientation:
 ---------------------------------------------------------------------
 Center     Atomic      Atomic             Coordinates (Angstroms)
 Number     Number       Type             X           Y           Z
 ---------------------------------------------------------------------
      1          6           0        2.588001   -0.922129   -0.523965
      2          6           0        1.648775   -0.285297    0.495546
      3          6           0        0.319553   -1.037867    0.859831
      4          6           0       -0.480371    0.166958    0.348261
      5          6           0       -1.796694    0.754563    0.820669
      6          6           0       -1.738644    0.137651   -0.524472
      7          8           0       -2.403835   -1.073172   -0.680733
      8          6           0        0.778034    0.887784   -0.013572
      9          8           0        1.019095    1.944970   -0.532295
     10          1           0        2.041754   -1.246817   -1.416567
     11          1           0        3.350845   -0.205415   -0.842493
     12          1           0        3.093778   -1.797051   -0.103227
     13          1           0        2.209906    0.018295    1.386971
     14          1           0        0.156654   -1.956227    0.288066
     15          1           0        0.198587   -1.263355    1.921497
     16          1           0       -2.319913    0.195695    1.589508
     17          1           0       -1.857669    1.835072    0.895077
     18          1           0       -1.726868    0.796152   -1.392448
     19          1           0       -1.981079   -1.560713   -1.395952
 ---------------------------------------------------------------------

 SCF Done:  E(RB3LYP) =  -423.178927211     A.U. after    1 cycles

 The electronic state is 1-A.
 Alpha  occ. eigenvalues --  -19.15958 -19.12665 -10.25761 -10.25203 -10.19915
 Alpha  occ. eigenvalues --  -10.19841 -10.19510 -10.19193 -10.18450  -1.04552
 Alpha  occ. eigenvalues --   -1.03419  -0.87463  -0.81421  -0.71741  -0.63016
 Alpha  occ. eigenvalues --   -0.60809  -0.59855  -0.53770  -0.52195  -0.47433
 Alpha  occ. eigenvalues --   -0.45909  -0.44702  -0.42830  -0.41112  -0.39747
 Alpha  occ. eigenvalues --   -0.39134  -0.37400  -0.36584  -0.34648  -0.34170
 Alpha  occ. eigenvalues --   -0.32781  -0.29997  -0.26325  -0.23048
 Alpha virt. eigenvalues --   -0.01744   0.05943   0.10289   0.10699   0.11579
 Alpha virt. eigenvalues --    0.12709   0.14683   0.15133   0.15780   0.16393
 Alpha virt. eigenvalues --    0.17744   0.18319   0.18742   0.20972   0.22990

 Mulliken charges:
               1
     1  C   -0.398637
     2  C   -0.092798
     3  C   -0.347664
     4  C    0.194241
     5  C   -0.359894
     6  C    0.058982
     7  O   -0.407475
     8  C    0.330536
     9  O   -0.328925
    10  H    0.112006
    11  H    0.136312
    12  H    0.120273
    13  H    0.101609
    14  H    0.097790
    15  H    0.110045
    16  H    0.134076
    17  H    0.136228
    18  H    0.110192
    19  H    0.293104
 Sum of Mulliken charges =   0.00000

 Dipole moment (field-independent basis, Debye):
    X=             -0.0357    Y=             -2.2935    Z=              0.2199  Tot=              2.3043
 Quadrupole moment (field-independent basis, Debye-Ang):
   XX=            -56.1108   YY=            -57.0951   ZZ=            -49.3366
   XY=             -4.7470   XZ=              2.0273   YZ=              3.9901

  Exact polarizability:  91.977  -1.477  75.842  -1.392  -0.933  67.089
 Approx polarizability: 122.870   5.776 117.328  -1.312  -4.351 102.177

                      1                      2                      3
                      A                      A                      A
 Frequencies --     43.2614               116.3334               164.6657
 Red. masses --      3.2574                 4.8769                 3.5943
 Frc consts  --      0.0036                 0.0389                 0.0574
 IR Inten    --      0.4979                 3.3659                 4.2174

                      4                      5                      6
                      A                      A                      A
 Frequencies --    199.4568               210.2000               223.1079
 Red. masses --      2.8694                 1.1162                 3.3870
 Frc consts  --      0.0673                 0.0291                 0.0993
 IR Inten    --      1.7309                 1.6463                 4.8264

                      7                      8                      9
                      A                      A                      A
 Frequencies --    311.1607               327.9256               389.4921
 Red. masses --      1.4705                 1.8233                 2.4807
 Frc consts  --      0.0839                 0.1155                 0.2217
 IR Inten    --     85.5405                51.0125                 2.7983

                     10                     11                     12
                      A                      A                      A
 Frequencies --    458.7189               544.1695               561.8881
 Red. masses --      2.4871                 3.7224                 4.2384
 Frc consts  --      0.3083                 0.6494                 0.7884
 IR Inten    --      6.9716                 6.3326                 8.4708

                     13                     14                     15
                      A                      A                      A
 Frequencies --    698.1834               724.5405               787.9016
 Red. masses --      2.7951                 4.6374                 3.8781
 Frc consts  --      0.8028                 1.4343                 1.4184
 IR Inten    --      1.8913                 2.2054                24.6299

                     16                     17                     18
                      A                      A                      A
 Frequencies --    819.6458               867.5090               901.4639
 Red. masses --      2.3596                 2.0824                 1.5940
 Frc consts  --      0.9340                 0.9233                 0.7632
 IR Inten    --      1.9720                25.7965                 9.3887

                     19                     20                     21
                      A                      A                      A
 Frequencies --    906.8182               959.3255              1007.3927
 Red. masses --      1.5687                 1.8761                 2.1200
 Frc consts  --      0.7601                 1.0173                 1.2676
 IR Inten    --      3.6623                46.4964                34.0132

                     22                     23                     24
                      A                      A                      A
 Frequencies --   1057.5798              1070.5933              1090.9184
 Red. masses --      1.3819                 1.5605                 1.8444
 Frc consts  --      0.9107                 1.0538                 1.2933
 IR Inten    --      6.0265                 5.7730                20.0866

                     25                     26                     27
                      A                      A                      A
 Frequencies --   1111.2357              1121.2207              1166.9524
 Red. masses --      1.7165                 1.7080                 1.9659
 Frc consts  --      1.2489                 1.2651                 1.5773
 IR Inten    --      3.7991                16.1943                20.7504

                     28                     29                     30
                      A                      A                      A
 Frequencies --   1186.1705              1197.7605              1238.0923
 Red. masses --      1.9361                 1.8745                 1.8464
 Frc consts  --      1.6050                 1.5844                 1.6676
 IR Inten    --      9.1896                18.5725                15.5314

                     31                     32                     33
                      A                      A                      A
 Frequencies --   1248.3228              1282.5336              1317.8265
 Red. masses --      1.5870                 1.3083                 1.7984
 Frc consts  --      1.4571                 1.2679                 1.8402
 IR Inten    --     10.4350               179.4232                10.6673

                     34                     35                     36
                      A                      A                      A
 Frequencies --   1338.3393              1405.8944              1427.0883
 Red. masses --      1.9867                 1.2187                 1.2265
 Frc consts  --      2.0966                 1.4192                 1.4717
 IR Inten    --     21.2103                 1.8124                 2.8276

                     37                     38                     39
                      A                      A                      A
 Frequencies --   1483.3281              1488.9183              1495.7011
 Red. masses --      1.9332                 1.0934                 1.0549
 Frc consts  --      2.5061                 1.4281                 1.3904
 IR Inten    --     36.2395                 0.9452                 1.1386

                     40                     41                     42
                      A                      A                      A
 Frequencies --   1496.2632              1864.4662              3031.7203
 Red. masses --      1.0550                12.6509                 1.0354
 Frc consts  --      1.3916                25.9108                 5.6070
 IR Inten    --      4.4778               259.6004                24.0879

                     43                     44                     45
                      A                      A                      A
 Frequencies --   3044.1101              3057.4010              3098.0774
 Red. masses --      1.0832                 1.0601                 1.1014
 Frc consts  --      5.9142                 5.8383                 6.2283
 IR Inten    --      9.3601                27.4563                24.0314

                     46                     47                     48
                      A                      A                      A
 Frequencies --   3109.3496              3111.6432              3111.8168
 Red. masses --      1.1042                 1.0878                 1.1025
 Frc consts  --      6.2896                 6.2056                 6.2903
 IR Inten    --     20.5965                21.4130                19.4220

                     49                     50                     51
                      A                      A                      A
 Frequencies --   3131.6338              3226.5084              3804.7282
 Red. masses --      1.0540                 1.1177                 1.0661
 Frc consts  --      6.0902                 6.8557                 9.0928
 IR Inten    --      6.0821                 2.0391                23.3707

 - Thermochemistry -
 -------------------
 Temperature   298.150 Kelvin.  Pressure   1.00000 Atm.
 Atom     1 has atomic number  6 and mass  12.00000

 Molecular mass:   126.06808 amu.
 Principal axes and moments of inertia in atomic units:
                           1         2         3
     Eigenvalues --   684.085031465.673341752.87953
           X            0.99859  -0.05213  -0.01001
           Y            0.05238   0.99824   0.02767
           Z            0.00855  -0.02816   0.99957
 This molecule is an asymmetric top.
 Rotational symmetry number  1.
 Warning -- assumption of classical behavior for rotation
           may cause significant error
 Rotational temperatures (Kelvin)      0.12661     0.05909     0.04941
 Rotational constants (GHZ):           2.63818     1.23134     1.02959
 Zero-point vibrational energy     412947.0 (Joules/Mol)
                                   98.69671 (Kcal/Mol)
 Warning -- explicit consideration of  12 degrees of freedom as
           vibrations may cause significant error
 Vibrational temperatures:     62.24   167.38   236.92   286.97   302.43
          (Kelvin)            321.00   447.69   471.81   560.39   659.99
                              782.94   808.43  1004.53  1042.45  1133.61
                             1179.29  1248.15  1297.00  1304.71  1380.25
                             1449.41  1521.62  1540.34  1569.59  1598.82
                             1613.18  1678.98  1706.63  1723.31  1781.34
                             1796.06  1845.28  1896.06  1925.57  2022.77
                             2053.26  2134.18  2142.22  2151.98  2152.79
                             2682.55  4361.96  4379.79  4398.91  4457.44
                             4473.65  4476.95  4477.20  4505.72  4642.22
                             5474.15

 Zero-point correction=                           0.157283 (Hartree/Particle)
 Thermal correction to Energy=                    0.166560
 Thermal correction to Enthalpy=                  0.167505
 Thermal correction to Gibbs Free Energy=         0.122827
 Sum of electronic and zero-point Energies=           -423.021644
 Sum of electronic and thermal Energies=              -423.012367
 Sum of electronic and thermal Enthalpies=            -423.011423
 Sum of electronic and thermal Free Energies=         -423.056100

                     E (Thermal)             CV                S
                      KCal/Mol        Cal/Mol-Kelvin    Cal/Mol-Kelvin
 Total                  104.518             34.248             94.032
 Electronic               0.000              0.000              0.000
 Translational            0.889              2.981             40.409
 Rotational               0.889              2.981             28.954
 Vibrational            102.741             28.286             24.670
 Vibration     1          0.595              1.980              5.104
 Vibration     2          0.608              1.936              3.160
 Vibration     3          0.623              1.886              2.496
 Vibration     4          0.638              1.841              2.138
 Vibration     5          0.642              1.825              2.042
 Vibration     6          0.649              1.806              1.934
 Vibration     7          0.700              1.652              1.356
 Vibration     8          0.711              1.620              1.270
 Vibration     9          0.757              1.493              1.002
 Vibration    10          0.817              1.342              0.770
 Vibration    11          0.899              1.152              0.556
 Vibration    12          0.918              1.114              0.520

 Normal termination of Gaussian 09 at Tue Jan 28 02:39:58 2020.
