 Gaussian 09, Revision D.01,
 Gaussian 09:  ES64L-G09RevD.01 24-Apr-2013

 -----------------------------
 # b3lyp 6-31G(2df,p) opt Freq
 -----------------------------

 -----
 titel
 -----
 Symbolic Z-matrix:
 Charge =  0 Multiplicity = 1

 SCF Done:  E(RB3LYP) =  -423.118015797     A.U. after   13 cycles
 Optimization completed.
    -- Stationary point found.
 Normal termination of Gaussian 09 at Tue Jan 28 09:53:49 2020.

 ----------------------------------------------------------------------
 #N Geom=AllCheck Guess=TCheck SCRF=Check GenChk RB3LYP/6-31G(2df,p) Fr
 eq
 ----------------------------------------------------------------------

 Structure from the checkpoint file:  "/scratch/puck/g09_697e7c25-3afa-42c4-b529-ed38a4deab4a/Gau-96649.chk"
 -----
 titel
 -----
 Charge =  0 Multiplicity = 1

                         Standard orientation:
 ---------------------------------------------------------------------
 Center     Atomic      Atomic             Coordinates (Angstroms)
 Number     Number       Type             X           Y           Z
 ---------------------------------------------------------------------
      1          6           0       -2.899698   -0.168604   -0.448189
      2          8           0       -1.975929   -0.288720    0.621599
      3          6           0       -0.670031   -0.110111    0.238749
      4          6           0        0.219394   -1.092522   -0.527380
      5          6           0        1.390902   -0.208749   -0.038913
      6          8           0        2.617568   -0.831844    0.084979
      7          6           0        1.206348    1.141292   -0.784524
      8          6           0       -0.060574    1.297377    0.056273
      9          6           0        0.440637    0.347865    1.129553
     10          1           0       -2.837106    0.820508   -0.922379
     11          1           0       -2.731697   -0.936052   -1.216482
     12          1           0       -3.897021   -0.304057   -0.024312
     13          1           0        0.239761   -2.066701   -0.031851
     14          1           0        0.100716   -1.213930   -1.609907
     15          1           0        3.268214   -0.172972    0.350878
     16          1           0        1.968990    1.870854   -0.486123
     17          1           0        1.133783    1.108758   -1.878039
     18          1           0       -0.664575    2.181958    0.209531
     19          1           0        0.523962    0.436866    2.202646
 ---------------------------------------------------------------------

 SCF Done:  E(RB3LYP) =  -423.118015797     A.U. after    1 cycles

 The electronic state is 1-A.
 Alpha  occ. eigenvalues --  -19.14807 -19.14768 -10.24605 -10.23632 -10.22453
 Alpha  occ. eigenvalues --  -10.18918 -10.18363 -10.18052 -10.17771  -1.04462
 Alpha  occ. eigenvalues --   -1.03401  -0.91775  -0.72474  -0.71637  -0.67716
 Alpha  occ. eigenvalues --   -0.61362  -0.55816  -0.53618  -0.53253  -0.47371
 Alpha  occ. eigenvalues --   -0.46192  -0.44706  -0.43889  -0.42535  -0.41257
 Alpha  occ. eigenvalues --   -0.38925  -0.37584  -0.36096  -0.34129  -0.30926
 Alpha  occ. eigenvalues --   -0.28602  -0.26587  -0.24678  -0.23623
 Alpha virt. eigenvalues --    0.07345   0.10246   0.11454   0.11521   0.12897
 Alpha virt. eigenvalues --    0.13826   0.14430   0.14866   0.16124   0.16603
 Alpha virt. eigenvalues --    0.17810   0.18568   0.19096   0.20329   0.21962

 Mulliken charges:
               1
     1  C   -0.258801
     2  O   -0.283224
     3  C    0.461973
     4  C   -0.344249
     5  C    0.392340
     6  O   -0.470887
     7  C   -0.298259
     8  C   -0.137021
     9  C   -0.263454
    10  H    0.110679
    11  H    0.114531
    12  H    0.127161
    13  H    0.111499
    14  H    0.088497
    15  H    0.280878
    16  H    0.087912
    17  H    0.091557
    18  H    0.090356
    19  H    0.098512
 Sum of Mulliken charges =   0.00000

 Dipole moment (field-independent basis, Debye):
    X=              0.1509    Y=              1.4686    Z=             -0.6143  Tot=              1.5990
 Quadrupole moment (field-independent basis, Debye-Ang):
   XX=            -48.4908   YY=            -54.2154   ZZ=            -53.1036
   XY=              3.4436   XZ=              4.1680   YZ=              0.8769

  Exact polarizability:  88.493   2.255  70.824   1.785   0.698  67.177
 Approx polarizability: 116.756   1.466 106.528   2.543  -0.227 105.376

                      1                      2                      3
                      A                      A                      A
 Frequencies --     89.8886               162.0931               172.1875
 Red. masses --      2.8328                 2.9839                 1.0946
 Frc consts  --      0.0135                 0.0462                 0.0191
 IR Inten    --      2.9108                 2.9162                 0.3878

                      4                      5                      6
                      A                      A                      A
 Frequencies --    274.6406               309.2821               341.0794
 Red. masses --      1.8761                 3.2839                 1.6822
 Frc consts  --      0.0834                 0.1851                 0.1153
 IR Inten    --     19.1353                12.0243                67.1565

                      7                      8                      9
                      A                      A                      A
 Frequencies --    381.3697               435.8957               457.2080
 Red. masses --      2.8626                 2.8883                 2.1925
 Frc consts  --      0.2453                 0.3233                 0.2700
 IR Inten    --      3.6884                 8.8106                 0.1670

                     10                     11                     12
                      A                      A                      A
 Frequencies --    478.5569               604.9012               634.3554
 Red. masses --      2.6786                 4.0569                 3.4323
 Frc consts  --      0.3614                 0.8746                 0.8138
 IR Inten    --      2.0387                 4.2823                12.8352

                     13                     14                     15
                      A                      A                      A
 Frequencies --    730.1068               746.4064               821.8013
 Red. masses --      3.7410                 2.8062                 1.2453
 Frc consts  --      1.1749                 0.9211                 0.4955
 IR Inten    --      4.2506                 0.8490                 8.5709

                     16                     17                     18
                      A                      A                      A
 Frequencies --    888.2287               914.9922               929.6289
 Red. masses --      3.3409                 2.1957                 3.1340
 Frc consts  --      1.5530                 1.0831                 1.5957
 IR Inten    --      3.8772                 6.6360                20.2995

                     19                     20                     21
                      A                      A                      A
 Frequencies --    950.4066               968.9796              1003.2894
 Red. masses --      1.2506                 1.6134                 3.3996
 Frc consts  --      0.6656                 0.8926                 2.0162
 IR Inten    --      3.8700                 3.8120                 1.9973

                     22                     23                     24
                      A                      A                      A
 Frequencies --   1034.3413              1070.3511              1088.0651
 Red. masses --      2.4605                 2.0294                 2.7916
 Frc consts  --      1.5509                 1.3698                 1.9472
 IR Inten    --     15.3057                11.6057                60.1311

                     25                     26                     27
                      A                      A                      A
 Frequencies --   1110.9257              1121.1736              1137.0202
 Red. masses --      1.8203                 1.4537                 1.4863
 Frc consts  --      1.3236                 1.0766                 1.1321
 IR Inten    --     18.8252                33.9515                 0.9172

                     28                     29                     30
                      A                      A                      A
 Frequencies --   1180.0551              1186.4182              1200.8468
 Red. masses --      1.3169                 1.6188                 1.8312
 Frc consts  --      1.0805                 1.3425                 1.5558
 IR Inten    --      8.8750                33.5678                31.1943

                     31                     32                     33
                      A                      A                      A
 Frequencies --   1224.8447              1241.8404              1288.0559
 Red. masses --      1.5720                 1.7812                 2.9955
 Frc consts  --      1.3895                 1.6184                 2.9281
 IR Inten    --      0.3801                 0.3608                63.9375

                     34                     35                     36
                      A                      A                      A
 Frequencies --   1328.3088              1394.3629              1401.7368
 Red. masses --      2.6836                 2.2747                 2.6264
 Frc consts  --      2.7897                 2.6057                 3.0405
 IR Inten    --    199.8070                39.7701                91.5313

                     37                     38                     39
                      A                      A                      A
 Frequencies --   1481.3458              1486.9854              1495.2402
 Red. masses --      1.1494                 1.0620                 1.2180
 Frc consts  --      1.4860                 1.3835                 1.6044
 IR Inten    --      2.6752                 5.0878                12.0937

                     40                     41                     42
                      A                      A                      A
 Frequencies --   1506.7442              1515.2869              2995.0288
 Red. masses --      1.0556                 1.2894                 1.0346
 Frc consts  --      1.4120                 1.7443                 5.4677
 IR Inten    --      7.5554                 1.9968                46.6810

                     43                     44                     45
                      A                      A                      A
 Frequencies --   3019.3193              3037.1108              3049.7948
 Red. masses --      1.0559                 1.0614                 1.1030
 Frc consts  --      5.6715                 5.7681                 6.0446
 IR Inten    --     56.4285                32.6944                51.2683

                     46                     47                     48
                      A                      A                      A
 Frequencies --   3072.4173              3109.8228              3123.3442
 Red. masses --      1.1079                 1.1040                 1.0988
 Frc consts  --      6.1617                 6.2907                 6.3153
 IR Inten    --     39.2959                19.1927                30.5016

                     49                     50                     51
                      A                      A                      A
 Frequencies --   3204.0212              3229.4554              3803.7127
 Red. masses --      1.0915                 1.0987                 1.0657
 Frc consts  --      6.6019                 6.7515                 9.0843
 IR Inten    --     11.0006                 2.9730                20.7125

 - Thermochemistry -
 -------------------
 Temperature   298.150 Kelvin.  Pressure   1.00000 Atm.
 Atom     1 has atomic number  6 and mass  12.00000

 Molecular mass:   126.06808 amu.
 Principal axes and moments of inertia in atomic units:
                           1         2         3
     Eigenvalues --   468.872761495.647921613.78871
           X            0.99979   0.01306   0.01580
           Y           -0.01343   0.99963   0.02368
           Z           -0.01548  -0.02389   0.99959
 This molecule is an asymmetric top.
 Rotational symmetry number  1.
 Warning -- assumption of classical behavior for rotation
           may cause significant error
 Rotational temperatures (Kelvin)      0.18473     0.05791     0.05367
 Rotational constants (GHZ):           3.84911     1.20666     1.11833
 Zero-point vibrational energy     415303.2 (Joules/Mol)
                                   99.25985 (Kcal/Mol)
 Warning -- explicit consideration of  11 degrees of freedom as
           vibrations may cause significant error
 Vibrational temperatures:    129.33   233.22   247.74   395.15   444.99
          (Kelvin)            490.74   548.71   627.16   657.82   688.54
                              870.32   912.69  1050.46  1073.91  1182.39
                             1277.96  1316.47  1337.53  1367.42  1394.14
                             1443.51  1488.18  1539.99  1565.48  1598.37
                             1613.12  1635.92  1697.83  1706.99  1727.75
                             1762.28  1786.73  1853.22  1911.14  2006.17
                             2016.78  2131.32  2139.44  2151.31  2167.87
                             2180.16  4309.17  4344.12  4369.72  4387.97
                             4420.52  4474.34  4493.79  4609.87  4646.46
                             5472.69

 Zero-point correction=                           0.158181 (Hartree/Particle)
 Thermal correction to Energy=                    0.166475
 Thermal correction to Enthalpy=                  0.167419
 Thermal correction to Gibbs Free Energy=         0.125592
 Sum of electronic and zero-point Energies=           -422.959835
 Sum of electronic and thermal Energies=              -422.951541
 Sum of electronic and thermal Enthalpies=            -422.950597
 Sum of electronic and thermal Free Energies=         -422.992424

                     E (Thermal)             CV                S
                      KCal/Mol        Cal/Mol-Kelvin    Cal/Mol-Kelvin
 Total                  104.465             32.595             88.033
 Electronic               0.000              0.000              0.000
 Translational            0.889              2.981             40.409
 Rotational               0.889              2.981             28.517
 Vibrational            102.687             26.634             19.108
 Vibration     1          0.602              1.956              3.662
 Vibration     2          0.622              1.889              2.525
 Vibration     3          0.626              1.877              2.411
 Vibration     4          0.677              1.720              1.567
 Vibration     5          0.699              1.656              1.366
 Vibration     6          0.721              1.593              1.207
 Vibration     7          0.751              1.510              1.034
 Vibration     8          0.796              1.392              0.840
 Vibration     9          0.815              1.345              0.774
 Vibration    10          0.835              1.298              0.714
 Vibration    11          0.963              1.021              0.441

 Normal termination of Gaussian 09 at Tue Jan 28 10:37:40 2020.
