 Gaussian 09, Revision D.01,
 Gaussian 09:  ES64L-G09RevD.01 24-Apr-2013

 -----------------------------
 # b3lyp 6-31G(2df,p) opt Freq
 -----------------------------

 -----
 titel
 -----
 Symbolic Z-matrix:
 Charge =  0 Multiplicity = 1

 SCF Done:  E(RB3LYP) =  -423.119425994     A.U. after   14 cycles
 SCF Done:  E(RB3LYP) =  -423.119425944     A.U. after    7 cycles
 SCF Done:  E(RB3LYP) =  -423.119425811     A.U. after    7 cycles
 SCF Done:  E(RB3LYP) =  -423.119426012     A.U. after    7 cycles
 SCF Done:  E(RB3LYP) =  -423.119426008     A.U. after    6 cycles
 Optimization completed.
    -- Stationary point found.
 Normal termination of Gaussian 09 at Tue Jan 28 04:22:01 2020.

 ----------------------------------------------------------------------
 #N Geom=AllCheck Guess=TCheck SCRF=Check GenChk RB3LYP/6-31G(2df,p) Fr
 eq
 ----------------------------------------------------------------------

 Structure from the checkpoint file:  "/scratch/puck/g09_f0ad5687-e9d7-4c68-a630-35faf4d6fb5f/Gau-91913.chk"
 -----
 titel
 -----
 Charge =  0 Multiplicity = 1

                         Standard orientation:
 ---------------------------------------------------------------------
 Center     Atomic      Atomic             Coordinates (Angstroms)
 Number     Number       Type             X           Y           Z
 ---------------------------------------------------------------------
      1          8           0       -1.444721    1.745965   -0.291824
      2          6           0       -1.528356    0.395058   -0.661408
      3          6           0       -2.463845   -0.549657    0.147003
      4          6           0       -1.321297   -1.603662    0.180100
      5          6           0       -0.316140   -0.523656   -0.278127
      6          8           0        0.382386    0.001726    0.844144
      7          6           0        1.494055    0.821893    0.494514
      8          6           0        2.624565    0.065124   -0.047332
      9          6           0        3.551142   -0.555835   -0.494910
     10          1           0       -1.141122    1.749418    0.624624
     11          1           0       -1.738622    0.372572   -1.734303
     12          1           0       -2.675406   -0.137945    1.138158
     13          1           0       -3.409105   -0.835208   -0.319448
     14          1           0       -1.090744   -2.055785    1.146101
     15          1           0       -1.439615   -2.395484   -0.563317
     16          1           0        0.390989   -0.795914   -1.068677
     17          1           0        1.191331    1.601600   -0.217299
     18          1           0        1.795548    1.320791    1.422024
     19          1           0        4.374694   -1.101161   -0.885454
 ---------------------------------------------------------------------

 SCF Done:  E(RB3LYP) =  -423.119426008     A.U. after    1 cycles

 The electronic state is 1-A.
 Alpha  occ. eigenvalues --  -19.15514 -19.13792 -10.25720 -10.22845 -10.22784
 Alpha  occ. eigenvalues --  -10.18745 -10.18245 -10.18200 -10.17894  -1.04840
 Alpha  occ. eigenvalues --   -1.01617  -0.83123  -0.76937  -0.70354  -0.65238
 Alpha  occ. eigenvalues --   -0.64540  -0.56839  -0.54106  -0.51680  -0.50748
 Alpha  occ. eigenvalues --   -0.48059  -0.45547  -0.44742  -0.40795  -0.40643
 Alpha  occ. eigenvalues --   -0.39817  -0.35709  -0.34539  -0.31923  -0.30982
 Alpha  occ. eigenvalues --   -0.28152  -0.27775  -0.27022  -0.24641
 Alpha virt. eigenvalues --    0.02571   0.05153   0.08637   0.09800   0.10708
 Alpha virt. eigenvalues --    0.12221   0.12657   0.14108   0.15940   0.17318
 Alpha virt. eigenvalues --    0.17715   0.18168   0.18502   0.19954   0.22112

 Mulliken charges:
               1
     1  O   -0.431068
     2  C    0.142085
     3  C   -0.259415
     4  C   -0.247735
     5  C    0.079574
     6  O   -0.268221
     7  C   -0.244301
     8  C    0.317233
     9  C   -0.453435
    10  H    0.285444
    11  H    0.089222
    12  H    0.104035
    13  H    0.101743
    14  H    0.115602
    15  H    0.107449
    16  H    0.079125
    17  H    0.141295
    18  H    0.137912
    19  H    0.203453
 Sum of Mulliken charges =   0.00000

 Dipole moment (field-independent basis, Debye):
    X=              0.4530    Y=             -0.8139    Z=             -0.0566  Tot=              0.9332
 Quadrupole moment (field-independent basis, Debye-Ang):
   XX=            -50.5429   YY=            -54.0866   ZZ=            -52.1162
   XY=              1.8584   XZ=             -1.8310   YZ=              4.4592

  Exact polarizability:  96.669  -4.465  71.912  -4.680   5.286  63.352
 Approx polarizability: 125.311 -14.398 107.201 -10.801  10.765 100.277

                      1                      2                      3
                      A                      A                      A
 Frequencies --     51.6499                73.1129                90.4114
 Red. masses --      4.1890                 2.8125                 3.2420
 Frc consts  --      0.0066                 0.0089                 0.0156
 IR Inten    --      1.6772                 3.1983                 1.6407

                      4                      5                      6
                      A                      A                      A
 Frequencies --    172.7394               257.2491               275.7536
 Red. masses --      4.3677                 4.0056                 3.0287
 Frc consts  --      0.0768                 0.1562                 0.1357
 IR Inten    --      2.6297                22.3749                 1.3332

                      7                      8                      9
                      A                      A                      A
 Frequencies --    331.9097               366.9992               400.5114
 Red. masses --      3.1095                 2.9340                 2.6071
 Frc consts  --      0.2018                 0.2328                 0.2464
 IR Inten    --      4.0976                 5.8148                 1.8265

                     10                     11                     12
                      A                      A                      A
 Frequencies --    479.9088               594.6922               598.3094
 Red. masses --      1.2279                 5.7012                 4.1430
 Frc consts  --      0.1666                 1.1880                 0.8738
 IR Inten    --    135.0510                 5.9431                15.4987

                     13                     14                     15
                      A                      A                      A
 Frequencies --    616.8275               682.8926               695.2924
 Red. masses --      1.2071                 1.2708                 1.8703
 Frc consts  --      0.2706                 0.3492                 0.5327
 IR Inten    --     43.9685                35.3160                 0.3559

                     16                     17                     18
                      A                      A                      A
 Frequencies --    733.7146               818.5956               894.8108
 Red. masses --      1.5939                 2.6170                 2.2489
 Frc consts  --      0.5055                 1.0332                 1.0609
 IR Inten    --      2.7490                 7.5468                 4.0308

                     19                     20                     21
                      A                      A                      A
 Frequencies --    929.3682               936.3512               953.1490
 Red. masses --      2.5840                 3.1606                 2.4253
 Frc consts  --      1.3150                 1.6327                 1.2982
 IR Inten    --      4.2730                 8.5378                 9.3303

                     22                     23                     24
                      A                      A                      A
 Frequencies --   1009.5822              1037.6795              1070.7666
 Red. masses --      2.9316                 1.8025                 1.9357
 Frc consts  --      1.7605                 1.1435                 1.3076
 IR Inten    --     24.9158                 7.3646                 3.0284

                     25                     26                     27
                      A                      A                      A
 Frequencies --   1092.4786              1127.3582              1147.1855
 Red. masses --      3.7264                 2.2367                 2.5768
 Frc consts  --      2.6204                 1.6748                 1.9980
 IR Inten    --    130.7641                65.2227               115.7856

                     28                     29                     30
                      A                      A                      A
 Frequencies --   1193.2789              1226.4175              1254.3472
 Red. masses --      1.4028                 1.2495                 1.3522
 Frc consts  --      1.1768                 1.1073                 1.2535
 IR Inten    --     22.4863                 1.8471                 1.5384

                     31                     32                     33
                      A                      A                      A
 Frequencies --   1275.8310              1282.0581              1295.5049
 Red. masses --      1.3410                 1.5047                 1.2931
 Frc consts  --      1.2861                 1.4572                 1.2786
 IR Inten    --      1.5373                 1.2585                15.3095

                     34                     35                     36
                      A                      A                      A
 Frequencies --   1322.9869              1373.7047              1399.5982
 Red. masses --      1.4829                 1.2381                 1.2956
 Frc consts  --      1.5292                 1.3766                 1.4953
 IR Inten    --      7.0929                38.5365                 4.1561

                     37                     38                     39
                      A                      A                      A
 Frequencies --   1435.6178              1468.8695              1486.4485
 Red. masses --      1.2338                 1.0892                 1.0939
 Frc consts  --      1.4982                 1.3846                 1.4241
 IR Inten    --     47.9176                 6.8288                 0.1583

                     40                     41                     42
                      A                      A                      A
 Frequencies --   1488.6459              2234.5442              3018.4814
 Red. masses --      1.1219                 5.8834                 1.0622
 Frc consts  --      1.4648                17.3083                 5.7020
 IR Inten    --     13.1903                 2.8796                20.8489

                     43                     44                     45
                      A                      A                      A
 Frequencies --   3047.8833              3060.1070              3070.5938
 Red. masses --      1.0851                 1.0595                 1.0989
 Frc consts  --      5.9393                 5.8457                 6.1047
 IR Inten    --     21.0583                26.4393                10.5663

                     46                     47                     48
                      A                      A                      A
 Frequencies --   3072.6275              3078.2953              3113.9948
 Red. masses --      1.0685                 1.0809                 1.1058
 Frc consts  --      5.9435                 6.0346                 6.3178
 IR Inten    --     25.2184                26.3202                19.9701

                     49                     50                     51
                      A                      A                      A
 Frequencies --   3133.5164              3504.3661              3777.6619
 Red. masses --      1.1071                 1.1630                 1.0650
 Frc consts  --      6.4047                 8.4146                 8.9544
 IR Inten    --     29.2994                59.6908                17.8165

 - Thermochemistry -
 -------------------
 Temperature   298.150 Kelvin.  Pressure   1.00000 Atm.
 Atom     1 has atomic number  8 and mass  15.99491

 Molecular mass:   126.06808 amu.
 Principal axes and moments of inertia in atomic units:
                           1         2         3
     Eigenvalues --   558.228151807.260722109.21690
           X            0.99987   0.01570  -0.00431
           Y           -0.01555   0.99931   0.03387
           Z            0.00484  -0.03379   0.99942
 This molecule is an asymmetric top.
 Rotational symmetry number  1.
 Warning -- assumption of classical behavior for rotation
           may cause significant error
 Rotational temperatures (Kelvin)      0.15516     0.04793     0.04106
 Rotational constants (GHZ):           3.23298     0.99861     0.85565
 Zero-point vibrational energy     413038.7 (Joules/Mol)
                                   98.71862 (Kcal/Mol)
 Warning -- explicit consideration of  13 degrees of freedom as
           vibrations may cause significant error
 Vibrational temperatures:     74.31   105.19   130.08   248.53   370.12
          (Kelvin)            396.75   477.54   528.03   576.25   690.48
                              855.63   860.83   887.48   982.53  1000.37
                             1055.65  1177.77  1287.43  1337.15  1347.20
                             1371.37  1452.56  1492.99  1540.59  1571.83
                             1622.01  1650.54  1716.86  1764.54  1804.72
                             1835.63  1844.59  1863.94  1903.48  1976.45
                             2013.71  2065.53  2113.37  2138.67  2141.83
                             3215.01  4342.92  4385.22  4402.81  4417.89
                             4420.82  4428.97  4480.34  4508.43  5041.99
                             5435.21

 Zero-point correction=                           0.157318 (Hartree/Particle)
 Thermal correction to Energy=                    0.166699
 Thermal correction to Enthalpy=                  0.167643
 Thermal correction to Gibbs Free Energy=         0.122340
 Sum of electronic and zero-point Energies=           -422.962108
 Sum of electronic and thermal Energies=              -422.952727
 Sum of electronic and thermal Enthalpies=            -422.951783
 Sum of electronic and thermal Free Energies=         -422.997086

                     E (Thermal)             CV                S
                      KCal/Mol        Cal/Mol-Kelvin    Cal/Mol-Kelvin
 Total                  104.605             34.668             95.347
 Electronic               0.000              0.000              0.000
 Translational            0.889              2.981             40.409
 Rotational               0.889              2.981             29.144
 Vibrational            102.828             28.706             25.795
 Vibration     1          0.596              1.977              4.753
 Vibration     2          0.599              1.967              4.068
 Vibration     3          0.602              1.956              3.651
 Vibration     4          0.626              1.876              2.405
 Vibration     5          0.667              1.751              1.680
 Vibration     6          0.677              1.718              1.560
 Vibration     7          0.714              1.612              1.251
 Vibration     8          0.740              1.540              1.092
 Vibration     9          0.766              1.469              0.961
 Vibration    10          0.836              1.295              0.710
 Vibration    11          0.952              1.043              0.459
 Vibration    12          0.956              1.035              0.453
 Vibration    13          0.977              0.996              0.422

 Optimization completed.
    -- Stationary point found.
 Normal termination of Gaussian 09 at Tue Jan 28 04:56:17 2020.
