 Gaussian 09, Revision D.01,
 Gaussian 09:  ES64L-G09RevD.01 24-Apr-2013

 -----------------------------
 # b3lyp 6-31G(2df,p) opt Freq
 -----------------------------

 -----
 titel
 -----
 Symbolic Z-matrix:
 Charge =  0 Multiplicity = 1

 SCF Done:  E(RB3LYP) =  -423.165924609     A.U. after   13 cycles
 Optimization completed.
    -- Stationary point found.
 Normal termination of Gaussian 09 at Mon Jan 27 22:50:11 2020.

 ----------------------------------------------------------------------
 #N Geom=AllCheck Guess=TCheck SCRF=Check GenChk RB3LYP/6-31G(2df,p) Fr
 eq
 ----------------------------------------------------------------------

 Structure from the checkpoint file:  "/scratch/puck/g09_a3f84c0e-09ca-4879-ba94-d65b0b631a8d/Gau-183019.chk"
 -----
 titel
 -----
 Charge =  0 Multiplicity = 1

                         Standard orientation:
 ---------------------------------------------------------------------
 Center     Atomic      Atomic             Coordinates (Angstroms)
 Number     Number       Type             X           Y           Z
 ---------------------------------------------------------------------
      1          6           0       -2.139406   -0.848533   -0.182653
      2          6           0       -0.712229   -0.371587   -0.106795
      3          8           0       -0.194930   -0.627986    1.214857
      4          6           0        1.240594   -0.614160    1.155937
      5          6           0        1.580968   -0.490784   -0.317583
      6          6           0        0.919569    0.602224   -1.132498
      7          6           0        0.362865   -0.827048   -1.117328
      8          6           0       -0.361175    1.113178   -0.461434
      9          8           0       -0.311364    2.023359    0.603558
     10          1           0       -2.756958   -0.319506    0.549544
     11          1           0       -2.552104   -0.663907   -1.178309
     12          1           0       -2.199718   -1.920305    0.029358
     13          1           0        1.631172    0.218315    1.754592
     14          1           0        1.620835   -1.552628    1.578602
     15          1           0        2.553163   -0.826115   -0.659940
     16          1           0        1.459480    1.100803   -1.929026
     17          1           0        0.278922   -1.569518   -1.898617
     18          1           0       -1.041667    1.508197   -1.224193
     19          1           0       -0.289889    1.481938    1.404789
 ---------------------------------------------------------------------

 SCF Done:  E(RB3LYP) =  -423.165924609     A.U. after    1 cycles

 The electronic state is 1-A.
 Alpha  occ. eigenvalues --  -19.14526 -19.12431 -10.24008 -10.23207 -10.22676
 Alpha  occ. eigenvalues --  -10.20146 -10.19517 -10.19449 -10.17955  -1.04875
 Alpha  occ. eigenvalues --   -1.00366  -0.88847  -0.77748  -0.70017  -0.66527
 Alpha  occ. eigenvalues --   -0.61717  -0.57987  -0.55264  -0.51440  -0.48847
 Alpha  occ. eigenvalues --   -0.46296  -0.44524  -0.43056  -0.41844  -0.41501
 Alpha  occ. eigenvalues --   -0.38745  -0.38099  -0.36490  -0.32451  -0.32209
 Alpha  occ. eigenvalues --   -0.30282  -0.27702  -0.25307  -0.24632
 Alpha virt. eigenvalues --    0.08730   0.09360   0.11094   0.11507   0.12852
 Alpha virt. eigenvalues --    0.13617   0.15152   0.15435   0.15865   0.16236
 Alpha virt. eigenvalues --    0.18219   0.18392   0.18769   0.20947   0.22007

 Mulliken charges:
               1
     1  C   -0.487283
     2  C    0.353837
     3  O   -0.319430
     4  C   -0.121951
     5  C   -0.071507
     6  C   -0.127822
     7  C   -0.130703
     8  C    0.128383
     9  O   -0.457941
    10  H    0.132659
    11  H    0.121449
    12  H    0.126054
    13  H    0.105149
    14  H    0.106761
    15  H    0.095580
    16  H    0.086582
    17  H    0.091768
    18  H    0.079144
    19  H    0.289270
 Sum of Mulliken charges =   0.00000

 Dipole moment (field-independent basis, Debye):
    X=              0.7970    Y=             -1.6999    Z=             -1.1655  Tot=              2.2098
 Quadrupole moment (field-independent basis, Debye-Ang):
   XX=            -49.7418   YY=            -58.0892   ZZ=            -51.2396
   XY=             -0.4460   XZ=              1.1385   YZ=              0.2784

  Exact polarizability:  78.146  -0.830  70.583   2.158  -1.004  71.703
 Approx polarizability: 107.743  -0.291 108.299   2.990  -0.888 108.715

                      1                      2                      3
                      A                      A                      A
 Frequencies --    160.8861               198.4290               226.5386
 Red. masses --      3.8394                 1.1499                 2.2592
 Frc consts  --      0.0586                 0.0267                 0.0683
 IR Inten    --      5.1379                 0.1712                 2.5298

                      4                      5                      6
                      A                      A                      A
 Frequencies --    272.0700               305.0809               322.1499
 Red. masses --      5.2081                 2.6689                 2.4555
 Frc consts  --      0.2271                 0.1464                 0.1501
 IR Inten    --     10.0213                 2.0362                 0.2028

                      7                      8                      9
                      A                      A                      A
 Frequencies --    465.9912               523.1663               591.7434
 Red. masses --      1.0729                 3.4533                 4.7143
 Frc consts  --      0.1373                 0.5569                 0.9726
 IR Inten    --     52.4066                 1.5926                 3.1526

                     10                     11                     12
                      A                      A                      A
 Frequencies --    608.1011               660.8810               733.2785
 Red. masses --      3.5629                 5.2367                 4.0301
 Frc consts  --      0.7763                 1.3476                 1.2767
 IR Inten    --      3.1100                 2.0053                 5.1997

                     13                     14                     15
                      A                      A                      A
 Frequencies --    777.5610               815.6295               827.2569
 Red. masses --      2.6076                 2.9189                 2.1106
 Frc consts  --      0.9289                 1.1441                 0.8510
 IR Inten    --      5.9855                11.0059                 9.8596

                     16                     17                     18
                      A                      A                      A
 Frequencies --    868.7823               886.9609               935.7986
 Red. masses --      1.6963                 2.1722                 1.7147
 Frc consts  --      0.7543                 1.0068                 0.8847
 IR Inten    --     15.2917                 6.4591                10.7308

                     19                     20                     21
                      A                      A                      A
 Frequencies --    968.8142               983.9483              1009.2712
 Red. masses --      1.4321                 3.2340                 2.2295
 Frc consts  --      0.7920                 1.8448                 1.3380
 IR Inten    --      8.8082                15.5918                11.6507

                     22                     23                     24
                      A                      A                      A
 Frequencies --   1034.5087              1046.8976              1079.0570
 Red. masses --      3.0603                 1.4233                 1.6887
 Frc consts  --      1.9296                 0.9191                 1.1585
 IR Inten    --     57.7053                 2.5219                16.9152

                     25                     26                     27
                      A                      A                      A
 Frequencies --   1114.2399              1124.1811              1154.6905
 Red. masses --      1.7540                 2.1084                 2.9748
 Frc consts  --      1.2830                 1.5700                 2.3369
 IR Inten    --     44.9470                83.0052                44.4263

                     28                     29                     30
                      A                      A                      A
 Frequencies --   1169.9344              1195.5422              1210.6116
 Red. masses --      2.1819                 1.6521                 1.8108
 Frc consts  --      1.7596                 1.3913                 1.5636
 IR Inten    --      7.1008                17.4747                 1.4279

                     31                     32                     33
                      A                      A                      A
 Frequencies --   1228.5527              1314.6025              1322.8683
 Red. masses --      1.1166                 1.4861                 2.1404
 Frc consts  --      0.9930                 1.5132                 2.2069
 IR Inten    --      0.5734                15.9199                 2.2975

                     34                     35                     36
                      A                      A                      A
 Frequencies --   1336.7365              1372.4087              1411.6360
 Red. masses --      2.1761                 1.6896                 1.8448
 Frc consts  --      2.2910                 1.8749                 2.1659
 IR Inten    --     15.1326                 9.7381                 3.0968

                     37                     38                     39
                      A                      A                      A
 Frequencies --   1412.9413              1425.4937              1482.1173
 Red. masses --      1.4507                 1.3388                 1.0524
 Frc consts  --      1.7064                 1.6029                 1.3621
 IR Inten    --     12.0717                72.4955                 6.7573

                     40                     41                     42
                      A                      A                      A
 Frequencies --   1491.8240              1524.7667              3013.9623
 Red. masses --      1.0514                 1.0889                 1.0559
 Frc consts  --      1.3786                 1.4916                 5.6514
 IR Inten    --      2.3039                 0.4359                73.4167

                     43                     44                     45
                      A                      A                      A
 Frequencies --   3040.8013              3046.7964              3049.3145
 Red. masses --      1.0407                 1.0845                 1.1042
 Frc consts  --      5.6695                 5.9317                 6.0490
 IR Inten    --     12.0221                48.3536                28.6395

                     46                     47                     48
                      A                      A                      A
 Frequencies --   3113.2688              3119.7034              3177.0035
 Red. masses --      1.1017                 1.1015                 1.0907
 Frc consts  --      6.2913                 6.3165                 6.4864
 IR Inten    --     14.4364                16.1597                12.5656

                     49                     50                     51
                      A                      A                      A
 Frequencies --   3186.7574              3213.1191              3741.4230
 Red. masses --      1.0903                 1.0973                 1.0649
 Frc consts  --      6.5234                 6.6744                 8.7825
 IR Inten    --     16.8054                 9.3258                36.1860

 - Thermochemistry -
 -------------------
 Temperature   298.150 Kelvin.  Pressure   1.00000 Atm.
 Atom     1 has atomic number  6 and mass  12.00000

 Molecular mass:   126.06808 amu.
 Principal axes and moments of inertia in atomic units:
                           1         2         3
     Eigenvalues --   825.13228 921.991111042.60307
           X            0.99707   0.06242   0.04430
           Y           -0.06278   0.99801   0.00671
           Z           -0.04379  -0.00947   0.99900
 This molecule is an asymmetric top.
 Rotational symmetry number  1.
 Warning -- assumption of classical behavior for rotation
           may cause significant error
 Rotational temperatures (Kelvin)      0.10497     0.09394     0.08307
 Rotational constants (GHZ):           2.18721     1.95744     1.73100
 Zero-point vibrational energy     420476.0 (Joules/Mol)
                                  100.49618 (Kcal/Mol)
 Warning -- explicit consideration of  10 degrees of freedom as
           vibrations may cause significant error
 Vibrational temperatures:    231.48   285.49   325.94   391.45   438.94
          (Kelvin)            463.50   670.46   752.72   851.39   874.92
                              950.86  1055.02  1118.74  1173.51  1190.24
                             1249.98  1276.14  1346.40  1393.91  1415.68
                             1452.11  1488.43  1506.25  1552.52  1603.14
                             1617.44  1661.34  1683.27  1720.12  1741.80
                             1767.61  1891.42  1903.31  1923.26  1974.59
                             2031.03  2032.90  2050.96  2132.43  2146.40
                             2193.80  4336.41  4375.03  4383.66  4387.28
                             4479.29  4488.55  4570.99  4585.03  4622.96
                             5383.07

 Zero-point correction=                           0.160151 (Hartree/Particle)
 Thermal correction to Energy=                    0.167771
 Thermal correction to Enthalpy=                  0.168715
 Thermal correction to Gibbs Free Energy=         0.128624
 Sum of electronic and zero-point Energies=           -423.005774
 Sum of electronic and thermal Energies=              -422.998154
 Sum of electronic and thermal Enthalpies=            -422.997210
 Sum of electronic and thermal Free Energies=         -423.037301

                     E (Thermal)             CV                S
                      KCal/Mol        Cal/Mol-Kelvin    Cal/Mol-Kelvin
 Total                  105.278             30.989             84.379
 Electronic               0.000              0.000              0.000
 Translational            0.889              2.981             40.409
 Rotational               0.889              2.981             28.163
 Vibrational            103.500             25.027             15.807
 Vibration     1          0.622              1.890              2.539
 Vibration     2          0.637              1.842              2.148
 Vibration     3          0.650              1.801              1.906
 Vibration     4          0.675              1.725              1.583
 Vibration     5          0.696              1.664              1.389
 Vibration     6          0.707              1.631              1.299
 Vibration     7          0.823              1.325              0.749
 Vibration     8          0.878              1.199              0.603
 Vibration     9          0.949              1.049              0.464
 Vibration    10          0.967              1.015              0.436

 Normal termination of Gaussian 09 at Mon Jan 27 23:38:54 2020.
