 Gaussian 09, Revision D.01,
 Gaussian 09:  ES64L-G09RevD.01 24-Apr-2013

 -----------------------------
 # b3lyp 6-31G(2df,p) opt Freq
 -----------------------------

 -----
 titel
 -----
 Symbolic Z-matrix:
 Charge =  0 Multiplicity = 1

 SCF Done:  E(RB3LYP) =  -423.120068304     A.U. after   14 cycles
 Optimization completed.
    -- Stationary point found.
 Normal termination of Gaussian 09 at Mon Jan 27 16:21:18 2020.

 ----------------------------------------------------------------------
 #N Geom=AllCheck Guess=TCheck SCRF=Check GenChk RB3LYP/6-31G(2df,p) Fr
 eq
 ----------------------------------------------------------------------

 Structure from the checkpoint file:  "/scratch/puck/g09_7b747eaa-f7ed-49ad-b0f3-2f93dfa7cd27/Gau-176874.chk"
 -----
 titel
 -----
 Charge =  0 Multiplicity = 1

                         Standard orientation:
 ---------------------------------------------------------------------
 Center     Atomic      Atomic             Coordinates (Angstroms)
 Number     Number       Type             X           Y           Z
 ---------------------------------------------------------------------
      1          6           0        1.403449    1.509285   -0.334672
      2          6           0        1.088801    0.061023    0.003349
      3          8           0        2.220047   -0.582261    0.584743
      4          6           0        0.425372   -0.831705   -1.110735
      5          6           0       -0.696593   -1.244769   -0.113996
      6          6           0       -1.987793   -0.386866   -0.122973
      7          8           0       -1.631058    0.943615   -0.510026
      8          6           0       -1.413376    0.556690    0.855768
      9          6           0       -0.106343   -0.266810    0.950318
     10          1           0        2.212095    1.557500   -1.075882
     11          1           0        0.531878    2.015575   -0.752025
     12          1           0        1.737024    2.043060    0.561060
     13          1           0        2.943170   -0.526893   -0.050168
     14          1           0        0.073884   -0.288862   -1.989710
     15          1           0        1.073204   -1.656776   -1.415126
     16          1           0       -0.834699   -2.301453    0.109362
     17          1           0       -3.012056   -0.690332   -0.310140
     18          1           0       -1.878862    1.179632    1.611457
     19          1           0        0.161337   -0.603367    1.951082
 ---------------------------------------------------------------------

 SCF Done:  E(RB3LYP) =  -423.120068304     A.U. after    1 cycles

 The electronic state is 1-A.
 Alpha  occ. eigenvalues --  -19.15446 -19.13084 -10.23794 -10.23730 -10.23359
 Alpha  occ. eigenvalues --  -10.18887 -10.18463 -10.17385 -10.16614  -1.07926
 Alpha  occ. eigenvalues --   -1.01465  -0.84041  -0.73576  -0.69861  -0.66089
 Alpha  occ. eigenvalues --   -0.60588  -0.58244  -0.53398  -0.51467  -0.47955
 Alpha  occ. eigenvalues --   -0.46365  -0.44794  -0.42262  -0.41156  -0.40000
 Alpha  occ. eigenvalues --   -0.37954  -0.36380  -0.34797  -0.32771  -0.32288
 Alpha  occ. eigenvalues --   -0.29498  -0.27353  -0.25537  -0.24842
 Alpha virt. eigenvalues --    0.07071   0.07706   0.08977   0.11131   0.13119
 Alpha virt. eigenvalues --    0.13826   0.14992   0.15699   0.16257   0.16650
 Alpha virt. eigenvalues --    0.17883   0.18186   0.19087   0.20966   0.22195

 Mulliken charges:
               1
     1  C   -0.462265
     2  C    0.417031
     3  O   -0.483365
     4  C   -0.301880
     5  C   -0.056722
     6  C    0.010345
     7  O   -0.236123
     8  C   -0.001519
     9  C   -0.083697
    10  H    0.099166
    11  H    0.144589
    12  H    0.116770
    13  H    0.271753
    14  H    0.107126
    15  H    0.093363
    16  H    0.076928
    17  H    0.102829
    18  H    0.104804
    19  H    0.080868
 Sum of Mulliken charges =   0.00000

 Dipole moment (field-independent basis, Debye):
    X=             -0.0542    Y=             -0.6521    Z=             -0.0695  Tot=              0.6580
 Quadrupole moment (field-independent basis, Debye-Ang):
   XX=            -49.4672   YY=            -53.8930   ZZ=            -53.1300
   XY=              2.7409   XZ=             -5.2280   YZ=              2.5681

  Exact polarizability:  82.743   1.274  71.103  -1.670   3.393  67.687
 Approx polarizability: 111.566  -0.481 107.044   1.963   2.856 107.900

                      1                      2                      3
                      A                      A                      A
 Frequencies --    136.9879               200.8114               245.8997
 Red. masses --      3.3507                 3.6170                 1.0640
 Frc consts  --      0.0370                 0.0859                 0.0379
 IR Inten    --      0.6634                 3.7292                 0.5612

                      4                      5                      6
                      A                      A                      A
 Frequencies --    278.2938               313.6665               346.1760
 Red. masses --      1.5914                 2.1084                 2.5022
 Frc consts  --      0.0726                 0.1222                 0.1767
 IR Inten    --     48.9412                37.6135                 2.3228

                      7                      8                      9
                      A                      A                      A
 Frequencies --    374.7668               387.7412               499.1146
 Red. masses --      3.0940                 3.3197                 2.1270
 Frc consts  --      0.2560                 0.2941                 0.3122
 IR Inten    --     13.2660                 9.6286                 6.3320

                     10                     11                     12
                      A                      A                      A
 Frequencies --    597.0878               633.2310               740.7395
 Red. masses --      4.0154                 4.1751                 3.5467
 Frc consts  --      0.8435                 0.9864                 1.1466
 IR Inten    --      5.1101                 3.0339                 4.8388

                     13                     14                     15
                      A                      A                      A
 Frequencies --    780.3717               801.7508               827.0697
 Red. masses --      3.6705                 2.8415                 1.8022
 Frc consts  --      1.3170                 1.0762                 0.7263
 IR Inten    --      0.3765                 6.1001                 9.9295

                     16                     17                     18
                      A                      A                      A
 Frequencies --    862.2611               895.9458               903.9856
 Red. masses --      2.1542                 1.8597                 3.0587
 Frc consts  --      0.9436                 0.8795                 1.4727
 IR Inten    --      6.9211                20.3966                14.9117

                     19                     20                     21
                      A                      A                      A
 Frequencies --    924.3309               955.9918               959.7959
 Red. masses --      2.2468                 1.9588                 2.1949
 Frc consts  --      1.1310                 1.0548                 1.1913
 IR Inten    --      2.2928                12.4036                 0.7807

                     22                     23                     24
                      A                      A                      A
 Frequencies --    990.0882              1014.0991              1047.6785
 Red. masses --      1.9751                 2.1331                 1.2617
 Frc consts  --      1.1408                 1.2925                 0.8159
 IR Inten    --      0.6299                10.6087                 1.8482

                     25                     26                     27
                      A                      A                      A
 Frequencies --   1090.8795              1101.8306              1125.6153
 Red. masses --      1.7206                 1.4180                 2.1226
 Frc consts  --      1.2064                 1.0142                 1.5845
 IR Inten    --     12.2151                21.0388                48.6892

                     28                     29                     30
                      A                      A                      A
 Frequencies --   1175.0337              1200.3617              1215.2371
 Red. masses --      2.2649                 1.4124                 1.8357
 Frc consts  --      1.8424                 1.1991                 1.5972
 IR Inten    --     14.3043                10.8021                 1.5177

                     31                     32                     33
                      A                      A                      A
 Frequencies --   1231.6530              1258.3270              1260.6361
 Red. masses --      1.5306                 1.4282                 1.6658
 Frc consts  --      1.3680                 1.3324                 1.5597
 IR Inten    --     12.8292                11.9016                 9.0682

                     34                     35                     36
                      A                      A                      A
 Frequencies --   1274.6034              1302.8813              1364.1959
 Red. masses --      1.9491                 1.7093                 1.9664
 Frc consts  --      1.8657                 1.7096                 2.1561
 IR Inten    --     11.6693                27.3154                 5.8792

                     37                     38                     39
                      A                      A                      A
 Frequencies --   1382.6762              1402.3558              1450.4738
 Red. masses --      2.4898                 1.3104                 1.1387
 Frc consts  --      2.8045                 1.5183                 1.4115
 IR Inten    --     29.1094                12.4784                 3.5270

                     40                     41                     42
                      A                      A                      A
 Frequencies --   1487.5310              1504.0567              3021.6911
 Red. masses --      1.0575                 1.0592                 1.0434
 Frc consts  --      1.3787                 1.4117                 5.6129
 IR Inten    --      3.3650                 3.8131                31.4501

                     43                     44                     45
                      A                      A                      A
 Frequencies --   3067.6006              3089.1140              3120.9208
 Red. masses --      1.0583                 1.0947                 1.0901
 Frc consts  --      5.8677                 6.1548                 6.2560
 IR Inten    --     28.9350                21.3079                11.9158

                     46                     47                     48
                      A                      A                      A
 Frequencies --   3129.1003              3134.4420              3144.2248
 Red. masses --      1.0940                 1.1013                 1.0985
 Frc consts  --      6.3109                 6.3751                 6.3987
 IR Inten    --      5.1433                25.4265                11.9374

                     49                     50                     51
                      A                      A                      A
 Frequencies --   3170.0200              3185.1469              3793.6452
 Red. masses --      1.0871                 1.1015                 1.0658
 Frc consts  --      6.4362                 6.5841                 9.0370
 IR Inten    --     21.6294                31.8737                10.1347

 - Thermochemistry -
 -------------------
 Temperature   298.150 Kelvin.  Pressure   1.00000 Atm.
 Atom     1 has atomic number  6 and mass  12.00000

 Molecular mass:   126.06808 amu.
 Principal axes and moments of inertia in atomic units:
                           1         2         3
     Eigenvalues --   577.575241181.400811329.27132
           X            0.99894   0.03868  -0.02498
           Y           -0.03783   0.99872   0.03370
           Z            0.02625  -0.03272   0.99912
 This molecule is an asymmetric top.
 Rotational symmetry number  1.
 Warning -- assumption of classical behavior for rotation
           may cause significant error
 Rotational temperatures (Kelvin)      0.14996     0.07331     0.06516
 Rotational constants (GHZ):           3.12469     1.52763     1.35769
 Zero-point vibrational energy     415117.0 (Joules/Mol)
                                   99.21534 (Kcal/Mol)
 Warning -- explicit consideration of  10 degrees of freedom as
           vibrations may cause significant error
 Vibrational temperatures:    197.09   288.92   353.79   400.40   451.30
          (Kelvin)            498.07   539.21   557.87   718.11   859.08
                              911.08  1065.76  1122.78  1153.54  1189.97
                             1240.60  1289.06  1300.63  1329.90  1375.46
                             1380.93  1424.51  1459.06  1507.37  1569.53
                             1585.29  1619.51  1690.61  1727.05  1748.45
                             1772.07  1810.45  1813.77  1833.87  1874.55
                             1962.77  1989.36  2017.67  2086.91  2140.22
                             2164.00  4347.53  4413.59  4444.54  4490.30
                             4502.07  4509.76  4523.83  4560.95  4582.71
                             5458.20

 Zero-point correction=                           0.158110 (Hartree/Particle)
 Thermal correction to Energy=                    0.166031
 Thermal correction to Enthalpy=                  0.166976
 Thermal correction to Gibbs Free Energy=         0.126313
 Sum of electronic and zero-point Energies=           -422.961959
 Sum of electronic and thermal Energies=              -422.954037
 Sum of electronic and thermal Enthalpies=            -422.953093
 Sum of electronic and thermal Free Energies=         -422.993755

                     E (Thermal)             CV                S
                      KCal/Mol        Cal/Mol-Kelvin    Cal/Mol-Kelvin
 Total                  104.186             32.202             85.580
 Electronic               0.000              0.000              0.000
 Translational            0.889              2.981             40.409
 Rotational               0.889              2.981             28.297
 Vibrational            102.409             26.241             16.875
 Vibration     1          0.614              1.916              2.846
 Vibration     2          0.638              1.839              2.126
 Vibration     3          0.660              1.770              1.760
 Vibration     4          0.679              1.714              1.544
 Vibration     5          0.702              1.648              1.343
 Vibration     6          0.724              1.583              1.184
 Vibration     7          0.746              1.524              1.060
 Vibration     8          0.756              1.496              1.009
 Vibration     9          0.855              1.252              0.660
 Vibration    10          0.955              1.038              0.455

 Optimization completed.
    -- Stationary point found.
 Normal termination of Gaussian 09 at Mon Jan 27 17:07:29 2020.
 Normal termination of Gaussian 09 at Mon Jan 27 16:14:17 2020.
