 Gaussian 09, Revision D.01,
 Gaussian 09:  ES64L-G09RevD.01 24-Apr-2013

 -----------------------------
 # b3lyp 6-31G(2df,p) opt Freq
 -----------------------------

 -----
 titel
 -----
 Symbolic Z-matrix:
 Charge =  0 Multiplicity = 1

 SCF Done:  E(RB3LYP) =  -423.204178986     A.U. after   14 cycles
 Optimization completed.
    -- Stationary point found.
 Normal termination of Gaussian 09 at Tue Jan 28 08:20:51 2020.

 ----------------------------------------------------------------------
 #N Geom=AllCheck Guess=TCheck SCRF=Check GenChk RB3LYP/6-31G(2df,p) Fr
 eq
 ----------------------------------------------------------------------

 Structure from the checkpoint file:  "/scratch/puck/g09_b283e53e-8a61-4073-a8fa-9afaa885d6a6/Gau-59918.chk"
 -----
 titel
 -----
 Charge =  0 Multiplicity = 1

                         Standard orientation:
 ---------------------------------------------------------------------
 Center     Atomic      Atomic             Coordinates (Angstroms)
 Number     Number       Type             X           Y           Z
 ---------------------------------------------------------------------
      1          8           0       -2.306114   -1.323862   -0.478644
      2          6           0       -2.287564   -0.125068    0.273963
      3          6           0       -1.021393    0.733878    0.124880
      4          8           0       -1.044209    1.889938    0.480509
      5          6           0        0.220210    0.059612   -0.435274
      6          6           0        0.771960   -1.067501    0.496220
      7          6           0        2.311113   -0.997270    0.333933
      8          6           0        2.538077    0.399767   -0.194633
      9          6           0        1.409743    0.974456   -0.603574
     10          1           0       -2.490686   -1.101388   -1.396065
     11          1           0       -3.154416    0.519426    0.077014
     12          1           0       -2.348070   -0.422133    1.328379
     13          1           0       -0.068126   -0.387515   -1.399199
     14          1           0        0.510932   -0.836395    1.534735
     15          1           0        0.345407   -2.042687    0.259020
     16          1           0        2.835757   -1.189528    1.276441
     17          1           0        2.678357   -1.747722   -0.380667
     18          1           0        3.523786    0.847835   -0.255552
     19          1           0        1.316762    1.964248   -1.032121
 ---------------------------------------------------------------------

 SCF Done:  E(RB3LYP) =  -423.204178986     A.U. after    1 cycles

 The electronic state is 1-A.
 Alpha  occ. eigenvalues --  -19.15472 -19.12920 -10.26523 -10.23972 -10.19535
 Alpha  occ. eigenvalues --  -10.18878 -10.18607 -10.17929 -10.17682  -1.04411
 Alpha  occ. eigenvalues --   -1.03049  -0.84510  -0.74152  -0.70959  -0.70182
 Alpha  occ. eigenvalues --   -0.59912  -0.55339  -0.53074  -0.51437  -0.49075
 Alpha  occ. eigenvalues --   -0.46865  -0.45380  -0.43950  -0.41592  -0.38493
 Alpha  occ. eigenvalues --   -0.37486  -0.36105  -0.35491  -0.34807  -0.34178
 Alpha  occ. eigenvalues --   -0.33047  -0.30601  -0.25013  -0.23037
 Alpha virt. eigenvalues --   -0.01522   0.02432   0.05744   0.09777   0.11180
 Alpha virt. eigenvalues --    0.13666   0.14682   0.15262   0.16018   0.17144
 Alpha virt. eigenvalues --    0.18365   0.19164   0.19935   0.20892   0.21839

 Mulliken charges:
               1
     1  O   -0.402415
     2  C   -0.163730
     3  C    0.305692
     4  O   -0.299262
     5  C   -0.110901
     6  C   -0.225268
     7  C   -0.255151
     8  C   -0.079465
     9  C   -0.054137
    10  H    0.291745
    11  H    0.124267
    12  H    0.143978
    13  H    0.082982
    14  H    0.109165
    15  H    0.118459
    16  H    0.106607
    17  H    0.107243
    18  H    0.094733
    19  H    0.105457
 Sum of Mulliken charges =   0.00000

 Dipole moment (field-independent basis, Debye):
    X=             -0.0175    Y=             -1.5229    Z=             -1.3708  Tot=              2.0491
 Quadrupole moment (field-independent basis, Debye-Ang):
   XX=            -48.9962   YY=            -60.5516   ZZ=            -49.6367
   XY=             -0.1481   XZ=              3.2575   YZ=             -1.8630

  Exact polarizability:  93.609  -4.187  76.688   2.231  -2.678  60.491
 Approx polarizability: 123.045 -10.152 121.431   7.135  -1.481  95.819

                      1                      2                      3
                      A                      A                      A
 Frequencies --     51.2796                61.2704                87.7518
 Red. masses --      3.9015                 2.3908                 2.5179
 Frc consts  --      0.0060                 0.0053                 0.0114
 IR Inten    --      0.3050                 6.6061                 0.3857

                      4                      5                      6
                      A                      A                      A
 Frequencies --    150.3699               223.0522               253.9240
 Red. masses --      4.2623                 2.8511                 4.2162
 Frc consts  --      0.0568                 0.0836                 0.1602
 IR Inten    --      1.1462                 1.1112                 7.0908

                      7                      8                      9
                      A                      A                      A
 Frequencies --    308.3175               399.7770               494.7569
 Red. masses --      1.1097                 3.2611                 4.3029
 Frc consts  --      0.0622                 0.3071                 0.6206
 IR Inten    --    140.4587                 2.2525                 3.9661

                     10                     11                     12
                      A                      A                      A
 Frequencies --    534.3484               555.4351               620.3752
 Red. masses --      2.9996                 4.0035                 1.9658
 Frc consts  --      0.5046                 0.7277                 0.4458
 IR Inten    --     13.1912                17.7495                10.1319

                     13                     14                     15
                      A                      A                      A
 Frequencies --    739.3900               778.7645               824.2980
 Red. masses --      1.6244                 3.8155                 2.7611
 Frc consts  --      0.5232                 1.3634                 1.1053
 IR Inten    --     19.7787                 1.9784                 5.6193

                     16                     17                     18
                      A                      A                      A
 Frequencies --    848.8139               916.7268               939.9307
 Red. masses --      1.6253                 2.2703                 2.9246
 Frc consts  --      0.6899                 1.1241                 1.5223
 IR Inten    --      0.6920                 6.4526                 2.4050

                     19                     20                     21
                      A                      A                      A
 Frequencies --    948.5322               973.4350              1008.2175
 Red. masses --      1.9107                 1.2626                 2.2391
 Frc consts  --      1.0129                 0.7049                 1.3410
 IR Inten    --      9.0696                 0.1228                 3.5899

                     22                     23                     24
                      A                      A                      A
 Frequencies --   1036.3289              1073.0356              1090.5403
 Red. masses --      1.9068                 2.3302                 4.8568
 Frc consts  --      1.2066                 1.5808                 3.4032
 IR Inten    --      5.1529                21.7801                67.0420

                     25                     26                     27
                      A                      A                      A
 Frequencies --   1127.4058              1153.8837              1158.3043
 Red. masses --      1.1836                 1.6826                 1.5278
 Frc consts  --      0.8864                 1.3200                 1.2077
 IR Inten    --      9.7620                44.0000                21.8330

                     28                     29                     30
                      A                      A                      A
 Frequencies --   1193.3635              1218.4223              1267.2244
 Red. masses --      1.2223                 1.2714                 1.3885
 Frc consts  --      1.0256                 1.1121                 1.3137
 IR Inten    --     14.2944                 1.2072                 1.5239

                     31                     32                     33
                      A                      A                      A
 Frequencies --   1306.0378              1321.4355              1337.2236
 Red. masses --      1.4620                 1.2803                 1.8378
 Frc consts  --      1.4693                 1.3172                 1.9362
 IR Inten    --      4.9204                 0.5292                15.2274

                     34                     35                     36
                      A                      A                      A
 Frequencies --   1357.8442              1380.8363              1394.9595
 Red. masses --      1.3090                 1.7284                 1.2076
 Frc consts  --      1.4220                 1.9416                 1.3845
 IR Inten    --      4.8704                 1.5745                28.2537

                     37                     38                     39
                      A                      A                      A
 Frequencies --   1462.0285              1484.2645              1500.1911
 Red. masses --      1.0721                 1.0839                 1.0960
 Frc consts  --      1.3502                 1.4069                 1.4533
 IR Inten    --      6.8070                 0.8490                 1.0917

                     40                     41                     42
                      A                      A                      A
 Frequencies --   1688.4083              1803.4422              2983.0112
 Red. masses --      6.5174                12.1928                 1.0796
 Frc consts  --     10.9466                23.3645                 5.6599
 IR Inten    --      0.5981               134.7306                25.3144

                     43                     44                     45
                      A                      A                      A
 Frequencies --   3007.2597              3020.1035              3043.6194
 Red. masses --      1.0690                 1.0591                 1.0738
 Frc consts  --      5.6959                 5.6917                 5.8609
 IR Inten    --     41.9818                23.6182                11.9599

                     46                     47                     48
                      A                      A                      A
 Frequencies --   3061.3917              3067.6277              3125.7207
 Red. masses --      1.0867                 1.1025                 1.0971
 Frc consts  --      6.0009                 6.1128                 6.3155
 IR Inten    --     34.4314                18.9033                18.5006

                     49                     50                     51
                      A                      A                      A
 Frequencies --   3189.4935              3222.7926              3827.1826
 Red. masses --      1.0870                 1.1017                 1.0666
 Frc consts  --      6.5152                 6.7421                 9.2048
 IR Inten    --      9.3094                12.3426                29.4132

 - Thermochemistry -
 -------------------
 Temperature   298.150 Kelvin.  Pressure   1.00000 Atm.
 Atom     1 has atomic number  8 and mass  15.99491

 Molecular mass:   126.06808 amu.
 Principal axes and moments of inertia in atomic units:
                           1         2         3
     Eigenvalues --   633.491241547.640821960.95600
           X            0.99997  -0.00601   0.00393
           Y            0.00613   0.99957  -0.02872
           Z           -0.00376   0.02875   0.99958
 This molecule is an asymmetric top.
 Rotational symmetry number  1.
 Warning -- assumption of classical behavior for rotation
           may cause significant error
 Rotational temperatures (Kelvin)      0.13672     0.05597     0.04417
 Rotational constants (GHZ):           2.84888     1.16612     0.92034
 Zero-point vibrational energy     416432.9 (Joules/Mol)
                                   99.52986 (Kcal/Mol)
 Warning -- explicit consideration of  12 degrees of freedom as
           vibrations may cause significant error
 Vibrational temperatures:     73.78    88.15   126.26   216.35   320.92
          (Kelvin)            365.34   443.60   575.19   711.84   768.81
                              799.15   892.58  1063.82  1120.47  1185.98
                             1221.25  1318.96  1352.35  1364.72  1400.55
                             1450.60  1491.04  1543.86  1569.04  1622.08
                             1660.18  1666.54  1716.98  1753.04  1823.25
                             1879.09  1901.25  1923.96  1953.63  1986.71
                             2007.03  2103.53  2135.52  2158.44  2429.24
                             2594.75  4291.88  4326.77  4345.25  4379.08
                             4404.65  4413.63  4497.21  4588.96  4636.87
                             5506.46

 Zero-point correction=                           0.158611 (Hartree/Particle)
 Thermal correction to Energy=                    0.167784
 Thermal correction to Enthalpy=                  0.168728
 Thermal correction to Gibbs Free Energy=         0.123471
 Sum of electronic and zero-point Energies=           -423.045568
 Sum of electronic and thermal Energies=              -423.036395
 Sum of electronic and thermal Enthalpies=            -423.035451
 Sum of electronic and thermal Free Energies=         -423.080708

                     E (Thermal)             CV                S
                      KCal/Mol        Cal/Mol-Kelvin    Cal/Mol-Kelvin
 Total                  105.286             33.067             95.252
 Electronic               0.000              0.000              0.000
 Translational            0.889              2.981             40.409
 Rotational               0.889              2.981             29.043
 Vibrational            103.508             27.105             25.800
 Vibration     1          0.596              1.977              4.767
 Vibration     2          0.597              1.973              4.416
 Vibration     3          0.601              1.958              3.710
 Vibration     4          0.618              1.902              2.668
 Vibration     5          0.649              1.806              1.934
 Vibration     6          0.665              1.756              1.703
 Vibration     7          0.698              1.658              1.371
 Vibration     8          0.766              1.471              0.963
 Vibration     9          0.850              1.262              0.671
 Vibration    10          0.889              1.174              0.578
 Vibration    11          0.911              1.128              0.533
 Vibration    12          0.980              0.989              0.416

 Optimization completed.
    -- Stationary point found.
 Normal termination of Gaussian 09 at Tue Jan 28 10:12:19 2020.
