 Gaussian 09, Revision D.01,
 Gaussian 09:  ES64L-G09RevD.01 24-Apr-2013

 -----------------------------
 # b3lyp 6-31G(2df,p) opt Freq
 -----------------------------

 -----
 titel
 -----
 Symbolic Z-matrix:
 Charge =  0 Multiplicity = 1

 SCF Done:  E(RB3LYP) =  -423.208687987     A.U. after   14 cycles
 Optimization completed.
    -- Stationary point found.
 Normal termination of Gaussian 09 at Mon Jan 27 10:18:17 2020.

 ----------------------------------------------------------------------
 #N Geom=AllCheck Guess=TCheck SCRF=Check GenChk RB3LYP/6-31G(2df,p) Fr
 eq
 ----------------------------------------------------------------------

 Structure from the checkpoint file:  "/scratch/puck/g09_cf6df317-305c-4cdb-bb1e-d74c2ce664e7/Gau-91828.chk"
 -----
 titel
 -----
 Charge =  0 Multiplicity = 1

                         Standard orientation:
 ---------------------------------------------------------------------
 Center     Atomic      Atomic             Coordinates (Angstroms)
 Number     Number       Type             X           Y           Z
 ---------------------------------------------------------------------
      1          6           0        2.832913   -0.938345   -0.504617
      2          6           0        1.742088   -0.835641    0.575052
      3          6           0        0.690834    0.188512    0.269005
      4          6           0       -0.599130   -0.047906   -0.096991
      5          8           0       -1.235548   -1.202900   -0.333837
      6          6           0       -2.552864   -1.315940    0.211526
      7          8           0       -1.284480    1.107871   -0.312303
      8          6           0       -0.401095    2.127482   -0.073691
      9          6           0        0.808908    1.626296    0.271037
     10          1           0        3.348101    0.018415   -0.638863
     11          1           0        3.582396   -1.688937   -0.233364
     12          1           0        2.400105   -1.219861   -1.469417
     13          1           0        1.255883   -1.809710    0.694286
     14          1           0        2.213394   -0.602629    1.538697
     15          1           0       -2.893715   -2.324034   -0.028250
     16          1           0       -2.536874   -1.179482    1.299393
     17          1           0       -3.229322   -0.582073   -0.236188
     18          1           0       -0.799808    3.121831   -0.181102
     19          1           0        1.690137    2.199962    0.516008
 ---------------------------------------------------------------------

 SCF Done:  E(RB3LYP) =  -423.208687987     A.U. after    1 cycles

 The electronic state is 1-A.
 Alpha  occ. eigenvalues --  -19.19569 -19.17198 -10.26703 -10.23694 -10.21833
 Alpha  occ. eigenvalues --  -10.18152 -10.17327 -10.17218 -10.16921  -1.11453
 Alpha  occ. eigenvalues --   -1.05147  -0.80892  -0.74938  -0.73700  -0.68541
 Alpha  occ. eigenvalues --   -0.62778  -0.58206  -0.55358  -0.51395  -0.47897
 Alpha  occ. eigenvalues --   -0.46993  -0.45473  -0.43514  -0.43087  -0.41353
 Alpha  occ. eigenvalues --   -0.38836  -0.37630  -0.36692  -0.35632  -0.34248
 Alpha  occ. eigenvalues --   -0.33063  -0.30602  -0.26010  -0.19653
 Alpha virt. eigenvalues --    0.03116   0.07828   0.10000   0.11563   0.12486
 Alpha virt. eigenvalues --    0.14462   0.15180   0.15753   0.16292   0.16649
 Alpha virt. eigenvalues --    0.16761   0.18068   0.18643   0.20385   0.23525

 Mulliken charges:
               1
     1  C   -0.363795
     2  C   -0.303551
     3  C    0.123685
     4  C    0.347933
     5  O   -0.268530
     6  C   -0.252804
     7  O   -0.189800
     8  C   -0.020586
     9  C   -0.266824
    10  H    0.115090
    11  H    0.108274
    12  H    0.122099
    13  H    0.108235
    14  H    0.101553
    15  H    0.136090
    16  H    0.124417
    17  H    0.139927
    18  H    0.131575
    19  H    0.107014
 Sum of Mulliken charges =   0.00000

 Dipole moment (field-independent basis, Debye):
    X=             -0.6048    Y=              0.0328    Z=              0.8178  Tot=              1.0177
 Quadrupole moment (field-independent basis, Debye-Ang):
   XX=            -48.0245   YY=            -49.8760   ZZ=            -54.9023
   XY=              2.3862   XZ=             -0.2183   YZ=             -0.7803

  Exact polarizability:  96.016   1.928  88.465   4.263  -1.296  54.187
 Approx polarizability: 135.775   2.349 130.070  12.421  -1.076  83.202

                      1                      2                      3
                      A                      A                      A
 Frequencies --     37.0035                53.2669               150.5207
 Red. masses --      2.4451                 2.6411                 3.2035
 Frc consts  --      0.0020                 0.0044                 0.0428
 IR Inten    --      4.1866                 0.7863                 0.5538

                      4                      5                      6
                      A                      A                      A
 Frequencies --    156.5335               178.2063               214.8884
 Red. masses --      1.2217                 1.9562                 1.6860
 Frc consts  --      0.0176                 0.0366                 0.0459
 IR Inten    --      0.8204                 2.2694                 1.4834

                      7                      8                      9
                      A                      A                      A
 Frequencies --    285.2783               336.1558               399.5560
 Red. masses --      1.8395                 3.8509                 4.2600
 Frc consts  --      0.0882                 0.2564                 0.4007
 IR Inten    --      1.9293                 1.7522                 2.2178

                     10                     11                     12
                      A                      A                      A
 Frequencies --    532.4744               603.2810               639.6521
 Red. masses --      3.9385                 4.7151                 4.1844
 Frc consts  --      0.6579                 1.0111                 1.0087
 IR Inten    --      5.8967                 5.1145                 3.4466

                     13                     14                     15
                      A                      A                      A
 Frequencies --    670.9465               705.5212               753.5161
 Red. masses --      2.2644                 2.1857                 3.6872
 Frc consts  --      0.6006                 0.6410                 1.2335
 IR Inten    --     20.4656                14.9196                 4.7379

                     16                     17                     18
                      A                      A                      A
 Frequencies --    788.9455               823.1742               904.2704
 Red. masses --      1.2159                 1.2500                 5.7464
 Frc consts  --      0.4459                 0.4991                 2.7685
 IR Inten    --      1.8861                 7.1716                 5.8632

                     19                     20                     21
                      A                      A                      A
 Frequencies --    962.1740              1016.0802              1057.8730
 Red. masses --      2.4439                 2.8752                 2.1450
 Frc consts  --      1.3330                 1.7489                 1.4143
 IR Inten    --      6.3479                27.3436                43.7406

                     22                     23                     24
                      A                      A                      A
 Frequencies --   1064.3410              1085.1831              1137.8627
 Red. masses --      2.2634                 1.8786                 2.3775
 Frc consts  --      1.5107                 1.3034                 1.8136
 IR Inten    --      5.6034                11.7807                40.3700

                     25                     26                     27
                      A                      A                      A
 Frequencies --   1172.1829              1185.6256              1204.6797
 Red. masses --      1.4038                 1.9819                 1.5681
 Frc consts  --      1.1365                 1.6414                 1.3408
 IR Inten    --     13.6602                17.4003                12.5906

                     28                     29                     30
                      A                      A                      A
 Frequencies --   1262.8833              1278.8671              1319.1412
 Red. masses --      2.2072                 1.8183                 1.5783
 Frc consts  --      2.0740                 1.7522                 1.6182
 IR Inten    --     27.3239                36.1043                60.2337

                     31                     32                     33
                      A                      A                      A
 Frequencies --   1365.3460              1406.4554              1428.1221
 Red. masses --      1.5459                 1.2458                 2.3836
 Frc consts  --      1.6979                 1.4519                 2.8642
 IR Inten    --      5.1525                 1.3796                63.9670

                     34                     35                     36
                      A                      A                      A
 Frequencies --   1480.7277              1483.9073              1488.2029
 Red. masses --      1.1652                 1.1570                 1.1319
 Frc consts  --      1.5052                 1.5010                 1.4770
 IR Inten    --      4.3243                 3.8375                 1.7621

                     37                     38                     39
                      A                      A                      A
 Frequencies --   1496.1172              1504.9102              1507.1627
 Red. masses --      1.0422                 1.0486                 1.1059
 Frc consts  --      1.3745                 1.3992                 1.4801
 IR Inten    --      5.2015                16.3818                 2.4231

                     40                     41                     42
                      A                      A                      A
 Frequencies --   1561.2526              1688.3665              3020.2763
 Red. masses --      4.6598                 8.5272                 1.0647
 Frc consts  --      6.6921                14.3215                 5.7223
 IR Inten    --     60.4394               141.0226                31.0391

                     43                     44                     45
                      A                      A                      A
 Frequencies --   3025.2895              3033.9214              3069.4590
 Red. masses --      1.0349                 1.0346                 1.0960
 Frc consts  --      5.5806                 5.6107                 6.0842
 IR Inten    --     57.4831                29.0610                 6.0033

                     46                     47                     48
                      A                      A                      A
 Frequencies --   3100.5565              3103.7947              3111.1187
 Red. masses --      1.1019                 1.1013                 1.1026
 Frc consts  --      6.2410                 6.2510                 6.2876
 IR Inten    --     26.0748                42.3572                33.6010

                     49                     50                     51
                      A                      A                      A
 Frequencies --   3144.6349              3244.7516              3288.2345
 Red. masses --      1.1034                 1.0918                 1.1032
 Frc consts  --      6.4289                 6.7723                 7.0280
 IR Inten    --     19.3170                 2.8430                 0.8423

 - Thermochemistry -
 -------------------
 Temperature   298.150 Kelvin.  Pressure   1.00000 Atm.
 Atom     1 has atomic number  6 and mass  12.00000

 Molecular mass:   126.06808 amu.
 Principal axes and moments of inertia in atomic units:
                           1         2         3
     Eigenvalues --   782.638481311.542001948.83457
           X            0.99994   0.00079  -0.01096
           Y           -0.00084   0.99999  -0.00450
           Z            0.01095   0.00451   0.99993
 This molecule is an asymmetric top.
 Rotational symmetry number  1.
 Warning -- assumption of classical behavior for rotation
           may cause significant error
 Rotational temperatures (Kelvin)      0.11067     0.06604     0.04444
 Rotational constants (GHZ):           2.30597     1.37605     0.92606
 Zero-point vibrational energy     415897.9 (Joules/Mol)
                                   99.40197 (Kcal/Mol)
 Warning -- explicit consideration of  11 degrees of freedom as
           vibrations may cause significant error
 Vibrational temperatures:     53.24    76.64   216.57   225.22   256.40
          (Kelvin)            309.18   410.45   483.65   574.87   766.11
                              867.99   920.32   965.34  1015.09  1084.14
                             1135.12  1184.36  1301.04  1384.35  1461.91
                             1522.04  1531.35  1561.33  1637.13  1686.51
                             1705.85  1733.26  1817.01  1840.00  1897.95
                             1964.43  2023.57  2054.75  2130.43  2135.01
                             2141.19  2152.58  2165.23  2168.47  2246.29
                             2429.18  4345.50  4352.71  4365.13  4416.26
                             4461.00  4465.66  4476.20  4524.42  4668.47
                             4731.03

 Zero-point correction=                           0.158407 (Hartree/Particle)
 Thermal correction to Energy=                    0.167828
 Thermal correction to Enthalpy=                  0.168772
 Thermal correction to Gibbs Free Energy=         0.122890
 Sum of electronic and zero-point Energies=           -423.050281
 Sum of electronic and thermal Energies=              -423.040860
 Sum of electronic and thermal Enthalpies=            -423.039916
 Sum of electronic and thermal Free Energies=         -423.085798

                     E (Thermal)             CV                S
                      KCal/Mol        Cal/Mol-Kelvin    Cal/Mol-Kelvin
 Total                  105.314             33.480             96.566
 Electronic               0.000              0.000              0.000
 Translational            0.889              2.981             40.409
 Rotational               0.889              2.981             29.083
 Vibrational            103.536             27.518             27.075
 Vibration     1          0.594              1.982              5.413
 Vibration     2          0.596              1.976              4.692
 Vibration     3          0.618              1.902              2.666
 Vibration     4          0.620              1.895              2.591
 Vibration     5          0.629              1.869              2.347
 Vibration     6          0.645              1.818              2.002
 Vibration     7          0.683              1.701              1.502
 Vibration     8          0.717              1.603              1.230
 Vibration     9          0.766              1.471              0.964
 Vibration    10          0.887              1.178              0.582
 Vibration    11          0.962              1.025              0.444

 Optimization completed.
    -- Stationary point found.
 Normal termination of Gaussian 09 at Mon Jan 27 10:57:01 2020.
