 Gaussian 09, Revision D.01,
 Gaussian 09:  ES64L-G09RevD.01 24-Apr-2013

 -----------------------------
 # b3lyp 6-31G(2df,p) opt Freq
 -----------------------------

 -----
 titel
 -----
 Symbolic Z-matrix:
 Charge =  0 Multiplicity = 1

 SCF Done:  E(RB3LYP) =  -423.188768857     A.U. after   13 cycles
 Optimization completed.
    -- Stationary point found.
 Normal termination of Gaussian 09 at Mon Jan 27 22:07:48 2020.

 ----------------------------------------------------------------------
 #N Geom=AllCheck Guess=TCheck SCRF=Check GenChk RB3LYP/6-31G(2df,p) Fr
 eq
 ----------------------------------------------------------------------

 Structure from the checkpoint file:  "/scratch/puck/g09_6e66dfa6-2b70-481a-bbad-72ab1c0e92c3/Gau-85609.chk"
 -----
 titel
 -----
 Charge =  0 Multiplicity = 1

                         Standard orientation:
 ---------------------------------------------------------------------
 Center     Atomic      Atomic             Coordinates (Angstroms)
 Number     Number       Type             X           Y           Z
 ---------------------------------------------------------------------
      1          8           0        2.389558   -0.378918   -0.295047
      2          6           0        1.214017    0.353247   -0.547645
      3          6           0        0.010997   -0.478287   -0.997987
      4          6           0       -1.275011    0.416930   -0.814507
      5          6           0       -1.903596   -0.726652    0.021292
      6          6           0       -0.461676   -1.185050    0.317812
      7          8           0        0.136124   -0.381899    1.357773
      8          6           0        0.498171    0.861668    0.719748
      9          6           0       -0.762009    1.525850    0.146941
     10          1           0        2.213707   -0.902242    0.497470
     11          1           0        1.471593    1.156246   -1.243750
     12          1           0        0.100841   -1.084564   -1.896121
     13          1           0       -1.812603    0.789735   -1.686685
     14          1           0       -2.529523   -0.460734    0.877879
     15          1           0       -2.425555   -1.455359   -0.606565
     16          1           0       -0.251634   -2.234470    0.530151
     17          1           0        1.091343    1.445552    1.423626
     18          1           0       -1.494595    1.783014    0.916993
     19          1           0       -0.494376    2.443131   -0.388733
 ---------------------------------------------------------------------

 SCF Done:  E(RB3LYP) =  -423.188768857     A.U. after    1 cycles

 The electronic state is 1-A.
 Alpha  occ. eigenvalues --  -19.14433 -19.13165 -10.23279 -10.22967 -10.22735
 Alpha  occ. eigenvalues --  -10.19515 -10.18584 -10.18523 -10.18141  -1.05022
 Alpha  occ. eigenvalues --   -1.00796  -0.85112  -0.77669  -0.71405  -0.63758
 Alpha  occ. eigenvalues --   -0.61740  -0.59250  -0.53583  -0.52253  -0.50344
 Alpha  occ. eigenvalues --   -0.47242  -0.43496  -0.42305  -0.41095  -0.39327
 Alpha  occ. eigenvalues --   -0.37912  -0.37394  -0.36775  -0.33530  -0.32002
 Alpha  occ. eigenvalues --   -0.30694  -0.29236  -0.26934  -0.23848
 Alpha virt. eigenvalues --    0.07657   0.09670   0.11866   0.12115   0.12787
 Alpha virt. eigenvalues --    0.13887   0.14933   0.15282   0.16300   0.17267
 Alpha virt. eigenvalues --    0.17727   0.18467   0.19554   0.21551   0.22294

 Mulliken charges:
               1
     1  O   -0.459396
     2  C    0.170449
     3  C   -0.091270
     4  C   -0.049805
     5  C   -0.234990
     6  C    0.095484
     7  O   -0.305960
     8  C    0.039619
     9  C   -0.237445
    10  H    0.287541
    11  H    0.085110
    12  H    0.075475
    13  H    0.067072
    14  H    0.098439
    15  H    0.098552
    16  H    0.076011
    17  H    0.079142
    18  H    0.104776
    19  H    0.101196
 Sum of Mulliken charges =   0.00000

 Dipole moment (field-independent basis, Debye):
    X=             -1.5635    Y=              0.3732    Z=             -0.5933  Tot=              1.7135
 Quadrupole moment (field-independent basis, Debye-Ang):
   XX=            -57.4605   YY=            -49.4941   ZZ=            -54.3667
   XY=              0.6564   XZ=              2.5327   YZ=              0.1145

  Exact polarizability:  77.495   1.492  74.386   0.592   0.142  66.391
 Approx polarizability: 108.725   0.836 109.314   0.165  -1.795 105.415

                      1                      2                      3
                      A                      A                      A
 Frequencies --    198.1705               286.0449               353.1380
 Red. masses --      4.5429                 3.6170                 2.0639
 Frc consts  --      0.1051                 0.1744                 0.1516
 IR Inten    --      6.0629                 3.2205                 1.8571

                      4                      5                      6
                      A                      A                      A
 Frequencies --    381.4811               430.2599               464.4441
 Red. masses --      3.4438                 1.1653                 2.1243
 Frc consts  --      0.2953                 0.1271                 0.2700
 IR Inten    --      1.6709                65.4206                 6.0983

                      7                      8                      9
                      A                      A                      A
 Frequencies --    531.6029               623.9991               665.0274
 Red. masses --      4.3642                 4.4439                 4.8670
 Frc consts  --      0.7267                 1.0195                 1.2682
 IR Inten    --      5.4907                 2.6189                 6.5243

                     10                     11                     12
                      A                      A                      A
 Frequencies --    789.2377               814.2333               835.5156
 Red. masses --      2.6129                 2.6683                 2.8774
 Frc consts  --      0.9589                 1.0423                 1.1835
 IR Inten    --      7.5678                20.8304                 5.5889

                     13                     14                     15
                      A                      A                      A
 Frequencies --    848.8743               869.9459               877.3349
 Red. masses --      2.3742                 3.0114                 2.2119
 Frc consts  --      1.0080                 1.3428                 1.0031
 IR Inten    --      6.6020                 6.1057                 4.5924

                     16                     17                     18
                      A                      A                      A
 Frequencies --    930.7524               934.8846               961.0020
 Red. masses --      2.5790                 2.0055                 2.3501
 Frc consts  --      1.3163                 1.0328                 1.2787
 IR Inten    --      3.7564                10.3527                 0.9176

                     19                     20                     21
                      A                      A                      A
 Frequencies --    962.2224               993.3367              1025.9194
 Red. masses --      2.0990                 2.3498                 1.5482
 Frc consts  --      1.1450                 1.3661                 0.9601
 IR Inten    --      1.8681                26.3090                 9.2228

                     22                     23                     24
                      A                      A                      A
 Frequencies --   1040.0155              1080.0610              1098.7514
 Red. masses --      1.9702                 2.2460                 1.9331
 Frc consts  --      1.2556                 1.5437                 1.3750
 IR Inten    --     15.7031                 9.7714                34.7137

                     25                     26                     27
                      A                      A                      A
 Frequencies --   1122.2505              1138.3564              1175.1149
 Red. masses --      2.0636                 1.4435                 1.2603
 Frc consts  --      1.5313                 1.1021                 1.0254
 IR Inten    --     91.0927                21.1785                 5.4662

                     28                     29                     30
                      A                      A                      A
 Frequencies --   1206.1071              1217.1746              1240.2619
 Red. masses --      1.7376                 2.0397                 1.5349
 Frc consts  --      1.4893                 1.7804                 1.3911
 IR Inten    --      6.4930                20.7142                 1.7406

                     31                     32                     33
                      A                      A                      A
 Frequencies --   1250.5445              1268.3983              1285.4766
 Red. masses --      1.4195                 1.5782                 1.7209
 Frc consts  --      1.3079                 1.4960                 1.6754
 IR Inten    --      1.3684                 2.5921                 8.3485

                     34                     35                     36
                      A                      A                      A
 Frequencies --   1302.7180              1307.4715              1324.3030
 Red. masses --      1.3112                 1.5362                 1.5374
 Frc consts  --      1.3110                 1.5473                 1.5886
 IR Inten    --      1.3792                 5.1267                 3.5759

                     37                     38                     39
                      A                      A                      A
 Frequencies --   1340.8009              1370.7481              1436.4959
 Red. masses --      1.5213                 1.4134                 1.2867
 Frc consts  --      1.6113                 1.5647                 1.5644
 IR Inten    --      2.8587                12.3712                74.2324

                     40                     41                     42
                      A                      A                      A
 Frequencies --   1474.7787              1490.9950              3045.3153
 Red. masses --      1.1163                 1.1010                 1.0613
 Frc consts  --      1.4305                 1.4421                 5.7991
 IR Inten    --      1.1447                 7.3204                24.7134

                     43                     44                     45
                      A                      A                      A
 Frequencies --   3046.7504              3082.2087              3095.6201
 Red. masses --      1.0574                 1.0862                 1.0946
 Frc consts  --      5.7833                 6.0797                 6.1802
 IR Inten    --     32.0925                22.2218                30.7121

                     46                     47                     48
                      A                      A                      A
 Frequencies --   3096.0136              3101.0467              3106.3315
 Red. masses --      1.0981                 1.0958                 1.1022
 Frc consts  --      6.2013                 6.2084                 6.2660
 IR Inten    --     41.1669                38.5609                38.7660

                     49                     50                     51
                      A                      A                      A
 Frequencies --   3124.2731              3151.5142              3773.0930
 Red. masses --      1.0899                 1.0909                 1.0650
 Frc consts  --      6.2683                 6.3835                 8.9326
 IR Inten    --     34.0397                17.4321                22.6394

 - Thermochemistry -
 -------------------
 Temperature   298.150 Kelvin.  Pressure   1.00000 Atm.
 Atom     1 has atomic number  8 and mass  15.99491

 Molecular mass:   126.06808 amu.
 Principal axes and moments of inertia in atomic units:
                           1         2         3
     Eigenvalues --   601.628171021.567931089.12255
           X            0.99989   0.00840   0.01254
           Y           -0.00896   0.99892   0.04552
           Z           -0.01214  -0.04563   0.99888
 This molecule is an asymmetric top.
 Rotational symmetry number  1.
 Warning -- assumption of classical behavior for rotation
           may cause significant error
 Rotational temperatures (Kelvin)      0.14397     0.08479     0.07953
 Rotational constants (GHZ):           2.99976     1.76664     1.65706
 Zero-point vibrational energy     428086.2 (Joules/Mol)
                                  102.31505 (Kcal/Mol)
 Warning -- explicit consideration of   7 degrees of freedom as
           vibrations may cause significant error
 Vibrational temperatures:    285.12   411.55   508.09   548.87   619.05
          (Kelvin)            668.23   764.86   897.79   956.82  1135.54
                             1171.50  1202.12  1221.34  1251.66  1262.29
                             1339.14  1345.09  1382.67  1384.42  1429.19
                             1476.07  1496.35  1553.96  1580.86  1614.67
                             1637.84  1690.73  1735.32  1751.24  1784.46
                             1799.25  1824.94  1849.51  1874.32  1881.16
                             1905.37  1929.11  1972.20  2066.79  2121.88
                             2145.21  4381.52  4383.59  4434.61  4453.90
                             4454.47  4461.71  4469.31  4495.13  4534.32
                             5428.63

 Zero-point correction=                           0.163049 (Hartree/Particle)
 Thermal correction to Energy=                    0.169538
 Thermal correction to Enthalpy=                  0.170482
 Thermal correction to Gibbs Free Energy=         0.132640
 Sum of electronic and zero-point Energies=           -423.025719
 Sum of electronic and thermal Energies=              -423.019231
 Sum of electronic and thermal Enthalpies=            -423.018287
 Sum of electronic and thermal Free Energies=         -423.056129

                     E (Thermal)             CV                S
                      KCal/Mol        Cal/Mol-Kelvin    Cal/Mol-Kelvin
 Total                  106.386             28.044             79.644
 Electronic               0.000              0.000              0.000
 Translational            0.889              2.981             40.409
 Rotational               0.889              2.981             27.995
 Vibrational            104.609             22.083             11.241
 Vibration     1          0.637              1.842              2.150
 Vibration     2          0.684              1.700              1.497
 Vibration     3          0.729              1.569              1.152
 Vibration     4          0.751              1.510              1.033
 Vibration     5          0.791              1.404              0.858
 Vibration     6          0.822              1.329              0.753
 Vibration     7          0.887              1.180              0.584

 Optimization completed.
    -- Stationary point found.
 Normal termination of Gaussian 09 at Mon Jan 27 23:09:54 2020.
