 Gaussian 09, Revision D.01,
 Gaussian 09:  ES64L-G09RevD.01 24-Apr-2013

 -----------------------------
 # b3lyp 6-31G(2df,p) opt Freq
 -----------------------------

 -----
 titel
 -----
 Symbolic Z-matrix:
 Charge =  0 Multiplicity = 1

 SCF Done:  E(RB3LYP) =  -423.135471443     A.U. after   14 cycles
 SCF Done:  E(RB3LYP) =  -423.135471487     A.U. after    6 cycles
 SCF Done:  E(RB3LYP) =  -423.135471431     A.U. after    7 cycles
 SCF Done:  E(RB3LYP) =  -423.135471498     A.U. after    6 cycles
 SCF Done:  E(RB3LYP) =  -423.135471528     A.U. after    6 cycles
 SCF Done:  E(RB3LYP) =  -423.135471519     A.U. after    7 cycles
 SCF Done:  E(RB3LYP) =  -423.135471545     A.U. after    7 cycles
 SCF Done:  E(RB3LYP) =  -423.135471503     A.U. after    7 cycles
 SCF Done:  E(RB3LYP) =  -423.135471487     A.U. after    6 cycles
 SCF Done:  E(RB3LYP) =  -423.135471439     A.U. after    7 cycles
 SCF Done:  E(RB3LYP) =  -423.135471405     A.U. after    7 cycles
 Optimization completed.
    -- Stationary point found.
 Normal termination of Gaussian 09 at Tue Jan 28 12:29:34 2020.

 ----------------------------------------------------------------------
 #N Geom=AllCheck Guess=TCheck SCRF=Check GenChk RB3LYP/6-31G(2df,p) Fr
 eq
 ----------------------------------------------------------------------

 Structure from the checkpoint file:  "/scratch/puck/g09_a35419d1-1df0-47e3-b1ff-e0ff44e40316/Gau-24922.chk"
 -----
 titel
 -----
 Charge =  0 Multiplicity = 1

                         Standard orientation:
 ---------------------------------------------------------------------
 Center     Atomic      Atomic             Coordinates (Angstroms)
 Number     Number       Type             X           Y           Z
 ---------------------------------------------------------------------
      1          6           0        4.070531   -0.659130   -0.299223
      2          6           0        2.704445   -0.279614    0.030837
      3          6           0        1.575081    0.034249    0.308821
      4          6           0        0.213495    0.411147    0.620887
      5          6           0       -0.322123    1.771464    0.090832
      6          8           0       -1.451083    1.135964   -0.540827
      7          6           0       -0.942539   -0.186426   -0.233786
      8          6           0       -2.008651   -1.004460    0.470210
      9          8           0       -3.162492   -1.112839   -0.338656
     10          1           0        4.593555   -1.065055    0.573625
     11          1           0        4.091912   -1.423342   -1.083969
     12          1           0        4.645470    0.200945   -0.659903
     13          1           0        0.014115    0.289677    1.690937
     14          1           0       -0.627141    2.500679    0.848823
     15          1           0        0.338264    2.252982   -0.639039
     16          1           0       -0.603137   -0.693906   -1.144689
     17          1           0       -1.645548   -2.021096    0.658436
     18          1           0       -2.238993   -0.539098    1.443149
     19          1           0       -3.401335   -0.210163   -0.582973
 ---------------------------------------------------------------------

 SCF Done:  E(RB3LYP) =  -423.135471405     A.U. after    1 cycles

 The electronic state is 1-A.
 Alpha  occ. eigenvalues --  -19.14119 -19.13251 -10.24000 -10.23823 -10.22739
 Alpha  occ. eigenvalues --  -10.21845 -10.20732 -10.17969 -10.17325  -1.04926
 Alpha  occ. eigenvalues --   -1.01226  -0.79698  -0.76431  -0.73288  -0.68820
 Alpha  occ. eigenvalues --   -0.64478  -0.57255  -0.53316  -0.50962  -0.47755
 Alpha  occ. eigenvalues --   -0.46905  -0.45779  -0.42995  -0.42965  -0.41404
 Alpha  occ. eigenvalues --   -0.40421  -0.40227  -0.37039  -0.33255  -0.32449
 Alpha  occ. eigenvalues --   -0.27832  -0.25478  -0.25194  -0.24717
 Alpha virt. eigenvalues --    0.04240   0.04731   0.07056   0.10659   0.10767
 Alpha virt. eigenvalues --    0.12062   0.12856   0.13882   0.15409   0.16060
 Alpha virt. eigenvalues --    0.17186   0.18338   0.18730   0.20160   0.21828

 Mulliken charges:
               1
     1  C   -0.497668
     2  C    0.067983
     3  C    0.078850
     4  C   -0.265580
     5  C   -0.072864
     6  O   -0.307962
     7  C    0.132501
     8  C   -0.074252
     9  O   -0.420172
    10  H    0.149724
    11  H    0.150806
    12  H    0.150067
    13  H    0.104852
    14  H    0.110163
    15  H    0.112324
    16  H    0.090572
    17  H    0.112936
    18  H    0.082273
    19  H    0.295448
 Sum of Mulliken charges =   0.00000

 Dipole moment (field-independent basis, Debye):
    X=              2.3827    Y=              0.6833    Z=              0.9245  Tot=              2.6455
 Quadrupole moment (field-independent basis, Debye-Ang):
   XX=            -51.9070   YY=            -53.3179   ZZ=            -52.7151
   XY=             -4.7533   XZ=             -3.3397   YZ=              0.4983

  Exact polarizability: 111.457  -6.464  72.042  -5.153   1.732  61.322
 Approx polarizability: 149.938 -13.424 102.242  -8.261   3.800  92.811

                      1                      2                      3
                      A                      A                      A
 Frequencies --     31.8258                47.7265                75.8574
 Red. masses --      1.0228                 4.5448                 3.4557
 Frc consts  --      0.0006                 0.0061                 0.0117
 IR Inten    --      0.0133                 0.5512                 2.0583

                      4                      5                      6
                      A                      A                      A
 Frequencies --    118.0984               131.7315               199.8764
 Red. masses --      3.1563                 2.8879                 3.9287
 Frc consts  --      0.0259                 0.0295                 0.0925
 IR Inten    --      2.3332                 2.9955                 2.3218

                      7                      8                      9
                      A                      A                      A
 Frequencies --    271.3747               305.0218               375.3182
 Red. masses --      3.9030                 3.5031                 3.3692
 Frc consts  --      0.1693                 0.1920                 0.2796
 IR Inten    --      6.7038                 5.4083                 8.0363

                     10                     11                     12
                      A                      A                      A
 Frequencies --    424.5686               452.2772               486.8132
 Red. masses --      4.3544                 1.1987                 4.6771
 Frc consts  --      0.4625                 0.1445                 0.6531
 IR Inten    --      7.2794               114.8712                 1.6040

                     13                     14                     15
                      A                      A                      A
 Frequencies --    569.0859               644.7953               815.9569
 Red. masses --      3.7749                 3.0850                 2.5533
 Frc consts  --      0.7203                 0.7557                 1.0016
 IR Inten    --      9.7784                 0.2279                 3.8070

                     16                     17                     18
                      A                      A                      A
 Frequencies --    877.6853               929.9132              1001.0108
 Red. masses --      2.7022                 2.1361                 3.3853
 Frc consts  --      1.2264                 1.0883                 1.9986
 IR Inten    --     35.1547                 0.6392                18.2345

                     19                     20                     21
                      A                      A                      A
 Frequencies --   1010.4401              1037.9552              1052.6763
 Red. masses --      3.7558                 3.0008                 1.4029
 Frc consts  --      2.2593                 1.9048                 0.9160
 IR Inten    --     44.7900                90.3668                 0.3897

                     22                     23                     24
                      A                      A                      A
 Frequencies --   1053.4847              1065.9954              1104.0571
 Red. masses --      1.4227                 4.7339                 3.2490
 Frc consts  --      0.9303                 3.1694                 2.3334
 IR Inten    --      3.1857                57.0728                31.9400

                     25                     26                     27
                      A                      A                      A
 Frequencies --   1110.1905              1165.4410              1195.4068
 Red. masses --      2.4661                 1.1462                 2.1982
 Frc consts  --      1.7909                 0.9173                 1.8507
 IR Inten    --      7.0213                 1.3528                 0.2345

                     28                     29                     30
                      A                      A                      A
 Frequencies --   1208.7514              1226.4859              1268.9571
 Red. masses --      1.2472                 1.2984                 1.3188
 Frc consts  --      1.0736                 1.1508                 1.2512
 IR Inten    --      7.8606                 6.5009                13.4518

                     31                     32                     33
                      A                      A                      A
 Frequencies --   1319.7114              1357.1225              1377.4287
 Red. masses --      1.3096                 1.3293                 1.6192
 Frc consts  --      1.3438                 1.4425                 1.8100
 IR Inten    --     10.0499                 8.0693                 2.3922

                     34                     35                     36
                      A                      A                      A
 Frequencies --   1397.6926              1415.3271              1435.4883
 Red. masses --      1.2463                 1.2633                 1.3800
 Frc consts  --      1.4345                 1.4909                 1.6754
 IR Inten    --     25.8753                 5.8755                63.0070

                     37                     38                     39
                      A                      A                      A
 Frequencies --   1477.7695              1478.3409              1494.9943
 Red. masses --      1.0395                 1.0397                 1.0925
 Frc consts  --      1.3375                 1.3387                 1.4387
 IR Inten    --      5.5822                 5.5587                 0.4891

                     40                     41                     42
                      A                      A                      A
 Frequencies --   1522.3315              2370.5036              2966.1031
 Red. masses --      1.1011                11.8525                 1.0695
 Frc consts  --      1.5035                39.2410                 5.5439
 IR Inten    --      0.5936                 1.2945                46.3384

                     43                     44                     45
                      A                      A                      A
 Frequencies --   3027.4340              3027.9892              3038.9258
 Red. masses --      1.0402                 1.0509                 1.0831
 Frc consts  --      5.6172                 5.6773                 5.8933
 IR Inten    --     45.9456                59.3342                 5.9306

                     46                     47                     48
                      A                      A                      A
 Frequencies --   3047.4136              3072.1735              3082.0803
 Red. masses --      1.0846                 1.0936                 1.1111
 Frc consts  --      5.9343                 6.0816                 6.2183
 IR Inten    --     21.2222                29.3907                50.2493

                     49                     50                     51
                      A                      A                      A
 Frequencies --   3088.5856              3089.1303              3785.8901
 Red. masses --      1.1001                 1.1003                 1.0656
 Frc consts  --      6.1829                 6.1863                 8.9985
 IR Inten    --      9.6288                 9.8717                29.2000

 - Thermochemistry -
 -------------------
 Temperature   298.150 Kelvin.  Pressure   1.00000 Atm.
 Atom     1 has atomic number  6 and mass  12.00000

 Molecular mass:   126.06808 amu.
 Principal axes and moments of inertia in atomic units:
                           1         2         3
     Eigenvalues --   518.883672420.716702747.81950
           X            0.99989  -0.00908  -0.01148
           Y            0.00918   0.99992   0.00898
           Z            0.01140  -0.00908   0.99989
 This molecule is an asymmetric top.
 Rotational symmetry number  1.
 Warning -- assumption of classical behavior for rotation
           may cause significant error
 Rotational temperatures (Kelvin)      0.16692     0.03578     0.03152
 Rotational constants (GHZ):           3.47812     0.74554     0.65679
 Zero-point vibrational energy     413496.5 (Joules/Mol)
                                   98.82803 (Kcal/Mol)
 Warning -- explicit consideration of  13 degrees of freedom as
           vibrations may cause significant error
 Vibrational temperatures:     45.79    68.67   109.14   169.92   189.53
          (Kelvin)            287.58   390.45   438.86   540.00   610.86
                              650.73   700.41   818.79   927.72  1173.98
                             1262.79  1337.94  1440.23  1453.80  1493.38
                             1514.56  1515.73  1533.73  1588.49  1597.31
                             1676.81  1719.92  1739.12  1764.64  1825.74
                             1898.77  1952.59  1981.81  2010.97  2036.34
                             2065.34  2126.18  2127.00  2150.96  2190.29
                             3410.62  4267.56  4355.80  4356.60  4372.33
                             4384.54  4420.17  4434.42  4443.78  4444.56
                             5447.04

 Zero-point correction=                           0.157492 (Hartree/Particle)
 Thermal correction to Energy=                    0.167630
 Thermal correction to Enthalpy=                  0.168574
 Thermal correction to Gibbs Free Energy=         0.120322
 Sum of electronic and zero-point Energies=           -422.977979
 Sum of electronic and thermal Energies=              -422.967841
 Sum of electronic and thermal Enthalpies=            -422.966897
 Sum of electronic and thermal Free Energies=         -423.015149

                     E (Thermal)             CV                S
                      KCal/Mol        Cal/Mol-Kelvin    Cal/Mol-Kelvin
 Total                  105.189             34.761            101.555
 Electronic               0.000              0.000              0.000
 Translational            0.889              2.981             40.409
 Rotational               0.889              2.981             29.624
 Vibrational            103.412             28.799             31.521
 Vibration     1          0.594              1.983              5.712
 Vibration     2          0.595              1.978              4.909
 Vibration     3          0.599              1.965              3.995
 Vibration     4          0.608              1.934              3.131
 Vibration     5          0.612              1.922              2.921
 Vibration     6          0.638              1.840              2.134
 Vibration     7          0.675              1.726              1.587
 Vibration     8          0.696              1.664              1.389
 Vibration     9          0.746              1.523              1.058
 Vibration    10          0.787              1.417              0.877
 Vibration    11          0.811              1.356              0.789
 Vibration    12          0.843              1.279              0.692
 Vibration    13          0.925              1.098              0.506

 Optimization completed.
    -- Stationary point found.
 Normal termination of Gaussian 09 at Tue Jan 28 13:03:15 2020.
