 Gaussian 09, Revision D.01,
 Gaussian 09:  ES64L-G09RevD.01 24-Apr-2013

 -----------------------------
 # b3lyp 6-31G(2df,p) opt Freq
 -----------------------------

 -----
 titel
 -----
 Symbolic Z-matrix:
 Charge =  0 Multiplicity = 1

 SCF Done:  E(RB3LYP) =  -423.113582138     A.U. after   13 cycles
 Optimization completed.
    -- Stationary point found.
 Normal termination of Gaussian 09 at Mon Jan 27 18:12:57 2020.

 ----------------------------------------------------------------------
 #N Geom=AllCheck Guess=TCheck SCRF=Check GenChk RB3LYP/6-31G(2df,p) Fr
 eq
 ----------------------------------------------------------------------

 Structure from the checkpoint file:  "/scratch/puck/g09_39a700f5-a9eb-4b74-8715-16078fbe67b7/Gau-41306.chk"
 -----
 titel
 -----
 Charge =  0 Multiplicity = 1

                         Standard orientation:
 ---------------------------------------------------------------------
 Center     Atomic      Atomic             Coordinates (Angstroms)
 Number     Number       Type             X           Y           Z
 ---------------------------------------------------------------------
      1          8           0        2.495202    0.883692   -0.075196
      2          6           0        1.326050    0.156573   -0.002075
      3          6           0        0.580800   -0.353644    1.254852
      4          6           0       -0.274170   -0.759186   -0.000469
      5          6           0        1.019374   -1.271317   -0.668520
      6          8           0       -1.622043   -1.058656    0.008217
      7          6           0       -2.300278    0.230750    0.026781
      8          6           0       -1.225208    1.382353   -0.042954
      9          6           0       -0.028504    0.618838   -0.615442
     10          1           0        3.179399    0.413613    0.413967
     11          1           0        1.049940   -1.173498    1.805180
     12          1           0        0.167651    0.394891    1.931350
     13          1           0        1.522074   -2.130940   -0.217577
     14          1           0        1.032817   -1.306027   -1.760045
     15          1           0       -2.974848    0.256676   -0.836004
     16          1           0       -2.904626    0.294950    0.937436
     17          1           0       -1.565013    2.193898   -0.689861
     18          1           0       -1.049916    1.804857    0.948007
     19          1           0       -0.031133    0.625102   -1.709657
 ---------------------------------------------------------------------

 SCF Done:  E(RB3LYP) =  -423.113582138     A.U. after    1 cycles

 The electronic state is 1-A.
 Alpha  occ. eigenvalues --  -19.15025 -19.14344 -10.25804 -10.24031 -10.23188
 Alpha  occ. eigenvalues --  -10.19032 -10.18977 -10.18321 -10.17957  -1.04354
 Alpha  occ. eigenvalues --   -1.03438  -0.90226  -0.76654  -0.67767  -0.66958
 Alpha  occ. eigenvalues --   -0.62918  -0.58408  -0.53285  -0.50943  -0.48887
 Alpha  occ. eigenvalues --   -0.47005  -0.44302  -0.43455  -0.42342  -0.38979
 Alpha  occ. eigenvalues --   -0.37825  -0.36447  -0.35253  -0.34143  -0.32756
 Alpha  occ. eigenvalues --   -0.30463  -0.28001  -0.26707  -0.23570
 Alpha virt. eigenvalues --    0.07165   0.08931   0.09886   0.10898   0.12493
 Alpha virt. eigenvalues --    0.13932   0.15176   0.15565   0.16397   0.16883
 Alpha virt. eigenvalues --    0.17559   0.18881   0.19350   0.22601   0.23345

 Mulliken charges:
               1
     1  O   -0.468113
     2  C    0.364327
     3  C   -0.373131
     4  C    0.452379
     5  C   -0.372498
     6  O   -0.325909
     7  C   -0.084020
     8  C   -0.325169
     9  C   -0.047165
    10  H    0.285350
    11  H    0.085946
    12  H    0.095498
    13  H    0.090738
    14  H    0.101488
    15  H    0.111478
    16  H    0.110825
    17  H    0.107898
    18  H    0.117249
    19  H    0.072831
 Sum of Mulliken charges =   0.00000

 Dipole moment (field-independent basis, Debye):
    X=              0.4796    Y=              0.3583    Z=              0.6620  Tot=              0.8925
 Quadrupole moment (field-independent basis, Debye-Ang):
   XX=            -49.4445   YY=            -56.5401   ZZ=            -51.9275
   XY=             -7.2085   XZ=              2.8003   YZ=              0.3660

  Exact polarizability:  85.943  -8.003  69.739   1.281  -0.021  69.437
 Approx polarizability: 117.163  -5.557 107.127   1.440  -0.806 106.400

                      1                      2                      3
                      A                      A                      A
 Frequencies --     75.5635               226.7149               248.4615
 Red. masses --      2.0680                 1.3569                 3.7110
 Frc consts  --      0.0070                 0.0411                 0.1350
 IR Inten    --      2.0813                44.0739                21.7609

                      4                      5                      6
                      A                      A                      A
 Frequencies --    285.2715               369.1096               430.3128
 Red. masses --      2.9670                 2.7113                 3.3733
 Frc consts  --      0.1423                 0.2176                 0.3680
 IR Inten    --     39.1590                 7.3857                 2.7433

                      7                      8                      9
                      A                      A                      A
 Frequencies --    498.3607               526.0159               583.1366
 Red. masses --      3.3242                 2.5606                 2.6938
 Frc consts  --      0.4864                 0.4174                 0.5397
 IR Inten    --      0.0621                 1.4914                 3.2184

                     10                     11                     12
                      A                      A                      A
 Frequencies --    617.9396               665.0225               710.3150
 Red. masses --      2.7386                 3.1129                 3.7084
 Frc consts  --      0.6161                 0.8111                 1.1024
 IR Inten    --      1.5356                 5.4544                 5.9437

                     13                     14                     15
                      A                      A                      A
 Frequencies --    751.7943               804.7496               827.7188
 Red. masses --      3.8035                 2.6660                 1.7717
 Frc consts  --      1.2666                 1.0173                 0.7152
 IR Inten    --      1.9471                 1.0265                 4.3725

                     16                     17                     18
                      A                      A                      A
 Frequencies --    887.2879               906.0479               962.5567
 Red. masses --      2.4348                 2.7652                 6.0648
 Frc consts  --      1.1294                 1.3374                 3.3107
 IR Inten    --      2.0773                 2.4501                52.9268

                     19                     20                     21
                      A                      A                      A
 Frequencies --    987.5377               989.8998              1021.1989
 Red. masses --      1.6724                 1.5557                 1.5733
 Frc consts  --      0.9609                 0.8982                 0.9666
 IR Inten    --      7.0746                 3.2353                 0.6161

                     22                     23                     24
                      A                      A                      A
 Frequencies --   1067.5763              1087.2334              1110.5237
 Red. masses --      2.8078                 1.4275                 2.0372
 Frc consts  --      1.8854                 0.9942                 1.4803
 IR Inten    --     69.2536                60.1169                 1.9161

                     25                     26                     27
                      A                      A                      A
 Frequencies --   1116.9122              1120.3897              1129.9950
 Red. masses --      1.7305                 1.5189                 1.6337
 Frc consts  --      1.2719                 1.1234                 1.2291
 IR Inten    --      0.7854                 3.8365                 3.6919

                     28                     29                     30
                      A                      A                      A
 Frequencies --   1164.2863              1197.3779              1209.3899
 Red. masses --      1.8946                 1.5638                 1.6480
 Frc consts  --      1.5132                 1.3209                 1.4201
 IR Inten    --      2.3476                 4.2575                 9.6473

                     31                     32                     33
                      A                      A                      A
 Frequencies --   1223.9560              1261.5227              1283.7557
 Red. masses --      1.2576                 2.2229                 1.4455
 Frc consts  --      1.1100                 2.0843                 1.4035
 IR Inten    --     38.8238               254.0677                42.0145

                     34                     35                     36
                      A                      A                      A
 Frequencies --   1308.7475              1355.5014              1394.4821
 Red. masses --      2.1531                 1.5070                 1.5177
 Frc consts  --      2.1729                 1.6314                 1.7388
 IR Inten    --     46.3903                11.7164                12.7430

                     37                     38                     39
                      A                      A                      A
 Frequencies --   1422.2527              1484.5582              1501.5678
 Red. masses --      1.7066                 1.1071                 1.1021
 Frc consts  --      2.0340                 1.4376                 1.4641
 IR Inten    --      2.5472                 2.9734                 4.4038

                     40                     41                     42
                      A                      A                      A
 Frequencies --   1519.3462              1551.0849              3037.3934
 Red. masses --      1.1037                 1.2960                 1.0574
 Frc consts  --      1.5011                 1.8370                 5.7477
 IR Inten    --      0.6398                 2.8853                64.9659

                     43                     44                     45
                      A                      A                      A
 Frequencies --   3053.7611              3057.2449              3066.6096
 Red. masses --      1.0635                 1.0721                 1.0607
 Frc consts  --      5.8430                 5.9042                 5.8769
 IR Inten    --     23.3086                54.9771                24.3960

                     46                     47                     48
                      A                      A                      A
 Frequencies --   3075.8902              3081.1004              3122.1595
 Red. masses --      1.0924                 1.0767                 1.1075
 Frc consts  --      6.0896                 6.0224                 6.3605
 IR Inten    --      8.5533                27.3473                22.4486

                     49                     50                     51
                      A                      A                      A
 Frequencies --   3130.2925              3139.5712              3805.3230
 Red. masses --      1.1112                 1.1057                 1.0657
 Frc consts  --      6.4152                 6.4213                 9.0919
 IR Inten    --     45.8409                32.6224                28.9428

 - Thermochemistry -
 -------------------
 Temperature   298.150 Kelvin.  Pressure   1.00000 Atm.
 Atom     1 has atomic number  8 and mass  15.99491

 Molecular mass:   126.06808 amu.
 Principal axes and moments of inertia in atomic units:
                           1         2         3
     Eigenvalues --   528.274641225.963121431.32039
           X            0.99830  -0.05811   0.00447
           Y            0.05805   0.99824   0.01239
           Z           -0.00518  -0.01211   0.99991
 This molecule is an asymmetric top.
 Rotational symmetry number  1.
 Warning -- assumption of classical behavior for rotation
           may cause significant error
 Rotational temperatures (Kelvin)      0.16396     0.07065     0.06051
 Rotational constants (GHZ):           3.41629     1.47210     1.26089
 Zero-point vibrational energy     421413.4 (Joules/Mol)
                                  100.72022 (Kcal/Mol)
 Warning -- explicit consideration of  10 degrees of freedom as
           vibrations may cause significant error
 Vibrational temperatures:    108.72   326.19   357.48   410.44   531.07
          (Kelvin)            619.12   717.03   756.82   839.00   889.08
                              956.82  1021.98  1081.66  1157.85  1190.90
                             1276.61  1303.60  1384.90  1420.84  1424.24
                             1469.28  1536.00  1564.28  1597.79  1606.99
                             1611.99  1625.81  1675.15  1722.76  1740.04
                             1761.00  1815.05  1847.04  1882.99  1950.26
                             2006.35  2046.30  2135.95  2160.42  2186.00
                             2231.66  4370.13  4393.68  4398.69  4412.16
                             4425.51  4433.01  4492.09  4503.79  4517.14
                             5475.00

 Zero-point correction=                           0.160508 (Hartree/Particle)
 Thermal correction to Energy=                    0.167976
 Thermal correction to Enthalpy=                  0.168920
 Thermal correction to Gibbs Free Energy=         0.128696
 Sum of electronic and zero-point Energies=           -422.953074
 Sum of electronic and thermal Energies=              -422.945607
 Sum of electronic and thermal Enthalpies=            -422.944662
 Sum of electronic and thermal Free Energies=         -422.984886

                     E (Thermal)             CV                S
                      KCal/Mol        Cal/Mol-Kelvin    Cal/Mol-Kelvin
 Total                  105.406             30.459             84.657
 Electronic               0.000              0.000              0.000
 Translational            0.889              2.981             40.409
 Rotational               0.889              2.981             28.318
 Vibrational            103.629             24.497             15.931
 Vibration     1          0.599              1.965              4.003
 Vibration     2          0.650              1.800              1.905
 Vibration     3          0.662              1.765              1.741
 Vibration     4          0.683              1.701              1.502
 Vibration     5          0.741              1.536              1.083
 Vibration     6          0.792              1.404              0.858
 Vibration     7          0.854              1.254              0.662
 Vibration     8          0.881              1.192              0.596
 Vibration     9          0.940              1.068              0.480
 Vibration    10          0.978              0.994              0.420

 Normal termination of Gaussian 09 at Mon Jan 27 19:17:23 2020.
