 Gaussian 09, Revision D.01,
 Gaussian 09:  ES64L-G09RevD.01 24-Apr-2013

 -----------------------------
 # b3lyp 6-31G(2df,p) opt Freq
 -----------------------------

 -----
 titel
 -----
 Symbolic Z-matrix:
 Charge =  0 Multiplicity = 1

 SCF Done:  E(RB3LYP) =  -423.170936570     A.U. after   14 cycles
 Optimization completed.
    -- Stationary point found.
 Normal termination of Gaussian 09 at Tue Jan 28 12:03:06 2020.

 ----------------------------------------------------------------------
 #N Geom=AllCheck Guess=TCheck SCRF=Check GenChk RB3LYP/6-31G(2df,p) Fr
 eq
 ----------------------------------------------------------------------

 Structure from the checkpoint file:  "/scratch/puck/g09_e14bc1a1-2893-4607-a215-13a82fbec075/Gau-113736.chk"
 -----
 titel
 -----
 Charge =  0 Multiplicity = 1

                         Standard orientation:
 ---------------------------------------------------------------------
 Center     Atomic      Atomic             Coordinates (Angstroms)
 Number     Number       Type             X           Y           Z
 ---------------------------------------------------------------------
      1          6           0       -3.030020   -1.462010   -0.475636
      2          6           0       -2.968993   -0.245380    0.461593
      3          6           0       -1.868755    0.734760    0.085403
      4          8           0       -2.094152    1.880416   -0.245852
      5          6           0       -0.513330    0.217486    0.145183
      6          6           0        0.615107   -0.209759    0.201395
      7          6           0        1.988944   -0.681907    0.254956
      8          6           0        3.003372    0.383746   -0.178110
      9          8           0        4.282952   -0.213601   -0.076873
     10          1           0       -2.084218   -2.010932   -0.471247
     11          1           0       -3.822038   -2.146376   -0.159426
     12          1           0       -3.239790   -1.154357   -1.504587
     13          1           0       -3.910025    0.310937    0.449387
     14          1           0       -2.784485   -0.585784    1.488607
     15          1           0        2.234218   -1.008397    1.273187
     16          1           0        2.109179   -1.563688   -0.386498
     17          1           0        2.779192    0.704306   -1.205979
     18          1           0        2.907628    1.264561    0.473408
     19          1           0        4.941992    0.433605   -0.343755
 ---------------------------------------------------------------------

 SCF Done:  E(RB3LYP) =  -423.170936570     A.U. after    1 cycles

 The electronic state is 1-A.
 Alpha  occ. eigenvalues --  -19.14682 -19.12909 -10.28147 -10.24338 -10.21854
 Alpha  occ. eigenvalues --  -10.20382 -10.19239 -10.18566 -10.18544  -1.03895
 Alpha  occ. eigenvalues --   -1.02907  -0.81107  -0.78662  -0.73909  -0.66488
 Alpha  occ. eigenvalues --   -0.64016  -0.59782  -0.53518  -0.48733  -0.48216
 Alpha  occ. eigenvalues --   -0.45264  -0.45041  -0.43527  -0.42723  -0.41104
 Alpha  occ. eigenvalues --   -0.39851  -0.38010  -0.36026  -0.35023  -0.34907
 Alpha  occ. eigenvalues --   -0.28048  -0.27703  -0.27673  -0.25100
 Alpha virt. eigenvalues --   -0.04616   0.03825   0.06868   0.09095   0.10865
 Alpha virt. eigenvalues --    0.11675   0.14385   0.14538   0.14768   0.15274
 Alpha virt. eigenvalues --    0.16856   0.18148   0.18723   0.19972   0.20626

 Mulliken charges:
               1
     1  C   -0.386293
     2  C   -0.275452
     3  C    0.241245
     4  O   -0.286785
     5  C    0.073531
     6  C    0.016235
     7  C   -0.334206
     8  C   -0.064575
     9  O   -0.413925
    10  H    0.131668
    11  H    0.123650
    12  H    0.130406
    13  H    0.121877
    14  H    0.119557
    15  H    0.149029
    16  H    0.148575
    17  H    0.106217
    18  H    0.106535
    19  H    0.292711
 Sum of Mulliken charges =   0.00000

 Dipole moment (field-independent basis, Debye):
    X=              1.6058    Y=             -1.6222    Z=              0.2497  Tot=              2.2961
 Quadrupole moment (field-independent basis, Debye-Ang):
   XX=            -45.9531   YY=            -57.9469   ZZ=            -52.2308
   XY=             11.2740   XZ=             -3.4263   YZ=              0.4674

  Exact polarizability: 118.727  -7.564  74.282   0.756  -2.337  58.003
 Approx polarizability: 157.455 -27.994 119.278   4.419  -7.998  86.595

                      1                      2                      3
                      A                      A                      A
 Frequencies --     19.3529                38.4217                63.2343
 Red. masses --      2.4518                 2.5635                 4.2066
 Frc consts  --      0.0005                 0.0022                 0.0099
 IR Inten    --      2.5094                 0.2948                 3.6271

                      4                      5                      6
                      A                      A                      A
 Frequencies --     79.8463               139.3265               160.3324
 Red. masses --      3.5485                 3.7878                 3.4076
 Frc consts  --      0.0133                 0.0433                 0.0516
 IR Inten    --      5.6814                 0.2132                 1.7842

                      7                      8                      9
                      A                      A                      A
 Frequencies --    222.9744               241.3236               267.1140
 Red. masses --      1.2008                 1.0817                 3.5397
 Frc consts  --      0.0352                 0.0371                 0.1488
 IR Inten    --      2.4357               112.0570                 0.5986

                     10                     11                     12
                      A                      A                      A
 Frequencies --    330.7414               408.1159               427.9528
 Red. masses --      4.6087                 4.0549                 4.9163
 Frc consts  --      0.2970                 0.3979                 0.5305
 IR Inten    --      6.1376                 1.2113                19.4819

                     13                     14                     15
                      A                      A                      A
 Frequencies --    475.2996               604.2719               674.2864
 Red. masses --      3.8175                 6.2046                 4.1759
 Frc consts  --      0.5081                 1.3348                 1.1186
 IR Inten    --      4.2618                10.2874                 0.4246

                     16                     17                     18
                      A                      A                      A
 Frequencies --    718.5165               786.9217               811.9349
 Red. masses --      3.4312                 1.1796                 1.3424
 Frc consts  --      1.0437                 0.4304                 0.5214
 IR Inten    --      3.9061                 0.1018                 3.1000

                     19                     20                     21
                      A                      A                      A
 Frequencies --    932.2564               995.2182              1026.0842
 Red. masses --      2.1228                 2.9215                 2.9153
 Frc consts  --      1.0870                 1.7049                 1.8084
 IR Inten    --     45.4014                50.1880                35.9086

                     22                     23                     24
                      A                      A                      A
 Frequencies --   1078.9560              1082.8495              1084.1190
 Red. masses --      1.8912                 1.6153                 5.6362
 Frc consts  --      1.2971                 1.1159                 3.9029
 IR Inten    --      3.4763                 1.9671                87.7655

                     25                     26                     27
                      A                      A                      A
 Frequencies --   1089.6553              1219.3749              1230.7728
 Red. masses --      1.9029                 1.1926                 1.9103
 Frc consts  --      1.3312                 1.0448                 1.7049
 IR Inten    --     14.5003                 1.1242                40.7226

                     28                     29                     30
                      A                      A                      A
 Frequencies --   1240.2284              1288.4877              1302.7606
 Red. masses --      1.3367                 1.4005                 1.0885
 Frc consts  --      1.2114                 1.3700                 1.0884
 IR Inten    --    111.9988                67.6100                 0.1536

                     31                     32                     33
                      A                      A                      A
 Frequencies --   1327.9498              1331.3390              1408.3717
 Red. masses --      1.4920                 1.6037                 1.2165
 Frc consts  --      1.5502                 1.6748                 1.4217
 IR Inten    --      1.3916                 7.2785                 2.4576

                     34                     35                     36
                      A                      A                      A
 Frequencies --   1455.9706              1465.7839              1467.9034
 Red. masses --      1.4023                 1.1017                 1.0804
 Frc consts  --      1.7515                 1.3946                 1.3716
 IR Inten    --      9.7684                 2.0852                 3.2309

                     37                     38                     39
                      A                      A                      A
 Frequencies --   1498.4572              1505.9890              1528.6603
 Red. masses --      1.0390                 1.0576                 1.0852
 Frc consts  --      1.3745                 1.4132                 1.4941
 IR Inten    --      5.2156                 6.8910                 1.6719

                     40                     41                     42
                      A                      A                      A
 Frequencies --   1760.8785              2329.6068              2989.4388
 Red. masses --     11.7873                11.9392                 1.0547
 Frc consts  --     21.5339                38.1759                 5.5536
 IR Inten    --    197.3558               138.8223                35.3200

                     43                     44                     45
                      A                      A                      A
 Frequencies --   3021.3899              3031.8273              3032.4306
 Red. masses --      1.1068                 1.0635                 1.0582
 Frc consts  --      5.9532                 5.7595                 5.7335
 IR Inten    --     36.7247                 9.1723                11.1256

                     46                     47                     48
                      A                      A                      A
 Frequencies --   3044.1567              3069.8859              3098.4675
 Red. masses --      1.0344                 1.1025                 1.0980
 Frc consts  --      5.6476                 6.1217                 6.2106
 IR Inten    --     22.5195                15.1758                 3.0742

                     49                     50                     51
                      A                      A                      A
 Frequencies --   3116.4702              3123.9646              3836.2894
 Red. masses --      1.1026                 1.1019                 1.0664
 Frc consts  --      6.3097                 6.3358                 9.2469
 IR Inten    --     21.3627                33.3846                33.8555

 - Thermochemistry -
 -------------------
 Temperature   298.150 Kelvin.  Pressure   1.00000 Atm.
 Atom     1 has atomic number  6 and mass  12.00000

 Molecular mass:   126.06808 amu.
 Principal axes and moments of inertia in atomic units:
                           1         2         3
     Eigenvalues --   467.985503233.492493581.01710
           X            0.99971   0.02410  -0.00096
           Y           -0.02408   0.99963   0.01230
           Z            0.00126  -0.01228   0.99992
 This molecule is an asymmetric top.
 Rotational symmetry number  1.
 Warning -- assumption of classical behavior for rotation
           may cause significant error
 Rotational temperatures (Kelvin)      0.18508     0.02679     0.02419
 Rotational constants (GHZ):           3.85640     0.55814     0.50397
 Zero-point vibrational energy     409637.0 (Joules/Mol)
                                   97.90560 (Kcal/Mol)
 Warning -- explicit consideration of  14 degrees of freedom as
           vibrations may cause significant error
 Vibrational temperatures:     27.84    55.28    90.98   114.88   200.46
          (Kelvin)            230.68   320.81   347.21   384.32   475.86
                              587.19   615.73   683.85   869.41   970.15
                             1033.78  1132.20  1168.19  1341.31  1431.90
                             1476.30  1552.38  1557.98  1559.80  1567.77
                             1754.41  1770.81  1784.41  1853.84  1874.38
                             1910.62  1915.50  2026.33  2094.81  2108.93
                             2111.98  2155.94  2166.78  2199.40  2533.51
                             3351.78  4301.13  4347.10  4362.12  4362.99
                             4379.86  4416.88  4458.00  4483.90  4494.68
                             5519.56

 Zero-point correction=                           0.156022 (Hartree/Particle)
 Thermal correction to Energy=                    0.167078
 Thermal correction to Enthalpy=                  0.168023
 Thermal correction to Gibbs Free Energy=         0.116895
 Sum of electronic and zero-point Energies=           -423.014914
 Sum of electronic and thermal Energies=              -423.003858
 Sum of electronic and thermal Enthalpies=            -423.002914
 Sum of electronic and thermal Free Energies=         -423.054042

                     E (Thermal)             CV                S
                      KCal/Mol        Cal/Mol-Kelvin    Cal/Mol-Kelvin
 Total                  104.843             36.868            107.608
 Electronic               0.000              0.000              0.000
 Translational            0.889              2.981             40.409
 Rotational               0.889              2.981             30.073
 Vibrational            103.066             30.906             37.126
 Vibration     1          0.593              1.986              6.700
 Vibration     2          0.594              1.982              5.339
 Vibration     3          0.597              1.972              4.354
 Vibration     4          0.600              1.963              3.895
 Vibration     5          0.615              1.914              2.813
 Vibration     6          0.622              1.891              2.546
 Vibration     7          0.649              1.806              1.935
 Vibration     8          0.658              1.777              1.793
 Vibration     9          0.672              1.733              1.615
 Vibration    10          0.713              1.614              1.256
 Vibration    11          0.773              1.453              0.933
 Vibration    12          0.789              1.409              0.865
 Vibration    13          0.832              1.305              0.723
 Vibration    14          0.963              1.023              0.442

 Normal termination of Gaussian 09 at Tue Jan 28 12:33:15 2020.
