 Gaussian 09, Revision D.01,
 Gaussian 09:  ES64L-G09RevD.01 24-Apr-2013

 -----------------------------
 # b3lyp 6-31G(2df,p) opt Freq
 -----------------------------

 -----
 titel
 -----
 Symbolic Z-matrix:
 Charge =  0 Multiplicity = 1

 SCF Done:  E(RB3LYP) =  -423.143844346     A.U. after   12 cycles
 Optimization completed.
    -- Stationary point found.
 Normal termination of Gaussian 09 at Tue Jan 28 02:57:27 2020.

 ----------------------------------------------------------------------
 #N Geom=AllCheck Guess=TCheck SCRF=Check GenChk RB3LYP/6-31G(2df,p) Fr
 eq
 ----------------------------------------------------------------------

 Structure from the checkpoint file:  "/scratch/puck/g09_2ba11719-9a2b-47ad-9a4d-aea977f0f150/Gau-195925.chk"
 -----
 titel
 -----
 Charge =  0 Multiplicity = 1

                         Standard orientation:
 ---------------------------------------------------------------------
 Center     Atomic      Atomic             Coordinates (Angstroms)
 Number     Number       Type             X           Y           Z
 ---------------------------------------------------------------------
      1          8           0       -2.326268    0.400209    0.454043
      2          6           0       -1.306606   -0.055952   -0.415706
      3          6           0       -0.900113   -1.544573   -0.234286
      4          6           0        0.585699   -1.377283    0.076015
      5          6           0        1.176364   -0.264995   -0.847800
      6          6           0        2.142749    0.132217    0.295751
      7          6           0        0.791519   -0.138432    1.002512
      8          6           0        0.052050    0.607028   -0.181035
      9          8           0        0.000665    1.988782   -0.287072
     10          1           0       -1.955939    0.465400    1.340832
     11          1           0       -1.675885    0.157971   -1.423077
     12          1           0       -1.464373   -1.995939    0.587633
     13          1           0       -1.074359   -2.146551   -1.131446
     14          1           0        1.197237   -2.260308    0.264224
     15          1           0        1.393619   -0.347892   -1.914620
     16          1           0        2.955061   -0.566899    0.512814
     17          1           0        2.527470    1.158373    0.305857
     18          1           0        0.574669   -0.076470    2.071968
     19          1           0        0.877355    2.352340   -0.122656
 ---------------------------------------------------------------------

 SCF Done:  E(RB3LYP) =  -423.143844346     A.U. after    1 cycles

 The electronic state is 1-A.
 Alpha  occ. eigenvalues --  -19.14589 -19.12806 -10.24056 -10.22408 -10.20051
 Alpha  occ. eigenvalues --  -10.19887 -10.19743 -10.19559 -10.17604  -1.03853
 Alpha  occ. eigenvalues --   -1.00793  -0.91833  -0.76615  -0.68256  -0.64390
 Alpha  occ. eigenvalues --   -0.63516  -0.57855  -0.55938  -0.51027  -0.50160
 Alpha  occ. eigenvalues --   -0.46346  -0.45724  -0.41238  -0.40478  -0.38891
 Alpha  occ. eigenvalues --   -0.38231  -0.36281  -0.33544  -0.32771  -0.32035
 Alpha  occ. eigenvalues --   -0.30567  -0.29967  -0.25583  -0.25284
 Alpha virt. eigenvalues --    0.06527   0.07917   0.11134   0.12445   0.12826
 Alpha virt. eigenvalues --    0.13699   0.14374   0.15478   0.16626   0.17568
 Alpha virt. eigenvalues --    0.18031   0.18632   0.18882   0.21092   0.22394

 Mulliken charges:
               1
     1  O   -0.439454
     2  C    0.105502
     3  C   -0.285889
     4  C    0.000793
     5  C   -0.122878
     6  C   -0.270959
     7  C   -0.137050
     8  C    0.407203
     9  O   -0.488970
    10  H    0.278179
    11  H    0.090406
    12  H    0.100701
    13  H    0.100492
    14  H    0.069205
    15  H    0.070858
    16  H    0.097002
    17  H    0.075979
    18  H    0.065037
    19  H    0.283846
 Sum of Mulliken charges =   0.00000

 Dipole moment (field-independent basis, Debye):
    X=              2.5506    Y=             -0.8897    Z=              0.6900  Tot=              2.7881
 Quadrupole moment (field-independent basis, Debye-Ang):
   XX=            -57.5549   YY=            -53.4311   ZZ=            -50.1076
   XY=              4.1102   XZ=             -0.7016   YZ=              1.3040

  Exact polarizability:  80.802   2.152  74.177   1.169   1.067  67.989
 Approx polarizability: 112.755  -0.108 110.157   0.585   0.958 108.981

                      1                      2                      3
                      A                      A                      A
 Frequencies --    114.4528               165.8687               267.8153
 Red. masses --      3.7149                 1.1077                 1.2172
 Frc consts  --      0.0287                 0.0180                 0.0514
 IR Inten    --      1.9264                65.7536                52.1907

                      4                      5                      6
                      A                      A                      A
 Frequencies --    274.8986               337.5762               356.4793
 Red. masses --      3.6535                 2.5675                 2.9752
 Frc consts  --      0.1627                 0.1724                 0.2228
 IR Inten    --     14.5538                12.1773                16.1568

                      7                      8                      9
                      A                      A                      A
 Frequencies --    391.8773               490.7854               499.1440
 Red. masses --      2.9233                 3.5434                 2.6511
 Frc consts  --      0.2645                 0.5029                 0.3892
 IR Inten    --     11.4219                 0.5937                10.9338

                     10                     11                     12
                      A                      A                      A
 Frequencies --    641.1541               680.4785               693.5297
 Red. masses --      4.2380                 3.9640                 4.0986
 Frc consts  --      1.0265                 1.0815                 1.1615
 IR Inten    --      1.5195                 9.0543                 4.7802

                     13                     14                     15
                      A                      A                      A
 Frequencies --    773.0637               841.5003               871.7753
 Red. masses --      2.9455                 2.3131                 2.4740
 Frc consts  --      1.0371                 0.9651                 1.1078
 IR Inten    --      6.0944                 1.9207                 6.3155

                     16                     17                     18
                      A                      A                      A
 Frequencies --    906.3809               908.5109               918.2805
 Red. masses --      2.1104                 2.3066                 2.2974
 Frc consts  --      1.0215                 1.1217                 1.1414
 IR Inten    --      2.1295                 1.8749                14.2139

                     19                     20                     21
                      A                      A                      A
 Frequencies --    975.6106               998.8583              1024.2641
 Red. masses --      1.5297                 1.4597                 1.5126
 Frc consts  --      0.8579                 0.8581                 0.9350
 IR Inten    --      2.6666                13.1377                 0.2944

                     22                     23                     24
                      A                      A                      A
 Frequencies --   1038.0857              1065.4291              1068.2043
 Red. masses --      1.9655                 1.6903                 1.5456
 Frc consts  --      1.2479                 1.1305                 1.0391
 IR Inten    --      5.8034                 0.9398                21.1066

                     25                     26                     27
                      A                      A                      A
 Frequencies --   1093.9916              1111.3247              1129.8428
 Red. masses --      2.5298                 1.7142                 2.0652
 Frc consts  --      1.7839                 1.2474                 1.5533
 IR Inten    --     30.8967                42.6919                39.2136

                     28                     29                     30
                      A                      A                      A
 Frequencies --   1162.9908              1180.0279              1197.0401
 Red. masses --      1.3654                 2.1833                 1.3444
 Frc consts  --      1.0881                 1.7912                 1.1350
 IR Inten    --     21.9854                68.0329                 8.5057

                     31                     32                     33
                      A                      A                      A
 Frequencies --   1223.0910              1243.6703              1261.7613
 Red. masses --      1.5671                 1.6471                 1.7886
 Frc consts  --      1.3812                 1.5010                 1.6777
 IR Inten    --      7.3905                16.0454                 6.7218

                     34                     35                     36
                      A                      A                      A
 Frequencies --   1287.4898              1304.6320              1309.8074
 Red. masses --      2.2294                 1.7627                 1.4062
 Frc consts  --      2.1774                 1.7677                 1.4214
 IR Inten    --     19.2354                83.0187                12.7885

                     37                     38                     39
                      A                      A                      A
 Frequencies --   1350.3068              1384.5465              1440.4907
 Red. masses --      2.1192                 1.7290                 1.3278
 Frc consts  --      2.2767                 1.9528                 1.6233
 IR Inten    --     14.6466                41.6770                57.6887

                     40                     41                     42
                      A                      A                      A
 Frequencies --   1490.1850              1530.5094              3031.7483
 Red. masses --      1.1046                 1.1227                 1.0591
 Frc consts  --      1.4452                 1.5495                 5.7356
 IR Inten    --      3.0377                 0.3274                68.3106

                     43                     44                     45
                      A                      A                      A
 Frequencies --   3049.3625              3070.1876              3076.9426
 Red. masses --      1.0602                 1.0868                 1.0897
 Frc consts  --      5.8081                 6.0356                 6.0784
 IR Inten    --     27.0811                21.7155                64.9235

                     46                     47                     48
                      A                      A                      A
 Frequencies --   3092.2194              3094.9717              3095.9956
 Red. masses --      1.0965                 1.0985                 1.1027
 Frc consts  --      6.1771                 6.1998                 6.2275
 IR Inten    --     41.7708                12.8334                44.5075

                     49                     50                     51
                      A                      A                      A
 Frequencies --   3113.5501              3805.4285              3806.7196
 Red. masses --      1.0908                 1.0652                 1.0659
 Frc consts  --      6.2303                 9.0888                 9.1007
 IR Inten    --     43.5159                12.7010                 9.8857

 - Thermochemistry -
 -------------------
 Temperature   298.150 Kelvin.  Pressure   1.00000 Atm.
 Atom     1 has atomic number  8 and mass  15.99491

 Molecular mass:   126.06808 amu.
 Principal axes and moments of inertia in atomic units:
                           1         2         3
     Eigenvalues --   669.98641 976.609761336.08364
           X            0.99889   0.04661   0.00638
           Y           -0.04670   0.99882   0.01330
           Z           -0.00575  -0.01358   0.99989
 This molecule is an asymmetric top.
 Rotational symmetry number  1.
 Warning -- assumption of classical behavior for rotation
           may cause significant error
 Rotational temperatures (Kelvin)      0.12928     0.08869     0.06483
 Rotational constants (GHZ):           2.69370     1.84797     1.35077
 Zero-point vibrational energy     420145.6 (Joules/Mol)
                                  100.41721 (Kcal/Mol)
 Warning -- explicit consideration of   9 degrees of freedom as
           vibrations may cause significant error
 Vibrational temperatures:    164.67   238.65   385.33   395.52   485.70
          (Kelvin)            512.89   563.82   706.13   718.16   922.48
                              979.06   997.83  1112.26  1210.73  1254.29
                             1304.08  1307.14  1321.20  1403.68  1437.13
                             1473.69  1493.57  1532.91  1536.91  1574.01
                             1598.95  1625.59  1673.28  1697.79  1722.27
                             1759.75  1789.36  1815.39  1852.41  1877.07
                             1884.52  1942.79  1992.05  2072.54  2144.04
                             2202.06  4362.00  4387.35  4417.31  4427.03
                             4449.01  4452.97  4454.44  4479.70  5475.16
                             5477.01

 Zero-point correction=                           0.160025 (Hartree/Particle)
 Thermal correction to Energy=                    0.167776
 Thermal correction to Enthalpy=                  0.168721
 Thermal correction to Gibbs Free Energy=         0.128197
 Sum of electronic and zero-point Energies=           -422.983819
 Sum of electronic and thermal Energies=              -422.976068
 Sum of electronic and thermal Enthalpies=            -422.975124
 Sum of electronic and thermal Free Energies=         -423.015647

                     E (Thermal)             CV                S
                      KCal/Mol        Cal/Mol-Kelvin    Cal/Mol-Kelvin
 Total                  105.281             31.351             85.289
 Electronic               0.000              0.000              0.000
 Translational            0.889              2.981             40.409
 Rotational               0.889              2.981             28.260
 Vibrational            103.504             25.389             16.620
 Vibration     1          0.607              1.937              3.192
 Vibration     2          0.624              1.884              2.482
 Vibration     3          0.673              1.732              1.610
 Vibration     4          0.677              1.720              1.565
 Vibration     5          0.718              1.600              1.224
 Vibration     6          0.732              1.562              1.137
 Vibration     7          0.759              1.488              0.993
 Vibration     8          0.847              1.270              0.682
 Vibration     9          0.855              1.252              0.660

 Optimization completed.
    -- Stationary point found.
 Normal termination of Gaussian 09 at Tue Jan 28 03:43:37 2020.
