 Gaussian 09, Revision D.01,
 Gaussian 09:  ES64L-G09RevD.01 24-Apr-2013

 -----------------------------
 # b3lyp 6-31G(2df,p) opt Freq
 -----------------------------

 -----
 titel
 -----
 Symbolic Z-matrix:
 Charge =  0 Multiplicity = 1

 SCF Done:  E(RB3LYP) =  -423.127897639     A.U. after   13 cycles
 Optimization completed.
    -- Stationary point found.
 Normal termination of Gaussian 09 at Tue Jan 28 02:54:03 2020.

 ----------------------------------------------------------------------
 #N Geom=AllCheck Guess=TCheck SCRF=Check GenChk RB3LYP/6-31G(2df,p) Fr
 eq
 ----------------------------------------------------------------------

 Structure from the checkpoint file:  "/scratch/puck/g09_54b55334-67fd-48f2-9125-cae888a3111d/Gau-90251.chk"
 -----
 titel
 -----
 Charge =  0 Multiplicity = 1

                         Standard orientation:
 ---------------------------------------------------------------------
 Center     Atomic      Atomic             Coordinates (Angstroms)
 Number     Number       Type             X           Y           Z
 ---------------------------------------------------------------------
      1          6           0        2.878630   -0.189873    0.351040
      2          6           0        1.579770    0.218243   -0.307172
      3          8           0        0.830761   -0.950144   -0.791186
      4          6           0       -0.317536   -0.504522   -0.113718
      5          6           0       -1.485165   -1.288469    0.447771
      6          8           0       -2.342715   -0.135605    0.217875
      7          6           0       -1.366292    0.521551   -0.634128
      8          6           0       -0.618496    1.680929    0.068639
      9          6           0        0.404594    0.646595    0.619875
     10          1           0        3.525515   -0.704602   -0.366011
     11          1           0        3.409015    0.693690    0.722746
     12          1           0        2.691821   -0.864868    1.191678
     13          1           0        1.761574    0.913511   -1.137334
     14          1           0       -1.788990   -2.146824   -0.167663
     15          1           0       -1.452867   -1.583965    1.502471
     16          1           0       -1.714009    0.626732   -1.665477
     17          1           0       -0.197070    2.433100   -0.605783
     18          1           0       -1.220541    2.180811    0.830582
     19          1           0        0.628158    0.631680    1.687436
 ---------------------------------------------------------------------

 SCF Done:  E(RB3LYP) =  -423.127897639     A.U. after    1 cycles

 The electronic state is 1-A.
 Alpha  occ. eigenvalues --  -19.14274 -19.13776 -10.24437 -10.23850 -10.23085
 Alpha  occ. eigenvalues --  -10.22721 -10.19316 -10.18786 -10.18356  -1.05817
 Alpha  occ. eigenvalues --   -1.02975  -0.81582  -0.76221  -0.71015  -0.66265
 Alpha  occ. eigenvalues --   -0.62844  -0.58861  -0.52363  -0.50493  -0.49618
 Alpha  occ. eigenvalues --   -0.47111  -0.45618  -0.43184  -0.41468  -0.40154
 Alpha  occ. eigenvalues --   -0.39767  -0.38311  -0.34755  -0.34372  -0.33392
 Alpha  occ. eigenvalues --   -0.30177  -0.29178  -0.24704  -0.23998
 Alpha virt. eigenvalues --    0.06166   0.09066   0.09994   0.10804   0.11391
 Alpha virt. eigenvalues --    0.11936   0.14631   0.14927   0.16394   0.16803
 Alpha virt. eigenvalues --    0.17078   0.17506   0.18659   0.19214   0.21449

 Mulliken charges:
               1
     1  C   -0.404891
     2  C    0.125387
     3  O   -0.338236
     4  C    0.419434
     5  C   -0.174172
     6  O   -0.295741
     7  C    0.045078
     8  C   -0.272801
     9  C   -0.146400
    10  H    0.130696
    11  H    0.119708
    12  H    0.123298
    13  H    0.080566
    14  H    0.109491
    15  H    0.106822
    16  H    0.077659
    17  H    0.101271
    18  H    0.116871
    19  H    0.075962
 Sum of Mulliken charges =   0.00000

 Dipole moment (field-independent basis, Debye):
    X=              1.6145    Y=              0.8990    Z=              0.5629  Tot=              1.9318
 Quadrupole moment (field-independent basis, Debye-Ang):
   XX=            -56.4107   YY=            -52.1660   ZZ=            -52.4276
   XY=              2.3064   XZ=              1.7384   YZ=             -2.2974

  Exact polarizability:  85.091   2.294  75.252   1.051  -2.944  65.817
 Approx polarizability: 111.622   1.865 110.429  -0.883  -2.211 101.325

                      1                      2                      3
                      A                      A                      A
 Frequencies --     91.1077               195.0466               234.3042
 Red. masses --      3.6797                 2.9098                 1.1276
 Frc consts  --      0.0180                 0.0652                 0.0365
 IR Inten    --      0.1815                 2.3916                 1.0689

                      4                      5                      6
                      A                      A                      A
 Frequencies --    269.2623               318.2747               360.7385
 Red. masses --      2.1173                 2.3517                 3.4789
 Frc consts  --      0.0904                 0.1404                 0.2667
 IR Inten    --      0.5754                 2.3464                 2.6649

                      7                      8                      9
                      A                      A                      A
 Frequencies --    381.8067               441.5654               544.3152
 Red. masses --      2.9694                 2.8109                 3.5417
 Frc consts  --      0.2550                 0.3229                 0.6182
 IR Inten    --      6.2930                 0.8759                 3.4206

                     10                     11                     12
                      A                      A                      A
 Frequencies --    700.1082               737.0984               785.1814
 Red. masses --      3.5077                 2.7328                 2.7323
 Frc consts  --      1.0130                 0.8748                 0.9925
 IR Inten    --      6.1119                 1.4777                 2.8340

                     13                     14                     15
                      A                      A                      A
 Frequencies --    827.0643               859.3635               888.9356
 Red. masses --      2.4312                 3.1906                 2.2436
 Frc consts  --      0.9798                 1.3883                 1.0445
 IR Inten    --      4.3988                26.9803                16.9978

                     16                     17                     18
                      A                      A                      A
 Frequencies --    918.3727               968.7465               974.1471
 Red. masses --      2.5507                 3.2978                 1.7054
 Frc consts  --      1.2675                 1.8234                 0.9535
 IR Inten    --     16.6115                29.9770                 4.2765

                     19                     20                     21
                      A                      A                      A
 Frequencies --    992.2106               998.4698              1055.4234
 Red. masses --      2.1195                 3.3643                 2.2734
 Frc consts  --      1.2294                 1.9761                 1.4921
 IR Inten    --      2.4350                39.4666                51.7239

                     22                     23                     24
                      A                      A                      A
 Frequencies --   1066.9094              1094.8896              1109.5874
 Red. masses --      2.4666                 1.6612                 1.9602
 Frc consts  --      1.6542                 1.1733                 1.4219
 IR Inten    --     23.7046                 4.8967                 1.4918

                     25                     26                     27
                      A                      A                      A
 Frequencies --   1134.2726              1145.4254              1172.2480
 Red. masses --      1.7528                 1.7930                 1.5878
 Frc consts  --      1.3287                 1.3860                 1.2856
 IR Inten    --     17.2824                 9.4679                 3.6203

                     28                     29                     30
                      A                      A                      A
 Frequencies --   1196.0980              1230.1798              1259.8265
 Red. masses --      1.6774                 1.7126                 1.6288
 Frc consts  --      1.4139                 1.5270                 1.5231
 IR Inten    --      8.1278                31.8183                 3.4799

                     31                     32                     33
                      A                      A                      A
 Frequencies --   1276.1466              1278.2273              1309.3591
 Red. masses --      1.7693                 1.5498                 1.6791
 Frc consts  --      1.6977                 1.4919                 1.6960
 IR Inten    --      7.0739                24.0511                32.1743

                     34                     35                     36
                      A                      A                      A
 Frequencies --   1321.8924              1359.5858              1398.6221
 Red. masses --      1.4976                 1.7186                 1.4574
 Frc consts  --      1.5418                 1.8717                 1.6797
 IR Inten    --      8.0122                42.1137                 3.4578

                     37                     38                     39
                      A                      A                      A
 Frequencies --   1412.1749              1459.0504              1482.1258
 Red. masses --      1.6273                 1.1057                 1.0569
 Frc consts  --      1.9120                 1.3869                 1.3680
 IR Inten    --      7.7984                 4.1711                 4.3475

                     40                     41                     42
                      A                      A                      A
 Frequencies --   1495.1642              1514.5434              3004.9339
 Red. masses --      1.0496                 1.1176                 1.0594
 Frc consts  --      1.3824                 1.5104                 5.6359
 IR Inten    --      3.2286                 2.0767                71.4124

                     43                     44                     45
                      A                      A                      A
 Frequencies --   3016.5750              3035.1466              3051.0434
 Red. masses --      1.0849                 1.0352                 1.0618
 Frc consts  --      5.8165                 5.6189                 5.8234
 IR Inten    --     32.6297                14.8709                28.6880

                     46                     47                     48
                      A                      A                      A
 Frequencies --   3065.6185              3073.9755              3098.9757
 Red. masses --      1.1053                 1.0877                 1.0906
 Frc consts  --      6.1202                 6.0554                 6.1711
 IR Inten    --     41.0839                55.1237                15.3776

                     49                     50                     51
                      A                      A                      A
 Frequencies --   3108.5147              3115.7787              3118.1586
 Red. masses --      1.1008                 1.1028                 1.1031
 Frc consts  --      6.2673                 6.3081                 6.3191
 IR Inten    --     17.9639                10.1206                35.5718

 - Thermochemistry -
 -------------------
 Temperature   298.150 Kelvin.  Pressure   1.00000 Atm.
 Atom     1 has atomic number  6 and mass  12.00000

 Molecular mass:   126.06808 amu.
 Principal axes and moments of inertia in atomic units:
                           1         2         3
     Eigenvalues --   499.796111311.421001542.22499
           X            0.99990   0.00759   0.01198
           Y           -0.00705   0.99897  -0.04477
           Z           -0.01230   0.04468   0.99893
 This molecule is an asymmetric top.
 Rotational symmetry number  1.
 Warning -- assumption of classical behavior for rotation
           may cause significant error
 Rotational temperatures (Kelvin)      0.17330     0.06605     0.05616
 Rotational constants (GHZ):           3.61095     1.37617     1.17022
 Zero-point vibrational energy     418373.5 (Joules/Mol)
                                   99.99367 (Kcal/Mol)
 Warning -- explicit consideration of   9 degrees of freedom as
           vibrations may cause significant error
 Vibrational temperatures:    131.08   280.63   337.11   387.41   457.93
          (Kelvin)            519.02   549.33   635.31   783.15  1007.30
                             1060.52  1129.70  1189.96  1236.43  1278.98
                             1321.33  1393.81  1401.58  1427.57  1436.57
                             1518.52  1535.04  1575.30  1596.45  1631.96
                             1648.01  1686.60  1720.92  1769.95  1812.61
                             1836.09  1839.08  1883.87  1901.91  1956.14
                             2012.30  2031.80  2099.25  2132.45  2151.21
                             2179.09  4323.42  4340.17  4366.89  4389.77
                             4410.74  4422.76  4458.73  4472.45  4482.90
                             4486.33

 Zero-point correction=                           0.159350 (Hartree/Particle)
 Thermal correction to Energy=                    0.167007
 Thermal correction to Enthalpy=                  0.167951
 Thermal correction to Gibbs Free Energy=         0.127331
 Sum of electronic and zero-point Energies=           -422.968548
 Sum of electronic and thermal Energies=              -422.960891
 Sum of electronic and thermal Enthalpies=            -422.959947
 Sum of electronic and thermal Free Energies=         -423.000566

                     E (Thermal)             CV                S
                      KCal/Mol        Cal/Mol-Kelvin    Cal/Mol-Kelvin
 Total                  104.798             30.231             85.490
 Electronic               0.000              0.000              0.000
 Translational            0.889              2.981             40.409
 Rotational               0.889              2.981             28.404
 Vibrational            103.021             24.269             16.678
 Vibration     1          0.602              1.956              3.636
 Vibration     2          0.636              1.847              2.179
 Vibration     3          0.654              1.788              1.846
 Vibration     4          0.674              1.730              1.601
 Vibration     5          0.705              1.639              1.319
 Vibration     6          0.735              1.553              1.119
 Vibration     7          0.751              1.509              1.032
 Vibration     8          0.801              1.379              0.822
 Vibration     9          0.899              1.152              0.556

 Optimization completed.
    -- Stationary point found.
 Normal termination of Gaussian 09 at Tue Jan 28 03:35:58 2020.
