 Gaussian 09, Revision D.01,
 Gaussian 09:  ES64L-G09RevD.01 24-Apr-2013

 -----------------------------
 # b3lyp 6-31G(2df,p) opt Freq
 -----------------------------

 -----
 titel
 -----
 Symbolic Z-matrix:
 Charge =  0 Multiplicity = 1

 SCF Done:  E(RB3LYP) =  -423.166179707     A.U. after   14 cycles
 Optimization completed.
    -- Stationary point found.
 Normal termination of Gaussian 09 at Mon Jan 27 17:29:17 2020.

 ----------------------------------------------------------------------
 #N Geom=AllCheck Guess=TCheck SCRF=Check GenChk RB3LYP/6-31G(2df,p) Fr
 eq
 ----------------------------------------------------------------------

 Structure from the checkpoint file:  "/scratch/puck/g09_ca351ece-d32c-40d6-9343-4a66f867bfba/Gau-39944.chk"
 -----
 titel
 -----
 Charge =  0 Multiplicity = 1

                         Standard orientation:
 ---------------------------------------------------------------------
 Center     Atomic      Atomic             Coordinates (Angstroms)
 Number     Number       Type             X           Y           Z
 ---------------------------------------------------------------------
      1          6           0        2.573526    0.841116    0.203116
      2          6           0        1.228007    0.213828   -0.040845
      3          6           0        0.051159    1.071207   -0.506425
      4          6           0       -1.225212    0.335292   -0.069831
      5          8           0       -2.279590    1.121681    0.403245
      6          6           0       -1.531562   -1.024100   -0.631856
      7          6           0       -0.820587   -0.896504    0.706907
      8          6           0        0.686787   -0.959412    0.675415
      9          8           0        1.250426   -1.095678   -0.640777
     10          1           0        2.500505    1.648531    0.939135
     11          1           0        3.281474    0.093499    0.569838
     12          1           0        2.979377    1.266038   -0.721836
     13          1           0        0.072104    2.036595    0.010385
     14          1           0        0.095737    1.265838   -1.583892
     15          1           0       -2.823235    1.375830   -0.350240
     16          1           0       -2.572019   -1.328142   -0.586192
     17          1           0       -0.959694   -1.398659   -1.471960
     18          1           0       -1.342405   -1.181731    1.611818
     19          1           0        1.228763   -1.474392    1.464319
 ---------------------------------------------------------------------

 SCF Done:  E(RB3LYP) =  -423.166179707     A.U. after    1 cycles

 The electronic state is 1-A.
 Alpha  occ. eigenvalues --  -19.14278 -19.14237 -10.23714 -10.23613 -10.23076
 Alpha  occ. eigenvalues --  -10.18699 -10.18383 -10.18189 -10.18095  -1.06514
 Alpha  occ. eigenvalues --   -1.02804  -0.85552  -0.76416  -0.70621  -0.67816
 Alpha  occ. eigenvalues --   -0.59215  -0.56416  -0.55594  -0.52408  -0.48025
 Alpha  occ. eigenvalues --   -0.44758  -0.44518  -0.43352  -0.41790  -0.40114
 Alpha  occ. eigenvalues --   -0.39461  -0.37934  -0.35468  -0.34945  -0.33066
 Alpha  occ. eigenvalues --   -0.28940  -0.27089  -0.25489  -0.25116
 Alpha virt. eigenvalues --    0.07016   0.09135   0.09755   0.11655   0.12057
 Alpha virt. eigenvalues --    0.14465   0.15262   0.15854   0.16621   0.17350
 Alpha virt. eigenvalues --    0.17848   0.18940   0.20069   0.20470   0.22332

 Mulliken charges:
               1
     1  C   -0.478828
     2  C    0.413859
     3  C   -0.369538
     4  C    0.385702
     5  O   -0.464544
     6  C   -0.347230
     7  C   -0.108754
     8  C   -0.040646
     9  O   -0.296280
    10  H    0.122639
    11  H    0.129324
    12  H    0.126568
    13  H    0.112846
    14  H    0.106394
    15  H    0.282844
    16  H    0.107474
    17  H    0.133785
    18  H    0.094039
    19  H    0.090346
 Sum of Mulliken charges =   0.00000

 Dipole moment (field-independent basis, Debye):
    X=             -0.3546    Y=              1.0004    Z=             -0.0618  Tot=              1.0632
 Quadrupole moment (field-independent basis, Debye-Ang):
   XX=            -50.3707   YY=            -53.6742   ZZ=            -52.5239
   XY=              2.0642   XZ=              5.2783   YZ=             -4.3373

  Exact polarizability:  84.920   3.417  73.059   2.455  -3.640  64.931
 Approx polarizability: 109.046   0.211 111.086   0.281  -3.132 105.280

                      1                      2                      3
                      A                      A                      A
 Frequencies --    163.3302               185.5224               220.9480
 Red. masses --      2.9168                 1.1667                 2.3414
 Frc consts  --      0.0458                 0.0237                 0.0673
 IR Inten    --      2.9443                 1.2697                 7.6928

                      4                      5                      6
                      A                      A                      A
 Frequencies --    280.2842               289.4686               353.5625
 Red. masses --      1.6520                 1.7329                 3.2426
 Frc consts  --      0.0765                 0.0855                 0.2388
 IR Inten    --     59.2835                19.8702                10.2512

                      7                      8                      9
                      A                      A                      A
 Frequencies --    395.3522               406.2506               417.2130
 Red. masses --      3.1883                 2.7260                 2.5443
 Frc consts  --      0.2936                 0.2651                 0.2609
 IR Inten    --      1.6016                 4.2754                10.0527

                     10                     11                     12
                      A                      A                      A
 Frequencies --    547.7536               568.0387               657.1070
 Red. masses --      2.9234                 4.0011                 3.1520
 Frc consts  --      0.5168                 0.7606                 0.8019
 IR Inten    --      4.9496                 4.0138                 4.7571

                     13                     14                     15
                      A                      A                      A
 Frequencies --    724.3176               741.4766               831.1177
 Red. masses --      5.3819                 3.4399                 3.4792
 Frc consts  --      1.6636                 1.1143                 1.4160
 IR Inten    --      2.4176                 3.8898                19.4886

                     16                     17                     18
                      A                      A                      A
 Frequencies --    866.2488               880.7888               897.5732
 Red. masses --      2.0163                 2.7906                 2.4963
 Frc consts  --      0.8914                 1.2755                 1.1849
 IR Inten    --     13.6341                20.7155                 5.7852

                     19                     20                     21
                      A                      A                      A
 Frequencies --    928.7913               972.1880               978.0486
 Red. masses --      1.6842                 1.8135                 1.8195
 Frc consts  --      0.8560                 1.0099                 1.0255
 IR Inten    --      1.1581                 2.3901                23.6344

                     22                     23                     24
                      A                      A                      A
 Frequencies --   1001.1359              1047.6252              1072.9157
 Red. masses --      1.7349                 1.5289                 1.5212
 Frc consts  --      1.0245                 0.9886                 1.0317
 IR Inten    --      4.6854                 0.3668                 3.8789

                     25                     26                     27
                      A                      A                      A
 Frequencies --   1078.3313              1088.0635              1104.1222
 Red. masses --      1.3788                 2.0226                 1.5915
 Frc consts  --      0.9446                 1.4108                 1.1431
 IR Inten    --     11.0334                 8.7228                 3.7827

                     28                     29                     30
                      A                      A                      A
 Frequencies --   1177.5979              1218.7089              1252.4062
 Red. masses --      1.6717                 1.4778                 1.8362
 Frc consts  --      1.3659                 1.2932                 1.6969
 IR Inten    --     48.3550                 6.1731                 5.7964

                     31                     32                     33
                      A                      A                      A
 Frequencies --   1268.1916              1293.6294              1322.2638
 Red. masses --      2.2879                 2.0191                 1.7476
 Frc consts  --      2.1680                 1.9908                 1.8002
 IR Inten    --     26.9932                36.3337                35.1956

                     34                     35                     36
                      A                      A                      A
 Frequencies --   1339.1383              1390.7040              1410.5039
 Red. masses --      1.6800                 2.0449                 1.2832
 Frc consts  --      1.7750                 2.3301                 1.5041
 IR Inten    --     21.3588                30.1974                 0.5090

                     37                     38                     39
                      A                      A                      A
 Frequencies --   1435.6901              1470.3743              1480.6214
 Red. masses --      2.2412                 1.2644                 1.3275
 Frc consts  --      2.7217                 1.6106                 1.7147
 IR Inten    --     18.2642                 0.6379                 5.5442

                     40                     41                     42
                      A                      A                      A
 Frequencies --   1486.4153              1497.0943              3033.3489
 Red. masses --      1.1508                 1.1165                 1.0379
 Frc consts  --      1.4981                 1.4743                 5.6265
 IR Inten    --      4.3187                 1.6329                15.7177

                     43                     44                     45
                      A                      A                      A
 Frequencies --   3042.0087              3086.8846              3096.5100
 Red. masses --      1.0582                 1.1032                 1.1001
 Frc consts  --      5.7698                 6.1936                 6.2147
 IR Inten    --     32.2786                 6.9361                23.0901

                     46                     47                     48
                      A                      A                      A
 Frequencies --   3121.8142              3137.6002              3146.6841
 Red. masses --      1.1012                 1.0540                 1.0904
 Frc consts  --      6.3230                 6.1132                 6.3612
 IR Inten    --     14.5633                13.9828                24.2029

                     49                     50                     51
                      A                      A                      A
 Frequencies --   3196.1563              3236.7351              3796.5585
 Red. masses --      1.0922                 1.1162                 1.0663
 Frc consts  --      6.5734                 6.8899                 9.0554
 IR Inten    --      7.9170                 2.4189                19.6769

 - Thermochemistry -
 -------------------
 Temperature   298.150 Kelvin.  Pressure   1.00000 Atm.
 Atom     1 has atomic number  6 and mass  12.00000

 Molecular mass:   126.06808 amu.
 Principal axes and moments of inertia in atomic units:
                           1         2         3
     Eigenvalues --   558.441361256.207571524.88135
           X            0.99870   0.04747   0.01876
           Y           -0.04675   0.99822  -0.03712
           Z           -0.02049   0.03619   0.99913
 This molecule is an asymmetric top.
 Rotational symmetry number  1.
 Warning -- assumption of classical behavior for rotation
           may cause significant error
 Rotational temperatures (Kelvin)      0.15510     0.06895     0.05680
 Rotational constants (GHZ):           3.23175     1.43666     1.18353
 Zero-point vibrational energy     416511.1 (Joules/Mol)
                                   99.54854 (Kcal/Mol)
 Warning -- explicit consideration of  11 degrees of freedom as
           vibrations may cause significant error
 Vibrational temperatures:    235.00   266.93   317.89   403.27   416.48
          (Kelvin)            508.70   568.82   584.50   600.28   788.09
                              817.28   945.43  1042.13  1066.82  1195.79
                             1246.34  1267.26  1291.41  1336.32  1398.76
                             1407.19  1440.41  1507.30  1543.68  1551.48
                             1565.48  1588.58  1694.30  1753.45  1801.93
                             1824.64  1861.24  1902.44  1926.72  2000.91
                             2029.40  2065.64  2115.54  2130.28  2138.62
                             2153.98  4364.31  4376.77  4441.33  4455.18
                             4491.59  4514.30  4527.37  4598.55  4656.93
                             5462.39

 Zero-point correction=                           0.158641 (Hartree/Particle)
 Thermal correction to Energy=                    0.166733
 Thermal correction to Enthalpy=                  0.167678
 Thermal correction to Gibbs Free Energy=         0.126689
 Sum of electronic and zero-point Energies=           -423.007539
 Sum of electronic and thermal Energies=              -422.999446
 Sum of electronic and thermal Enthalpies=            -422.998502
 Sum of electronic and thermal Free Energies=         -423.039491

                     E (Thermal)             CV                S
                      KCal/Mol        Cal/Mol-Kelvin    Cal/Mol-Kelvin
 Total                  104.627             32.670             86.268
 Electronic               0.000              0.000              0.000
 Translational            0.889              2.981             40.409
 Rotational               0.889              2.981             28.461
 Vibrational            102.849             26.709             17.399
 Vibration     1          0.623              1.887              2.511
 Vibration     2          0.632              1.860              2.272
 Vibration     3          0.648              1.809              1.951
 Vibration     4          0.680              1.710              1.532
 Vibration     5          0.686              1.693              1.477
 Vibration     6          0.730              1.568              1.150
 Vibration     7          0.762              1.480              0.980
 Vibration     8          0.771              1.457              0.940
 Vibration     9          0.780              1.433              0.901
 Vibration    10          0.903              1.145              0.549
 Vibration    11          0.924              1.100              0.508

 Optimization completed.
    -- Stationary point found.
 Normal termination of Gaussian 09 at Mon Jan 27 18:26:39 2020.
