 Gaussian 09, Revision D.01,
 Gaussian 09:  ES64L-G09RevD.01 24-Apr-2013

 -----------------------------
 # b3lyp 6-31G(2df,p) opt Freq
 -----------------------------

 -----
 titel
 -----
 Symbolic Z-matrix:
 Charge =  0 Multiplicity = 1

 SCF Done:  E(RB3LYP) =  -423.201585832     A.U. after   13 cycles
 Optimization completed.
    -- Stationary point found.
 Normal termination of Gaussian 09 at Mon Jan 27 12:20:43 2020.

 ----------------------------------------------------------------------
 #N Geom=AllCheck Guess=TCheck SCRF=Check GenChk RB3LYP/6-31G(2df,p) Fr
 eq
 ----------------------------------------------------------------------

 Structure from the checkpoint file:  "/scratch/puck/g09_ca193156-175c-4d34-b357-ac3053ad312e/Gau-73004.chk"
 -----
 titel
 -----
 Charge =  0 Multiplicity = 1

                         Standard orientation:
 ---------------------------------------------------------------------
 Center     Atomic      Atomic             Coordinates (Angstroms)
 Number     Number       Type             X           Y           Z
 ---------------------------------------------------------------------
      1          6           0       -1.985539   -0.517650    0.051314
      2          6           0       -1.675438    0.979812   -0.280400
      3          6           0       -0.154807    0.984213   -0.517698
      4          6           0        0.651763    0.749458    0.779273
      5          6           0        1.997628    0.276963    0.235503
      6          8           0        1.605596   -0.590368   -0.848297
      7          6           0        0.198554   -0.448733   -0.977658
      8          6           0       -0.575917   -1.090393    0.196699
      9          8           0        0.022816   -0.424104    1.338429
     10          1           0       -2.554959   -0.640255    0.974768
     11          1           0       -2.537923   -1.008780   -0.757615
     12          1           0       -2.210630    1.316794   -1.172243
     13          1           0       -1.958653    1.648157    0.537419
     14          1           0        0.231127    1.791739   -1.140515
     15          1           0        0.678615    1.544081    1.525943
     16          1           0        2.629446    1.093187   -0.143424
     17          1           0        2.552306   -0.295996    0.984655
     18          1           0       -0.109010   -0.765365   -1.974545
     19          1           0       -0.485077   -2.169807    0.322310
 ---------------------------------------------------------------------

 SCF Done:  E(RB3LYP) =  -423.201585832     A.U. after    1 cycles

 The electronic state is 1-A.
 Alpha  occ. eigenvalues --  -19.13563 -19.13392 -10.23344 -10.22999 -10.22536
 Alpha  occ. eigenvalues --  -10.22208 -10.19039 -10.18720 -10.18153  -1.05977
 Alpha  occ. eigenvalues --   -1.00409  -0.82346  -0.76831  -0.71236  -0.67424
 Alpha  occ. eigenvalues --   -0.60677  -0.57267  -0.54103  -0.53150  -0.50201
 Alpha  occ. eigenvalues --   -0.47831  -0.44197  -0.41874  -0.40342  -0.38947
 Alpha  occ. eigenvalues --   -0.36929  -0.36648  -0.36129  -0.35401  -0.33768
 Alpha  occ. eigenvalues --   -0.32062  -0.31260  -0.25116  -0.23027
 Alpha virt. eigenvalues --    0.08647   0.09911   0.11627   0.12492   0.13090
 Alpha virt. eigenvalues --    0.14508   0.15010   0.15822   0.16198   0.16417
 Alpha virt. eigenvalues --    0.18143   0.19071   0.20192   0.20837   0.21164

 Mulliken charges:
               1
     1  C   -0.220395
     2  C   -0.237262
     3  C   -0.057838
     4  C    0.063600
     5  C   -0.077815
     6  O   -0.288724
     7  C    0.106824
     8  C    0.081601
     9  O   -0.301696
    10  H    0.110779
    11  H    0.095800
    12  H    0.101837
    13  H    0.107959
    14  H    0.074309
    15  H    0.079115
    16  H    0.090061
    17  H    0.111351
    18  H    0.082914
    19  H    0.077579
 Sum of Mulliken charges =   0.00000

 Dipole moment (field-independent basis, Debye):
    X=             -1.0586    Y=              1.3173    Z=             -0.5574  Tot=              1.7795
 Quadrupole moment (field-independent basis, Debye-Ang):
   XX=            -52.9951   YY=            -51.3323   ZZ=            -55.0020
   XY=              2.9611   XZ=              3.0860   YZ=              0.8478

  Exact polarizability:  82.126   3.657  70.414   3.312   0.740  65.965
 Approx polarizability: 109.168   4.175 105.676   3.219   1.936 104.786

                      1                      2                      3
                      A                      A                      A
 Frequencies --    212.5869               258.0883               330.9229
 Red. masses --      1.9768                 2.7866                 2.3912
 Frc consts  --      0.0526                 0.1094                 0.1543
 IR Inten    --      1.2488                 4.2754                 0.5118

                      4                      5                      6
                      A                      A                      A
 Frequencies --    368.2828               446.3341               551.3375
 Red. masses --      4.0275                 3.3945                 4.9379
 Frc consts  --      0.3218                 0.3984                 0.8844
 IR Inten    --      2.5045                 4.2980                 1.0293

                      7                      8                      9
                      A                      A                      A
 Frequencies --    635.4803               736.0346               756.2001
 Red. masses --      5.7128                 3.6713                 3.5184
 Frc consts  --      1.3593                 1.1718                 1.1854
 IR Inten    --      2.2588                 2.0802                11.1668

                     10                     11                     12
                      A                      A                      A
 Frequencies --    792.6907               852.1621               861.4449
 Red. masses --      1.4878                 4.5432                 3.1194
 Frc consts  --      0.5508                 1.9438                 1.3639
 IR Inten    --      0.4894                13.9839                23.8043

                     13                     14                     15
                      A                      A                      A
 Frequencies --    891.5118               908.5205               928.1303
 Red. masses --      2.6397                 3.0656                 2.2710
 Frc consts  --      1.2361                 1.4908                 1.1526
 IR Inten    --      2.0426                18.0637                 1.3890

                     16                     17                     18
                      A                      A                      A
 Frequencies --    954.6820               960.1786               971.6924
 Red. masses --      1.8586                 2.4710                 2.0502
 Frc consts  --      0.9981                 1.3422                 1.1405
 IR Inten    --      1.6925                10.5364                 0.9178

                     19                     20                     21
                      A                      A                      A
 Frequencies --    973.0166              1018.0291              1039.3421
 Red. masses --      2.7670                 2.1629                 1.6657
 Frc consts  --      1.5435                 1.3207                 1.0601
 IR Inten    --      3.2089                23.2458                 5.9129

                     22                     23                     24
                      A                      A                      A
 Frequencies --   1049.7310              1086.3010              1095.5997
 Red. masses --      3.2707                 1.7855                 4.7862
 Frc consts  --      2.1235                 1.2414                 3.3849
 IR Inten    --     51.0040                 7.6330               104.6871

                     25                     26                     27
                      A                      A                      A
 Frequencies --   1142.5023              1181.8337              1194.7693
 Red. masses --      1.2288                 1.9324                 1.3229
 Frc consts  --      0.9451                 1.5902                 1.1126
 IR Inten    --      5.5101                 3.6187                 2.9609

                     28                     29                     30
                      A                      A                      A
 Frequencies --   1224.3882              1239.6050              1264.8968
 Red. masses --      1.4616                 1.4066                 1.3827
 Frc consts  --      1.2909                 1.2735                 1.3034
 IR Inten    --      1.8422                 1.0376                 1.0910

                     31                     32                     33
                      A                      A                      A
 Frequencies --   1272.1619              1284.8401              1305.6407
 Red. masses --      1.3244                 1.3697                 1.5388
 Frc consts  --      1.2628                 1.3323                 1.5456
 IR Inten    --      0.1615                 2.7811                 4.2135

                     34                     35                     36
                      A                      A                      A
 Frequencies --   1307.2222              1329.7879              1350.1136
 Red. masses --      1.4006                 1.5459                 1.5066
 Frc consts  --      1.4102                 1.6107                 1.6180
 IR Inten    --      2.0490                 5.4631                 0.9448

                     37                     38                     39
                      A                      A                      A
 Frequencies --   1356.0134              1393.6083              1476.1434
 Red. masses --      1.4459                 1.5595                 1.0861
 Frc consts  --      1.5664                 1.7844                 1.3944
 IR Inten    --      1.0828                 2.6818                 1.4384

                     40                     41                     42
                      A                      A                      A
 Frequencies --   1502.2082              1507.8923              3000.1665
 Red. masses --      1.0966                 1.0969                 1.0666
 Frc consts  --      1.4580                 1.4695                 5.6564
 IR Inten    --      2.4841                 0.5679                74.7175

                     43                     44                     45
                      A                      A                      A
 Frequencies --   3044.4418              3059.6645              3080.8081
 Red. masses --      1.0651                 1.0610                 1.0982
 Frc consts  --      5.8162                 5.8520                 6.1411
 IR Inten    --     26.4740                38.8699                26.7276

                     46                     47                     48
                      A                      A                      A
 Frequencies --   3093.4581              3110.6289              3112.0705
 Red. masses --      1.1030                 1.0883                 1.0920
 Frc consts  --      6.2189                 6.2046                 6.2309
 IR Inten    --      8.2776                11.0822                13.3144

                     49                     50                     51
                      A                      A                      A
 Frequencies --   3115.5076              3116.4748              3125.6182
 Red. masses --      1.0874                 1.0978                 1.0933
 Frc consts  --      6.2187                 6.2823                 6.2928
 IR Inten    --     72.3810                38.9141                13.2451

 - Thermochemistry -
 -------------------
 Temperature   298.150 Kelvin.  Pressure   1.00000 Atm.
 Atom     1 has atomic number  6 and mass  12.00000

 Molecular mass:   126.06808 amu.
 Principal axes and moments of inertia in atomic units:
                           1         2         3
     Eigenvalues --   547.349181043.336701047.95277
           X            0.99942   0.01419   0.03084
           Y           -0.01921   0.98542   0.16907
           Z           -0.02799  -0.16956   0.98512
 This molecule is an asymmetric top.
 Rotational symmetry number  1.
 Warning -- assumption of classical behavior for rotation
           may cause significant error
 Rotational temperatures (Kelvin)      0.15824     0.08302     0.08265
 Rotational constants (GHZ):           3.29724     1.72978     1.72216
 Zero-point vibrational energy     429882.6 (Joules/Mol)
                                  102.74442 (Kcal/Mol)
 Warning -- explicit consideration of   6 degrees of freedom as
           vibrations may cause significant error
 Vibrational temperatures:    305.86   371.33   476.12   529.88   642.17
          (Kelvin)            793.25   914.31  1058.99  1088.00  1140.50
                             1226.07  1239.43  1282.68  1307.16  1335.37
                             1373.57  1381.48  1398.05  1399.95  1464.71
                             1495.38  1510.33  1562.94  1576.32  1643.80
                             1700.39  1719.00  1761.62  1783.51  1819.90
                             1830.35  1848.60  1878.52  1880.80  1913.27
                             1942.51  1951.00  2005.09  2123.84  2161.34
                             2169.52  4316.56  4380.27  4402.17  4432.59
                             4450.79  4475.50  4477.57  4482.51  4483.91
                             4497.06

 Zero-point correction=                           0.163734 (Hartree/Particle)
 Thermal correction to Energy=                    0.169972
 Thermal correction to Enthalpy=                  0.170916
 Thermal correction to Gibbs Free Energy=         0.133468
 Sum of electronic and zero-point Energies=           -423.037852
 Sum of electronic and thermal Energies=              -423.031614
 Sum of electronic and thermal Enthalpies=            -423.030670
 Sum of electronic and thermal Free Energies=         -423.068118

                     E (Thermal)             CV                S
                      KCal/Mol        Cal/Mol-Kelvin    Cal/Mol-Kelvin
 Total                  106.659             26.684             78.815
 Electronic               0.000              0.000              0.000
 Translational            0.889              2.981             40.409
 Rotational               0.889              2.981             27.883
 Vibrational            104.881             20.722             10.523
 Vibration     1          0.644              1.822              2.021
 Vibration     2          0.667              1.749              1.675
 Vibration     3          0.713              1.614              1.256
 Vibration     4          0.741              1.537              1.087
 Vibration     5          0.806              1.369              0.807
 Vibration     6          0.907              1.137              0.541

 Optimization completed.
    -- Stationary point found.
 Normal termination of Gaussian 09 at Mon Jan 27 13:12:15 2020.
