 Gaussian 09, Revision D.01,
 Gaussian 09:  ES64L-G09RevD.01 24-Apr-2013

 -----------------------------
 # b3lyp 6-31G(2df,p) opt Freq
 -----------------------------

 -----
 titel
 -----
 Symbolic Z-matrix:
 Charge =  0 Multiplicity = 1

 SCF Done:  E(RB3LYP) =  -423.177259605     A.U. after   14 cycles
 Optimization completed.
    -- Stationary point found.
 Normal termination of Gaussian 09 at Mon Jan 27 18:28:48 2020.

 ----------------------------------------------------------------------
 #N Geom=AllCheck Guess=TCheck SCRF=Check GenChk RB3LYP/6-31G(2df,p) Fr
 eq
 ----------------------------------------------------------------------

 Structure from the checkpoint file:  "/scratch/puck/g09_ee17d2bd-2b12-4cb5-ad32-fc723dbbd22e/Gau-65553.chk"
 -----
 titel
 -----
 Charge =  0 Multiplicity = 1

                         Standard orientation:
 ---------------------------------------------------------------------
 Center     Atomic      Atomic             Coordinates (Angstroms)
 Number     Number       Type             X           Y           Z
 ---------------------------------------------------------------------
      1          6           0       -2.273199   -0.604187    0.066285
      2          6           0       -0.842786   -0.127263    0.011081
      3          6           0       -0.098655    0.201797    1.317135
      4          6           0        1.152649    0.722738    0.581333
      5          6           0        0.473881    1.748060   -0.359107
      6          8           0       -0.785564    1.138932   -0.699608
      7          6           0        1.484608   -0.455231   -0.343367
      8          8           0        1.077981   -1.751278    0.113337
      9          6           0        0.182055   -1.008728   -0.727356
     10          1           0       -2.331547   -1.567262    0.582135
     11          1           0       -2.901100    0.118114    0.595324
     12          1           0       -2.675639   -0.729626   -0.943714
     13          1           0       -0.615429    0.979463    1.883661
     14          1           0        0.095246   -0.666077    1.943885
     15          1           0        1.967815    1.123005    1.184241
     16          1           0        0.292851    2.706220    0.143716
     17          1           0        1.051151    1.938725   -1.272449
     18          1           0        2.347564   -0.431696   -1.002216
     19          1           0       -0.041564   -1.435203   -1.700446
 ---------------------------------------------------------------------

 SCF Done:  E(RB3LYP) =  -423.177259605     A.U. after    1 cycles

 The electronic state is 1-A.
 Alpha  occ. eigenvalues --  -19.15248 -19.13449 -10.23968 -10.23556 -10.23033
 Alpha  occ. eigenvalues --  -10.22953 -10.19902 -10.18110 -10.17780  -1.07696
 Alpha  occ. eigenvalues --   -1.02794  -0.80707  -0.77459  -0.68143  -0.68122
 Alpha  occ. eigenvalues --   -0.63270  -0.56840  -0.54100  -0.52445  -0.49927
 Alpha  occ. eigenvalues --   -0.46867  -0.44618  -0.43168  -0.40647  -0.39311
 Alpha  occ. eigenvalues --   -0.38118  -0.37077  -0.36916  -0.35365  -0.33876
 Alpha  occ. eigenvalues --   -0.30937  -0.29953  -0.26653  -0.24353
 Alpha virt. eigenvalues --    0.08787   0.10247   0.10434   0.11319   0.12753
 Alpha virt. eigenvalues --    0.13832   0.14816   0.15314   0.16668   0.16752
 Alpha virt. eigenvalues --    0.17274   0.18672   0.19699   0.20479   0.22145

 Mulliken charges:
               1
     1  C   -0.489815
     2  C    0.385391
     3  C   -0.265547
     4  C   -0.113228
     5  C   -0.074933
     6  O   -0.310520
     7  C    0.048586
     8  O   -0.265501
     9  C    0.013108
    10  H    0.126845
    11  H    0.124168
    12  H    0.125878
    13  H    0.099587
    14  H    0.123133
    15  H    0.073251
    16  H    0.100645
    17  H    0.099229
    18  H    0.100017
    19  H    0.099707
 Sum of Mulliken charges =   0.00000

 Dipole moment (field-independent basis, Debye):
    X=              0.4183    Y=              0.9374    Z=              0.1580  Tot=              1.0386
 Quadrupole moment (field-independent basis, Debye-Ang):
   XX=            -51.6929   YY=            -56.0182   ZZ=            -52.0093
   XY=              4.9672   XZ=             -2.1019   YZ=              2.8361

  Exact polarizability:  78.260   4.483  74.205  -1.139   2.103  66.617
 Approx polarizability: 110.894   3.204 112.448   2.296  -1.035 101.452

                      1                      2                      3
                      A                      A                      A
 Frequencies --    211.4599               232.1084               278.9971
 Red. masses --      1.1858                 2.1618                 2.8230
 Frc consts  --      0.0312                 0.0686                 0.1295
 IR Inten    --      1.2091                 2.0519                 3.0113

                      4                      5                      6
                      A                      A                      A
 Frequencies --    299.2245               372.8746               418.3031
 Red. masses --      2.3735                 3.7801                 3.4830
 Frc consts  --      0.1252                 0.3097                 0.3591
 IR Inten    --      0.2217                 9.8828                 5.7448

                      7                      8                      9
                      A                      A                      A
 Frequencies --    477.3154               554.4362               586.0799
 Red. masses --      2.5168                 3.5462                 4.1888
 Frc consts  --      0.3378                 0.6423                 0.8477
 IR Inten    --      1.7141                 3.0657                 0.8138

                     10                     11                     12
                      A                      A                      A
 Frequencies --    639.4697               786.7762               818.0069
 Red. masses --      4.3766                 3.8971                 3.3592
 Frc consts  --      1.0544                 1.4213                 1.3244
 IR Inten    --      1.1438                 1.2765                 7.5756

                     13                     14                     15
                      A                      A                      A
 Frequencies --    849.3234               852.4947               885.5487
 Red. masses --      2.7761                 3.1699                 2.0758
 Frc consts  --      1.1798                 1.3573                 0.9591
 IR Inten    --      3.6056                15.7491                32.8055

                     16                     17                     18
                      A                      A                      A
 Frequencies --    902.2821               921.0166               933.7407
 Red. masses --      2.9409                 2.3398                 3.4252
 Frc consts  --      1.4106                 1.1694                 1.7595
 IR Inten    --      5.4302                10.9525                11.7286

                     19                     20                     21
                      A                      A                      A
 Frequencies --    954.2556               972.1879              1007.3790
 Red. masses --      2.1231                 1.5679                 1.9723
 Frc consts  --      1.1391                 0.8731                 1.1793
 IR Inten    --     10.9640                13.3799                18.3643

                     22                     23                     24
                      A                      A                      A
 Frequencies --   1029.9853              1054.3049              1102.4432
 Red. masses --      2.1379                 1.5010                 1.4907
 Frc consts  --      1.3363                 0.9830                 1.0675
 IR Inten    --     30.9284                 2.3009                18.4071

                     25                     26                     27
                      A                      A                      A
 Frequencies --   1114.3823              1149.3476              1181.1703
 Red. masses --      1.4041                 2.0845                 1.4291
 Frc consts  --      1.0273                 1.6224                 1.1748
 IR Inten    --     10.0603                12.9585                 7.7956

                     28                     29                     30
                      A                      A                      A
 Frequencies --   1207.9088              1236.3278              1249.9741
 Red. masses --      1.2982                 1.9243                 1.6730
 Frc consts  --      1.1160                 1.7329                 1.5401
 IR Inten    --      3.9470                 2.3016                 4.6378

                     31                     32                     33
                      A                      A                      A
 Frequencies --   1255.7612              1293.0874              1309.5028
 Red. masses --      1.5558                 1.6914                 1.8088
 Frc consts  --      1.4455                 1.6663                 1.8275
 IR Inten    --      3.7032                 3.2110                 2.8513

                     34                     35                     36
                      A                      A                      A
 Frequencies --   1343.3892              1367.6283              1411.9201
 Red. masses --      1.9519                 1.4012                 1.6412
 Frc consts  --      2.0755                 1.5441                 1.9277
 IR Inten    --     18.7373                 1.2361                 4.7718

                     37                     38                     39
                      A                      A                      A
 Frequencies --   1422.2796              1480.9854              1483.5885
 Red. masses --      2.2314                 1.1606                 1.0519
 Frc consts  --      2.6595                 1.4998                 1.3641
 IR Inten    --     17.3194                 6.2710                 4.4176

                     40                     41                     42
                      A                      A                      A
 Frequencies --   1496.1134              1524.4935              3014.6070
 Red. masses --      1.0557                 1.0951                 1.0560
 Frc consts  --      1.3923                 1.4995                 5.6542
 IR Inten    --      3.2287                 0.4067                70.0688

                     43                     44                     45
                      A                      A                      A
 Frequencies --   3041.7342              3051.7527              3086.2129
 Red. masses --      1.0351                 1.1099                 1.0637
 Frc consts  --      5.6423                 6.0904                 5.9693
 IR Inten    --     17.1654                34.5981                19.2533

                     46                     47                     48
                      A                      A                      A
 Frequencies --   3112.5018              3116.7355              3120.0232
 Red. masses --      1.1012                 1.0884                 1.1018
 Frc consts  --      6.2855                 6.2292                 6.3192
 IR Inten    --     13.7269                32.8140                16.1194

                     49                     50                     51
                      A                      A                      A
 Frequencies --   3156.5201              3163.1895              3169.7934
 Red. masses --      1.0874                 1.1024                 1.0970
 Frc consts  --      6.3833                 6.4988                 6.4942
 IR Inten    --     18.5488                 7.1500                20.3603

 - Thermochemistry -
 -------------------
 Temperature   298.150 Kelvin.  Pressure   1.00000 Atm.
 Atom     1 has atomic number  6 and mass  12.00000

 Molecular mass:   126.06808 amu.
 Principal axes and moments of inertia in atomic units:
                           1         2         3
     Eigenvalues --   739.60839 848.462161173.06408
           X            0.95487   0.29623  -0.02167
           Y           -0.29569   0.95496   0.02495
           Z            0.02809  -0.01741   0.99945
 This molecule is an asymmetric top.
 Rotational symmetry number  1.
 Warning -- assumption of classical behavior for rotation
           may cause significant error
 Rotational temperatures (Kelvin)      0.11711     0.10208     0.07384
 Rotational constants (GHZ):           2.44013     2.12707     1.53848
 Zero-point vibrational energy     422885.6 (Joules/Mol)
                                  101.07207 (Kcal/Mol)
 Warning -- explicit consideration of   9 degrees of freedom as
           vibrations may cause significant error
 Vibrational temperatures:    304.24   333.95   401.41   430.52   536.48
          (Kelvin)            601.84   686.75   797.71   843.24   920.05
                             1131.99  1176.93  1221.99  1226.55  1274.11
                             1298.18  1325.14  1343.44  1372.96  1398.76
                             1449.39  1481.92  1516.91  1586.17  1603.35
                             1653.65  1699.44  1737.91  1778.80  1798.43
                             1806.76  1860.46  1884.08  1932.83  1967.71
                             2031.44  2046.34  2130.80  2134.55  2152.57
                             2193.40  4337.34  4376.37  4390.79  4440.37
                             4478.19  4484.28  4489.01  4541.52  4551.12
                             4560.62

 Zero-point correction=                           0.161069 (Hartree/Particle)
 Thermal correction to Energy=                    0.168084
 Thermal correction to Enthalpy=                  0.169028
 Thermal correction to Gibbs Free Energy=         0.130200
 Sum of electronic and zero-point Energies=           -423.016191
 Sum of electronic and thermal Energies=              -423.009175
 Sum of electronic and thermal Enthalpies=            -423.008231
 Sum of electronic and thermal Free Energies=         -423.047060

                     E (Thermal)             CV                S
                      KCal/Mol        Cal/Mol-Kelvin    Cal/Mol-Kelvin
 Total                  105.474             29.396             81.722
 Electronic               0.000              0.000              0.000
 Translational            0.889              2.981             40.409
 Rotational               0.889              2.981             28.089
 Vibrational            103.697             23.435             13.224
 Vibration     1          0.643              1.823              2.031
 Vibration     2          0.653              1.792              1.863
 Vibration     3          0.679              1.712              1.540
 Vibration     4          0.692              1.675              1.421
 Vibration     5          0.744              1.528              1.068
 Vibration     6          0.781              1.430              0.898
 Vibration     7          0.834              1.300              0.717
 Vibration     8          0.910              1.130              0.535
 Vibration     9          0.943              1.061              0.474

 Optimization completed.
    -- Stationary point found.
 Normal termination of Gaussian 09 at Mon Jan 27 19:13:03 2020.
