 Gaussian 09, Revision D.01,
 Gaussian 09:  ES64L-G09RevD.01 24-Apr-2013

 -----------------------------
 # b3lyp 6-31G(2df,p) opt Freq
 -----------------------------

 -----
 titel
 -----
 Symbolic Z-matrix:
 Charge =  0 Multiplicity = 1

 SCF Done:  E(RB3LYP) =  -423.142507198     A.U. after   14 cycles
 Optimization completed.
    -- Stationary point found.
 Normal termination of Gaussian 09 at Mon Jan 27 17:10:23 2020.

 ----------------------------------------------------------------------
 #N Geom=AllCheck Guess=TCheck SCRF=Check GenChk RB3LYP/6-31G(2df,p) Fr
 eq
 ----------------------------------------------------------------------

 Structure from the checkpoint file:  "/scratch/puck/g09_2c871c45-1b5b-4162-9e06-25242b6e4269/Gau-49962.chk"
 -----
 titel
 -----
 Charge =  0 Multiplicity = 1

                         Standard orientation:
 ---------------------------------------------------------------------
 Center     Atomic      Atomic             Coordinates (Angstroms)
 Number     Number       Type             X           Y           Z
 ---------------------------------------------------------------------
      1          6           0        0.596442    1.847552    0.763806
      2          6           0        0.322608    0.603351   -0.088831
      3          6           0        1.669610    0.072754   -0.519561
      4          8           0        2.136821   -0.970226   -0.122175
      5          6           0       -0.864330    0.602167   -1.124897
      6          6           0       -1.845606    0.476275    0.088234
      7          6           0       -0.686871   -0.506383    0.374571
      8          8           0       -0.569945   -1.294918    1.494796
      9          6           0       -0.808417   -0.949295   -1.128214
     10          1           0        1.308815    2.511362    0.259441
     11          1           0       -0.302949    2.431379    0.962645
     12          1           0        1.036427    1.562862    1.725521
     13          1           0        2.263566    0.736272   -1.190342
     14          1           0       -0.973639    1.257540   -1.986122
     15          1           0       -1.966931    1.333015    0.749837
     16          1           0       -2.811215    0.020606   -0.142872
     17          1           0        0.293895   -1.724140    1.434511
     18          1           0        0.054479   -1.430329   -1.589176
     19          1           0       -1.738075   -1.455942   -1.395058
 ---------------------------------------------------------------------

 SCF Done:  E(RB3LYP) =  -423.142507198     A.U. after    1 cycles

 The electronic state is 1-A.
 Alpha  occ. eigenvalues --  -19.15013 -19.14373 -10.27602 -10.25238 -10.21496
 Alpha  occ. eigenvalues --  -10.20828 -10.19200 -10.19010 -10.18736  -1.05582
 Alpha  occ. eigenvalues --   -1.03257  -0.91480  -0.76450  -0.68533  -0.64648
 Alpha  occ. eigenvalues --   -0.62396  -0.60239  -0.54219  -0.51823  -0.48314
 Alpha  occ. eigenvalues --   -0.46533  -0.45110  -0.42964  -0.41625  -0.39792
 Alpha  occ. eigenvalues --   -0.38288  -0.37694  -0.37078  -0.34085  -0.33764
 Alpha  occ. eigenvalues --   -0.32362  -0.30109  -0.26099  -0.25318
 Alpha virt. eigenvalues --   -0.03226   0.09318   0.09924   0.11308   0.12230
 Alpha virt. eigenvalues --    0.13534   0.13988   0.14504   0.15148   0.16235
 Alpha virt. eigenvalues --    0.16438   0.17922   0.19106   0.21324   0.21929

 Mulliken charges:
               1
     1  C   -0.494646
     2  C    0.205403
     3  C    0.080611
     4  O   -0.266867
     5  C   -0.114311
     6  C   -0.280726
     7  C    0.395206
     8  O   -0.477325
     9  C   -0.302826
    10  H    0.121200
    11  H    0.133057
    12  H    0.138399
    13  H    0.081602
    14  H    0.084345
    15  H    0.099074
    16  H    0.100694
    17  H    0.292990
    18  H    0.108658
    19  H    0.095463
 Sum of Mulliken charges =   0.00000

 Dipole moment (field-independent basis, Debye):
    X=             -0.3388    Y=              2.0184    Z=             -1.2501  Tot=              2.3983
 Quadrupole moment (field-independent basis, Debye-Ang):
   XX=            -56.1517   YY=            -52.9067   ZZ=            -54.0616
   XY=              1.7903   XZ=              1.7364   YZ=              0.6623

  Exact polarizability:  81.365   0.037  77.021   0.455   0.726  68.862
 Approx polarizability: 116.025  -5.655 119.061   0.659  -5.001 106.505

                      1                      2                      3
                      A                      A                      A
 Frequencies --     98.6945               133.0276               145.1536
 Red. masses --      4.2465                 2.8749                 1.3035
 Frc consts  --      0.0244                 0.0300                 0.0162
 IR Inten    --      3.7564                 4.5385                 1.8014

                      4                      5                      6
                      A                      A                      A
 Frequencies --    201.1887               299.7702               355.2484
 Red. masses --      3.1380                 2.7615                 2.5036
 Frc consts  --      0.0748                 0.1462                 0.1862
 IR Inten    --      0.6934                 1.4202                 0.9445

                      7                      8                      9
                      A                      A                      A
 Frequencies --    365.4407               404.5665               453.3781
 Red. masses --      3.0434                 2.5252                 1.3983
 Frc consts  --      0.2395                 0.2435                 0.1693
 IR Inten    --      3.6304                15.2961                78.3907

                     10                     11                     12
                      A                      A                      A
 Frequencies --    498.0061               564.2595               606.3184
 Red. masses --      2.7971                 2.3495                 2.8467
 Frc consts  --      0.4087                 0.4407                 0.6166
 IR Inten    --     22.1602                 0.3893                 7.2968

                     13                     14                     15
                      A                      A                      A
 Frequencies --    664.9323               732.5585               790.7751
 Red. masses --      3.8062                 3.1149                 3.2513
 Frc consts  --      0.9915                 0.9849                 1.1979
 IR Inten    --      5.5600                 5.1641                 4.7148

                     16                     17                     18
                      A                      A                      A
 Frequencies --    816.1339               918.6287               929.6838
 Red. masses --      3.4244                 2.3057                 1.6531
 Frc consts  --      1.3439                 1.1464                 0.8418
 IR Inten    --      5.3070                11.3972                24.1626

                     19                     20                     21
                      A                      A                      A
 Frequencies --    946.1208               955.8158               985.3902
 Red. masses --      1.6800                 1.9305                 1.8810
 Frc consts  --      0.8860                 1.0391                 1.0761
 IR Inten    --      9.6862                 0.7279                 3.1337

                     22                     23                     24
                      A                      A                      A
 Frequencies --   1013.3091              1038.0864              1064.1285
 Red. masses --      1.3585                 1.3372                 1.4859
 Frc consts  --      0.8219                 0.8490                 0.9913
 IR Inten    --      1.4008                 8.2326                 2.7059

                     25                     26                     27
                      A                      A                      A
 Frequencies --   1111.8067              1128.4111              1142.0052
 Red. masses --      1.4802                 1.7067                 1.4981
 Frc consts  --      1.0780                 1.2804                 1.1512
 IR Inten    --     13.8433                 4.7407                 2.9826

                     28                     29                     30
                      A                      A                      A
 Frequencies --   1175.6472              1190.8209              1215.1736
 Red. masses --      2.3784                 1.6164                 1.8863
 Frc consts  --      1.9368                 1.3505                 1.6411
 IR Inten    --      0.3222                 0.7680                 1.1743

                     31                     32                     33
                      A                      A                      A
 Frequencies --   1216.8218              1250.6410              1327.3246
 Red. masses --      2.3533                 2.7012                 3.2432
 Frc consts  --      2.0529                 2.4893                 3.3665
 IR Inten    --      5.7571                67.1468               223.8735

                     34                     35                     36
                      A                      A                      A
 Frequencies --   1389.2015              1407.3948              1419.7338
 Red. masses --      1.7109                 1.3081                 1.2466
 Frc consts  --      1.9454                 1.5266                 1.4804
 IR Inten    --      0.5383                 6.1020                 5.0288

                     37                     38                     39
                      A                      A                      A
 Frequencies --   1489.0857              1494.4272              1516.5289
 Red. masses --      1.0734                 1.0505                 1.0881
 Frc consts  --      1.4024                 1.3823                 1.4744
 IR Inten    --      1.2784                 9.2757                 3.6692

                     40                     41                     42
                      A                      A                      A
 Frequencies --   1555.3302              1797.0049              2861.7808
 Red. masses --      1.1827                10.6498                 1.0826
 Frc consts  --      1.6856                20.2624                 5.2240
 IR Inten    --      8.7155               139.0583               127.0904

                     43                     44                     45
                      A                      A                      A
 Frequencies --   3032.8211              3073.2328              3078.5335
 Red. masses --      1.0402                 1.0580                 1.0571
 Frc consts  --      5.6369                 5.8875                 5.9025
 IR Inten    --     26.3678                30.9672                28.3251

                     46                     47                     48
                      A                      A                      A
 Frequencies --   3089.8393              3132.0108              3142.4381
 Red. masses --      1.0983                 1.1009                 1.0939
 Frc consts  --      6.1782                 6.3629                 6.3643
 IR Inten    --     15.9571                12.8957                32.8914

                     49                     50                     51
                      A                      A                      A
 Frequencies --   3145.0042              3149.6860              3772.3689
 Red. masses --      1.1086                 1.1022                 1.0651
 Frc consts  --      6.4607                 6.4425                 8.9306
 IR Inten    --     30.2446                28.6030                47.4870

 - Thermochemistry -
 -------------------
 Temperature   298.150 Kelvin.  Pressure   1.00000 Atm.
 Atom     1 has atomic number  6 and mass  12.00000

 Molecular mass:   126.06808 amu.
 Principal axes and moments of inertia in atomic units:
                           1         2         3
     Eigenvalues --   816.994401068.192811211.16087
           X            0.99844   0.04750   0.02922
           Y           -0.05090   0.99031   0.12920
           Z           -0.02280  -0.13048   0.99119
 This molecule is an asymmetric top.
 Rotational symmetry number  1.
 Warning -- assumption of classical behavior for rotation
           may cause significant error
 Rotational temperatures (Kelvin)      0.10602     0.08108     0.07151
 Rotational constants (GHZ):           2.20900     1.68953     1.49009
 Zero-point vibrational energy     414420.5 (Joules/Mol)
                                   99.04887 (Kcal/Mol)
 Warning -- explicit consideration of  12 degrees of freedom as
           vibrations may cause significant error
 Vibrational temperatures:    142.00   191.40   208.84   289.47   431.30
          (Kelvin)            511.12   525.79   582.08   652.31   716.52
                              811.84   872.36   956.69  1053.99  1137.75
                             1174.23  1321.70  1337.61  1361.26  1375.20
                             1417.75  1457.92  1493.57  1531.04  1599.64
                             1623.53  1643.09  1691.49  1713.32  1748.36
                             1750.73  1799.39  1909.72  1998.75  2024.92
                             2042.68  2142.46  2150.14  2181.94  2237.77
                             2585.49  4117.46  4363.55  4421.69  4429.32
                             4445.58  4506.26  4521.26  4524.95  4531.69
                             5427.59

 Zero-point correction=                           0.157844 (Hartree/Particle)
 Thermal correction to Energy=                    0.166452
 Thermal correction to Enthalpy=                  0.167396
 Thermal correction to Gibbs Free Energy=         0.124896
 Sum of electronic and zero-point Energies=           -422.984663
 Sum of electronic and thermal Energies=              -422.976055
 Sum of electronic and thermal Enthalpies=            -422.975111
 Sum of electronic and thermal Free Energies=         -423.017611

                     E (Thermal)             CV                S
                      KCal/Mol        Cal/Mol-Kelvin    Cal/Mol-Kelvin
 Total                  104.450             33.251             89.449
 Electronic               0.000              0.000              0.000
 Translational            0.889              2.981             40.409
 Rotational               0.889              2.981             28.449
 Vibrational            102.673             27.289             20.591
 Vibration     1          0.604              1.950              3.480
 Vibration     2          0.613              1.920              2.902
 Vibration     3          0.617              1.908              2.735
 Vibration     4          0.638              1.838              2.122
 Vibration     5          0.692              1.674              1.418
 Vibration     6          0.731              1.564              1.143
 Vibration     7          0.739              1.543              1.099
 Vibration     8          0.770              1.460              0.946
 Vibration     9          0.812              1.353              0.786
 Vibration    10          0.853              1.254              0.663
 Vibration    11          0.920              1.109              0.515
 Vibration    12          0.965              1.018              0.439

 Optimization completed.
    -- Stationary point found.
 Normal termination of Gaussian 09 at Mon Jan 27 17:55:30 2020.
