 Gaussian 09, Revision D.01,
 Gaussian 09:  ES64L-G09RevD.01 24-Apr-2013

 -----------------------------
 # b3lyp 6-31G(2df,p) opt Freq
 -----------------------------

 -----
 titel
 -----
 Symbolic Z-matrix:
 Charge =  0 Multiplicity = 1

 SCF Done:  E(RB3LYP) =  -423.077176923     A.U. after   14 cycles
 Optimization completed.
    -- Stationary point found.
 Normal termination of Gaussian 09 at Tue Jan 28 14:10:49 2020.

 ----------------------------------------------------------------------
 #N Geom=AllCheck Guess=TCheck SCRF=Check GenChk RB3LYP/6-31G(2df,p) Fr
 eq
 ----------------------------------------------------------------------

 Structure from the checkpoint file:  "/scratch/puck/g09_43a9fcd1-1bfe-487f-ac50-54c8b2e90c1c/Gau-144534.chk"
 -----
 titel
 -----
 Charge =  0 Multiplicity = 1

                         Standard orientation:
 ---------------------------------------------------------------------
 Center     Atomic      Atomic             Coordinates (Angstroms)
 Number     Number       Type             X           Y           Z
 ---------------------------------------------------------------------
      1          6           0        3.532353    0.488451    0.039268
      2          6           0        2.316847   -0.308202   -0.402657
      3          8           0        1.240442   -0.005724    0.468427
      4          6           0        0.066486   -0.716378    0.185377
      5          6           0       -1.145112   -0.253630    0.999937
      6          6           0       -1.405749    0.955659    0.043111
      7          8           0       -2.812436    0.636367   -0.172680
      8          6           0       -2.134716   -0.654586   -0.137487
      9          6           0       -0.873454   -0.162538   -0.912682
     10          1           0        4.385577    0.275325   -0.611506
     11          1           0        3.323663    1.561272   -0.001796
     12          1           0        3.805202    0.232347    1.066922
     13          1           0        2.049120   -0.060239   -1.442392
     14          1           0        2.530561   -1.389774   -0.373524
     15          1           0        0.257109   -1.799694    0.154087
     16          1           0       -1.322092   -0.293375    2.073595
     17          1           0       -1.111275    1.998361    0.137058
     18          1           0       -2.723327   -1.561995   -0.263537
     19          1           0       -0.758514   -0.100036   -1.994085
 ---------------------------------------------------------------------

 SCF Done:  E(RB3LYP) =  -423.077176923     A.U. after    1 cycles

 The electronic state is 1-A.
 Alpha  occ. eigenvalues --  -19.14198 -19.12762 -10.25148 -10.24910 -10.24033
 Alpha  occ. eigenvalues --  -10.23131 -10.20080 -10.20028 -10.17807  -1.06390
 Alpha  occ. eigenvalues --   -1.03589  -0.86489  -0.75548  -0.65605  -0.65254
 Alpha  occ. eigenvalues --   -0.64172  -0.60263  -0.52896  -0.51312  -0.50081
 Alpha  occ. eigenvalues --   -0.48692  -0.45958  -0.43469  -0.41033  -0.39673
 Alpha  occ. eigenvalues --   -0.38433  -0.36898  -0.34765  -0.32360  -0.31720
 Alpha  occ. eigenvalues --   -0.31438  -0.30090  -0.25716  -0.23049
 Alpha virt. eigenvalues --    0.08041   0.09325   0.10909   0.11486   0.12117
 Alpha virt. eigenvalues --    0.12835   0.13728   0.14672   0.15568   0.16673
 Alpha virt. eigenvalues --    0.17491   0.17769   0.18607   0.19260   0.19797

 Mulliken charges:
               1
     1  C   -0.384597
     2  C   -0.039384
     3  O   -0.265897
     4  C    0.130441
     5  C   -0.141850
     6  C    0.101119
     7  O   -0.327920
     8  C    0.081575
     9  C   -0.140889
    10  H    0.115443
    11  H    0.126980
    12  H    0.127765
    13  H    0.089430
    14  H    0.087604
    15  H    0.065003
    16  H    0.088184
    17  H    0.104826
    18  H    0.097421
    19  H    0.084745
 Sum of Mulliken charges =   0.00000

 Dipole moment (field-independent basis, Debye):
    X=              1.8387    Y=             -1.2988    Z=             -0.5820  Tot=              2.3252
 Quadrupole moment (field-independent basis, Debye-Ang):
   XX=            -58.2282   YY=            -50.9189   ZZ=            -52.4805
   XY=              3.2122   XZ=             -2.3193   YZ=              0.1571

  Exact polarizability:  90.463   1.447  69.955  -1.264   0.266  67.266
 Approx polarizability: 114.306   0.212 108.091  -0.786   0.772 104.353

                      1                      2                      3
                      A                      A                      A
 Frequencies --     64.4654                81.3823               130.6554
 Red. masses --      3.1531                 2.0016                 3.6066
 Frc consts  --      0.0077                 0.0078                 0.0363
 IR Inten    --      0.1757                 0.8073                 0.4614

                      4                      5                      6
                      A                      A                      A
 Frequencies --    228.9093               264.2271               343.8477
 Red. masses --      1.6123                 2.1367                 3.2323
 Frc consts  --      0.0498                 0.0879                 0.2252
 IR Inten    --      0.9240                 3.6521                 1.9939

                      7                      8                      9
                      A                      A                      A
 Frequencies --    385.9273               555.2657               601.3646
 Red. masses --      5.0617                 3.9529                 3.8682
 Frc consts  --      0.4442                 0.7181                 0.8242
 IR Inten    --      1.2456                 3.0124                 2.3711

                     10                     11                     12
                      A                      A                      A
 Frequencies --    748.4346               788.2199               801.3883
 Red. masses --      3.5631                 3.0461                 2.8126
 Frc consts  --      1.1759                 1.1150                 1.0642
 IR Inten    --      0.2144                 0.8511                 8.9741

                     13                     14                     15
                      A                      A                      A
 Frequencies --    819.9095               837.4900               863.2562
 Red. masses --      1.1062                 1.9482                 2.7723
 Frc consts  --      0.4381                 0.8051                 1.2172
 IR Inten    --      0.8619                 5.6831                14.2055

                     16                     17                     18
                      A                      A                      A
 Frequencies --    887.1951               912.0723               925.0125
 Red. masses --      2.6435                 2.1371                 1.8884
 Frc consts  --      1.2259                 1.0475                 0.9520
 IR Inten    --     20.6723                15.3121                24.3369

                     19                     20                     21
                      A                      A                      A
 Frequencies --    960.8994               981.7967              1029.2808
 Red. masses --      1.8742                 1.6278                 3.3069
 Frc consts  --      1.0196                 0.9244                 2.0641
 IR Inten    --      3.9289                 1.9515                 6.3090

                     22                     23                     24
                      A                      A                      A
 Frequencies --   1056.2355              1106.4594              1125.3410
 Red. masses --      3.4567                 1.4776                 1.7508
 Frc consts  --      2.2721                 1.0658                 1.3063
 IR Inten    --      9.2627                 1.7127                 9.3418

                     25                     26                     27
                      A                      A                      A
 Frequencies --   1135.9651              1145.9653              1161.2118
 Red. masses --      2.6619                 2.1307                 3.0096
 Frc consts  --      2.0238                 1.6486                 2.3910
 IR Inten    --     68.3683                34.2096               144.7772

                     28                     29                     30
                      A                      A                      A
 Frequencies --   1167.2865              1174.9895              1182.4061
 Red. masses --      1.8314                 1.5499                 2.0384
 Frc consts  --      1.4703                 1.2607                 1.6791
 IR Inten    --     12.3729                 6.3763                55.3494

                     31                     32                     33
                      A                      A                      A
 Frequencies --   1190.0065              1257.6006              1289.0165
 Red. masses --      1.5926                 1.8269                 1.6470
 Frc consts  --      1.3287                 1.7024                 1.6123
 IR Inten    --      9.7649                 0.4504                 1.9534

                     34                     35                     36
                      A                      A                      A
 Frequencies --   1296.9702              1332.6519              1379.0103
 Red. masses --      1.1101                 1.9467                 1.2727
 Frc consts  --      1.1002                 2.0370                 1.4260
 IR Inten    --      1.6715                27.2486                68.6184

                     37                     38                     39
                      A                      A                      A
 Frequencies --   1405.0600              1444.7002              1483.0385
 Red. masses --      1.2622                 1.4687                 1.0405
 Frc consts  --      1.4681                 1.8061                 1.3484
 IR Inten    --     12.6598                 3.8199                 4.3177

                     40                     41                     42
                      A                      A                      A
 Frequencies --   1499.9058              1529.0328              2961.8777
 Red. masses --      1.0456                 1.0912                 1.0565
 Frc consts  --      1.3860                 1.5031                 5.4606
 IR Inten    --      1.9956                 2.1152                38.4421

                     43                     44                     45
                      A                      A                      A
 Frequencies --   2990.0980              2992.1002              3045.2613
 Red. masses --      1.1000                 1.0872                 1.0347
 Frc consts  --      5.7943                 5.7348                 5.6533
 IR Inten    --     84.7580                33.1121                17.6876

                     46                     47                     48
                      A                      A                      A
 Frequencies --   3119.9996              3121.8009              3123.2125
 Red. masses --      1.1015                 1.1020                 1.0885
 Frc consts  --      6.3175                 6.3276                 6.2555
 IR Inten    --     22.6945                18.0804                22.1097

                     49                     50                     51
                      A                      A                      A
 Frequencies --   3131.2089              3137.3731              3153.9596
 Red. masses --      1.0916                 1.0920                 1.1003
 Frc consts  --      6.3057                 6.3330                 6.4486
 IR Inten    --     58.5720                48.9499                 8.8882

 - Thermochemistry -
 -------------------
 Temperature   298.150 Kelvin.  Pressure   1.00000 Atm.
 Atom     1 has atomic number  6 and mass  12.00000

 Molecular mass:   126.06808 amu.
 Principal axes and moments of inertia in atomic units:
                           1         2         3
     Eigenvalues --   317.564862055.152572081.80936
           X            0.99991   0.01190  -0.00552
           Y           -0.01137   0.99609   0.08756
           Z            0.00654  -0.08749   0.99614
 This molecule is an asymmetric top.
 Rotational symmetry number  1.
 Rotational temperatures (Kelvin)      0.27274     0.04214     0.04161
 Rotational constants (GHZ):           5.68306     0.87815     0.86691
 Zero-point vibrational energy     414809.6 (Joules/Mol)
                                   99.14187 (Kcal/Mol)
 Warning -- explicit consideration of   9 degrees of freedom as
           vibrations may cause significant error
 Vibrational temperatures:     92.75   117.09   187.98   329.35   380.16
          (Kelvin)            494.72   555.26   798.90   865.23  1076.83
                             1134.07  1153.02  1179.67  1204.96  1242.03
                             1276.47  1312.27  1330.88  1382.52  1412.58
                             1480.90  1519.69  1591.95  1619.11  1634.40
                             1648.79  1670.72  1679.46  1690.55  1701.22
                             1712.15  1809.40  1854.60  1866.05  1917.39
                             1984.09  2021.57  2078.60  2133.76  2158.03
                             2199.93  4261.48  4302.08  4304.96  4381.45
                             4488.98  4491.57  4493.60  4505.11  4513.97
                             4537.84

 Zero-point correction=                           0.157993 (Hartree/Particle)
 Thermal correction to Energy=                    0.166123
 Thermal correction to Enthalpy=                  0.167067
 Thermal correction to Gibbs Free Energy=         0.124513
 Sum of electronic and zero-point Energies=           -422.919184
 Sum of electronic and thermal Energies=              -422.911054
 Sum of electronic and thermal Enthalpies=            -422.910110
 Sum of electronic and thermal Free Energies=         -422.952664

                     E (Thermal)             CV                S
                      KCal/Mol        Cal/Mol-Kelvin    Cal/Mol-Kelvin
 Total                  104.244             30.645             89.562
 Electronic               0.000              0.000              0.000
 Translational            0.889              2.981             40.409
 Rotational               0.889              2.981             28.698
 Vibrational            102.466             24.684             20.456
 Vibration     1          0.597              1.971              4.316
 Vibration     2          0.600              1.962              3.857
 Vibration     3          0.612              1.923              2.936
 Vibration     4          0.652              1.797              1.887
 Vibration     5          0.671              1.739              1.634
 Vibration     6          0.723              1.588              1.194
 Vibration     7          0.755              1.500              1.016
 Vibration     8          0.911              1.128              0.533
 Vibration     9          0.960              1.029              0.447

 Optimization completed.
    -- Stationary point found.
 Normal termination of Gaussian 09 at Tue Jan 28 14:54:30 2020.
