 Gaussian 09, Revision D.01,
 Gaussian 09:  ES64L-G09RevD.01 24-Apr-2013

 -----------------------------
 # b3lyp 6-31G(2df,p) opt Freq
 -----------------------------

 -----
 titel
 -----
 Symbolic Z-matrix:
 Charge =  0 Multiplicity = 1

 SCF Done:  E(RB3LYP) =  -423.148149582     A.U. after   13 cycles
 Optimization completed.
    -- Stationary point found.
 Normal termination of Gaussian 09 at Tue Jan 28 02:53:40 2020.

 ----------------------------------------------------------------------
 #N Geom=AllCheck Guess=TCheck SCRF=Check GenChk RB3LYP/6-31G(2df,p) Fr
 eq
 ----------------------------------------------------------------------

 Structure from the checkpoint file:  "/scratch/puck/g09_f6014780-2aa7-4bf6-9f02-376a21763d79/Gau-60141.chk"
 -----
 titel
 -----
 Charge =  0 Multiplicity = 1

                         Standard orientation:
 ---------------------------------------------------------------------
 Center     Atomic      Atomic             Coordinates (Angstroms)
 Number     Number       Type             X           Y           Z
 ---------------------------------------------------------------------
      1          6           0       -2.091292   -0.893574    0.410718
      2          6           0       -0.899774   -0.589025   -0.480327
      3          8           0        0.102410   -1.608731   -0.294302
      4          6           0        1.357399   -0.978677   -0.310706
      5          6           0        1.598227    0.120156    0.710071
      6          8           0        0.346551    0.568458    1.222974
      7          6           0       -0.149058    0.712228   -0.159118
      8          6           0       -0.852101    2.023213   -0.385634
      9          6           0        1.274126    0.460380   -0.724147
     10          1           0       -2.910423   -0.194257    0.214335
     11          1           0       -2.455332   -1.905475    0.215269
     12          1           0       -1.796818   -0.819121    1.459662
     13          1           0       -1.205134   -0.577313   -1.540622
     14          1           0        2.173026   -1.620281   -0.622388
     15          1           0        2.483687    0.255656    1.320940
     16          1           0       -1.166741    2.116116   -1.430475
     17          1           0       -1.739767    2.096414    0.250145
     18          1           0       -0.189602    2.857918   -0.143980
     19          1           0        1.790257    0.984314   -1.517411
 ---------------------------------------------------------------------

 SCF Done:  E(RB3LYP) =  -423.148149582     A.U. after    1 cycles

 The electronic state is 1-A.
 Alpha  occ. eigenvalues --  -19.13759 -19.13651 -10.24716 -10.23799 -10.23516
 Alpha  occ. eigenvalues --  -10.23149 -10.19164 -10.18652 -10.17094  -1.07345
 Alpha  occ. eigenvalues --   -1.01217  -0.82722  -0.78637  -0.72969  -0.66222
 Alpha  occ. eigenvalues --   -0.60726  -0.58183  -0.53850  -0.51668  -0.49830
 Alpha  occ. eigenvalues --   -0.47322  -0.43328  -0.42407  -0.41141  -0.40006
 Alpha  occ. eigenvalues --   -0.38711  -0.38022  -0.36918  -0.35437  -0.32936
 Alpha  occ. eigenvalues --   -0.31346  -0.30041  -0.25286  -0.21448
 Alpha virt. eigenvalues --    0.07415   0.09422   0.10889   0.11680   0.13121
 Alpha virt. eigenvalues --    0.13249   0.14953   0.15461   0.16253   0.16516
 Alpha virt. eigenvalues --    0.17097   0.19351   0.20091   0.21406   0.22568

 Mulliken charges:
               1
     1  C   -0.410531
     2  C    0.127264
     3  O   -0.283665
     4  C    0.074097
     5  C    0.054397
     6  O   -0.330447
     7  C    0.384308
     8  C   -0.495123
     9  C   -0.262411
    10  H    0.110256
    11  H    0.125897
    12  H    0.142180
    13  H    0.064983
    14  H    0.106467
    15  H    0.103455
    16  H    0.122974
    17  H    0.135334
    18  H    0.133411
    19  H    0.097152
 Sum of Mulliken charges =   0.00000

 Dipole moment (field-independent basis, Debye):
    X=              0.4566    Y=              1.3186    Z=             -1.5302  Tot=              2.0709
 Quadrupole moment (field-independent basis, Debye-Ang):
   XX=            -47.1806   YY=            -55.1348   ZZ=            -54.5143
   XY=             -0.9312   XZ=              0.2748   YZ=             -1.5595

  Exact polarizability:  83.295  -1.707  72.304   1.598  -1.115  65.153
 Approx polarizability: 112.068  -2.965 104.957   3.370  -0.451 105.874

                      1                      2                      3
                      A                      A                      A
 Frequencies --    149.3764               205.8199               228.6315
 Red. masses --      2.9661                 1.0969                 1.2979
 Frc consts  --      0.0390                 0.0274                 0.0400
 IR Inten    --      1.8814                 0.5565                 0.4094

                      4                      5                      6
                      A                      A                      A
 Frequencies --    241.6737               296.7175               323.3363
 Red. masses --      1.7023                 2.9765                 2.8960
 Frc consts  --      0.0586                 0.1544                 0.1784
 IR Inten    --      0.0752                 2.0978                 4.3148

                      7                      8                      9
                      A                      A                      A
 Frequencies --    406.3184               521.6940               544.9111
 Red. masses --      4.4191                 3.6210                 3.6717
 Frc consts  --      0.4299                 0.5806                 0.6424
 IR Inten    --      3.1289                 3.7454                 0.8746

                     10                     11                     12
                      A                      A                      A
 Frequencies --    615.2354               667.4766               742.3652
 Red. masses --      4.0874                 3.7500                 1.9147
 Frc consts  --      0.9115                 0.9844                 0.6217
 IR Inten    --      8.8527                 2.3524                12.3599

                     13                     14                     15
                      A                      A                      A
 Frequencies --    782.5808               800.2501               842.1327
 Red. masses --      4.7992                 1.9793                 2.2962
 Frc consts  --      1.7317                 0.7468                 0.9594
 IR Inten    --      8.9564                 9.2323                 5.5463

                     16                     17                     18
                      A                      A                      A
 Frequencies --    845.2757               863.3445               910.2686
 Red. masses --      3.1271                 2.6463                 1.9628
 Frc consts  --      1.3164                 1.1622                 0.9582
 IR Inten    --     22.7463                 4.4039                11.7988

                     19                     20                     21
                      A                      A                      A
 Frequencies --    955.1415              1013.2075              1032.4214
 Red. masses --      1.3371                 1.8415                 1.5510
 Frc consts  --      0.7187                 1.1139                 0.9740
 IR Inten    --     10.9552                14.0259                10.1866

                     22                     23                     24
                      A                      A                      A
 Frequencies --   1038.2372              1061.0647              1080.9177
 Red. masses --      1.8309                 2.3756                 3.6381
 Frc consts  --      1.1628                 1.5758                 2.5045
 IR Inten    --     12.0359                11.5681                52.5450

                     25                     26                     27
                      A                      A                      A
 Frequencies --   1091.4710              1121.3063              1132.6608
 Red. masses --      2.1987                 2.7867                 2.1264
 Frc consts  --      1.5433                 2.0644                 1.6073
 IR Inten    --     27.2995                77.2099                 5.9451

                     28                     29                     30
                      A                      A                      A
 Frequencies --   1153.3414              1191.1320              1218.4929
 Red. masses --      2.0516                 1.8814                 2.0827
 Frc consts  --      1.6079                 1.5727                 1.8219
 IR Inten    --      6.3817                 0.6856                13.6387

                     31                     32                     33
                      A                      A                      A
 Frequencies --   1285.5374              1304.5598              1355.3815
 Red. masses --      1.8230                 1.8031                 1.5237
 Frc consts  --      1.7750                 1.8080                 1.6492
 IR Inten    --      6.1920                16.9691                 4.3484

                     34                     35                     36
                      A                      A                      A
 Frequencies --   1376.4289              1394.8109              1403.3207
 Red. masses --      1.5678                 2.4638                 1.3661
 Frc consts  --      1.7500                 2.8241                 1.5851
 IR Inten    --      4.4864                15.4143                14.6664

                     37                     38                     39
                      A                      A                      A
 Frequencies --   1412.9118              1480.2528              1484.8476
 Red. masses --      1.4157                 1.0520                 1.0567
 Frc consts  --      1.6652                 1.3581                 1.3726
 IR Inten    --     10.9060                 2.6037                 6.7611

                     40                     41                     42
                      A                      A                      A
 Frequencies --   1494.3801              1499.8384              2956.2418
 Red. masses --      1.0505                 1.0533                 1.0827
 Frc consts  --      1.3822                 1.3960                 5.5751
 IR Inten    --      1.0743                 3.3238                57.8922

                     43                     44                     45
                      A                      A                      A
 Frequencies --   3040.5437              3046.5662              3110.2500
 Red. masses --      1.0358                 1.0361                 1.1005
 Frc consts  --      5.6419                 5.6657                 6.2721
 IR Inten    --     11.3276                21.2667                13.6428

                     46                     47                     48
                      A                      A                      A
 Frequencies --   3115.8007              3124.2623              3140.6746
 Red. masses --      1.0997                 1.1015                 1.1022
 Frc consts  --      6.2903                 6.3347                 6.4055
 IR Inten    --     20.4608                11.7245                11.3028

                     49                     50                     51
                      A                      A                      A
 Frequencies --   3175.1704              3188.6949              3201.4070
 Red. masses --      1.0907                 1.0905                 1.1009
 Frc consts  --      6.4790                 6.5325                 6.6479
 IR Inten    --     21.4022                13.9156                17.6899

 - Thermochemistry -
 -------------------
 Temperature   298.150 Kelvin.  Pressure   1.00000 Atm.
 Atom     1 has atomic number  6 and mass  12.00000

 Molecular mass:   126.06808 amu.
 Principal axes and moments of inertia in atomic units:
                           1         2         3
     Eigenvalues --   757.45367 857.352321209.48181
           X            0.99975  -0.01947  -0.01060
           Y            0.01905   0.99907  -0.03879
           Z            0.01135   0.03858   0.99919
 This molecule is an asymmetric top.
 Rotational symmetry number  1.
 Warning -- assumption of classical behavior for rotation
           may cause significant error
 Rotational temperatures (Kelvin)      0.11435     0.10102     0.07161
 Rotational constants (GHZ):           2.38264     2.10502     1.49216
 Zero-point vibrational energy     416711.3 (Joules/Mol)
                                   99.59638 (Kcal/Mol)
 Warning -- explicit consideration of  10 degrees of freedom as
           vibrations may cause significant error
 Vibrational temperatures:    214.92   296.13   328.95   347.71   426.91
          (Kelvin)            465.21   584.60   750.60   784.00   885.19
                              960.35  1068.10  1125.96  1151.38  1211.64
                             1216.16  1242.16  1309.67  1374.23  1457.78
                             1485.42  1493.79  1526.63  1555.20  1570.38
                             1613.31  1629.64  1659.40  1713.77  1753.14
                             1849.60  1876.97  1950.09  1980.37  2006.82
                             2019.06  2032.86  2129.75  2136.36  2150.08
                             2157.93  4253.37  4374.66  4383.32  4474.95
                             4482.94  4495.11  4518.72  4568.36  4587.81
                             4606.10

 Zero-point correction=                           0.158717 (Hartree/Particle)
 Thermal correction to Energy=                    0.166471
 Thermal correction to Enthalpy=                  0.167415
 Thermal correction to Gibbs Free Energy=         0.127054
 Sum of electronic and zero-point Energies=           -422.989433
 Sum of electronic and thermal Energies=              -422.981678
 Sum of electronic and thermal Enthalpies=            -422.980734
 Sum of electronic and thermal Free Energies=         -423.021095

                     E (Thermal)             CV                S
                      KCal/Mol        Cal/Mol-Kelvin    Cal/Mol-Kelvin
 Total                  104.462             31.255             84.947
 Electronic               0.000              0.000              0.000
 Translational            0.889              2.981             40.409
 Rotational               0.889              2.981             28.154
 Vibrational            102.685             25.293             16.385
 Vibration     1          0.618              1.903              2.680
 Vibration     2          0.640              1.832              2.080
 Vibration     3          0.651              1.797              1.890
 Vibration     4          0.658              1.776              1.791
 Vibration     5          0.690              1.680              1.435
 Vibration     6          0.708              1.629              1.293
 Vibration     7          0.771              1.456              0.940
 Vibration     8          0.877              1.202              0.606
 Vibration     9          0.900              1.151              0.555
 Vibration    10          0.975              1.000              0.424

 Optimization completed.
    -- Stationary point found.
 Normal termination of Gaussian 09 at Tue Jan 28 03:42:19 2020.
