 Gaussian 09, Revision D.01,
 Gaussian 09:  ES64L-G09RevD.01 24-Apr-2013

 -----------------------------
 # b3lyp 6-31G(2df,p) opt Freq
 -----------------------------

 -----
 titel
 -----
 Symbolic Z-matrix:
 Charge =  0 Multiplicity = 1

 SCF Done:  E(RB3LYP) =  -423.224986735     A.U. after   14 cycles
 Optimization completed.
    -- Stationary point found.
 Normal termination of Gaussian 09 at Tue Jan 28 12:08:20 2020.

 ----------------------------------------------------------------------
 #N Geom=AllCheck Guess=TCheck SCRF=Check GenChk RB3LYP/6-31G(2df,p) Fr
 eq
 ----------------------------------------------------------------------

 Structure from the checkpoint file:  "/scratch/puck/g09_2bd8476a-0da9-4e10-9daa-254eb7395ec2/Gau-65872.chk"
 -----
 titel
 -----
 Charge =  0 Multiplicity = 1

                         Standard orientation:
 ---------------------------------------------------------------------
 Center     Atomic      Atomic             Coordinates (Angstroms)
 Number     Number       Type             X           Y           Z
 ---------------------------------------------------------------------
      1          6           0        2.145077    1.545839   -0.409812
      2          6           0        1.273153    0.645243    0.467572
      3          6           0       -0.233382    0.978818    0.496647
      4          6           0       -0.928235   -0.337238    0.218297
      5          6           0       -2.425452   -0.439840    0.241203
      6          8           0       -3.051402    0.583132   -0.523775
      7          6           0       -0.059569   -1.324097   -0.049884
      8          6           0        1.331498   -0.829384    0.017088
      9          8           0        2.342718   -1.443493   -0.238446
     10          1           0        1.753555    1.595735   -1.431953
     11          1           0        2.188538    2.565339   -0.015142
     12          1           0        3.160678    1.144508   -0.459208
     13          1           0        1.671764    0.661786    1.490179
     14          1           0       -0.565274    1.402296    1.452361
     15          1           0       -0.509792    1.716697   -0.265761
     16          1           0       -2.745983   -1.442383   -0.075764
     17          1           0       -2.784179   -0.291855    1.267856
     18          1           0       -2.814489    0.443181   -1.446725
     19          1           0       -0.303890   -2.348473   -0.304745
 ---------------------------------------------------------------------

 SCF Done:  E(RB3LYP) =  -423.224986735     A.U. after    1 cycles

 The electronic state is 1-A.
 Alpha  occ. eigenvalues --  -19.15344 -19.11782 -10.25683 -10.24821 -10.21719
 Alpha  occ. eigenvalues --  -10.19684 -10.19426 -10.19101 -10.17888  -1.03350
 Alpha  occ. eigenvalues --   -1.02742  -0.85798  -0.76989  -0.71396  -0.69216
 Alpha  occ. eigenvalues --   -0.63041  -0.56111  -0.53413  -0.50314  -0.48420
 Alpha  occ. eigenvalues --   -0.47113  -0.44526  -0.43498  -0.41575  -0.40365
 Alpha  occ. eigenvalues --   -0.38983  -0.37763  -0.36449  -0.34972  -0.34488
 Alpha  occ. eigenvalues --   -0.33764  -0.29026  -0.26971  -0.23524
 Alpha virt. eigenvalues --   -0.04684   0.05278   0.07060   0.09914   0.11359
 Alpha virt. eigenvalues --    0.12989   0.13868   0.14696   0.16396   0.16672
 Alpha virt. eigenvalues --    0.17587   0.18157   0.19245   0.20745   0.22228

 Mulliken charges:
               1
     1  C   -0.396127
     2  C   -0.100314
     3  C   -0.317236
     4  C    0.291519
     5  C   -0.165289
     6  O   -0.406210
     7  C   -0.306118
     8  C    0.397831
     9  O   -0.345980
    10  H    0.114722
    11  H    0.114031
    12  H    0.140909
    13  H    0.106585
    14  H    0.116292
    15  H    0.123814
    16  H    0.104791
    17  H    0.127810
    18  H    0.289040
    19  H    0.109930
 Sum of Mulliken charges =   0.00000

 Dipole moment (field-independent basis, Debye):
    X=             -2.2303    Y=              0.9608    Z=              0.0734  Tot=              2.4296
 Quadrupole moment (field-independent basis, Debye-Ang):
   XX=            -63.3001   YY=            -55.0068   ZZ=            -49.1339
   XY=              9.0537   XZ=              2.8478   YZ=             -0.2858

  Exact polarizability:  99.233  -4.296  80.611  -3.265   3.526  59.297
 Approx polarizability: 145.420 -24.670 124.303  -8.103   8.818  93.283

                      1                      2                      3
                      A                      A                      A
 Frequencies --     54.9684                61.5770               140.2146
 Red. masses --      3.6309                 2.7534                 4.4444
 Frc consts  --      0.0065                 0.0062                 0.0515
 IR Inten    --      6.4856                 0.3728                 1.6058

                      4                      5                      6
                      A                      A                      A
 Frequencies --    208.6641               222.9938               263.2511
 Red. masses --      2.2209                 1.2305                 3.4266
 Frc consts  --      0.0570                 0.0361                 0.1399
 IR Inten    --      1.6795                 1.6120                12.0094

                      7                      8                      9
                      A                      A                      A
 Frequencies --    304.3554               370.7475               381.9651
 Red. masses --      1.8930                 1.7589                 2.0293
 Frc consts  --      0.1033                 0.1424                 0.1744
 IR Inten    --     32.5885                45.7079                45.1932

                     10                     11                     12
                      A                      A                      A
 Frequencies --    464.5749               513.4209               609.4851
 Red. masses --      2.6353                 3.4429                 5.6986
 Frc consts  --      0.3351                 0.5347                 1.2472
 IR Inten    --      6.6803                 6.4694                 3.5357

                     13                     14                     15
                      A                      A                      A
 Frequencies --    656.5221               704.4043               780.4233
 Red. masses --      3.6830                 3.4400                 2.7927
 Frc consts  --      0.9353                 1.0057                 1.0021
 IR Inten    --      7.2514                 0.5601                 5.9842

                     16                     17                     18
                      A                      A                      A
 Frequencies --    874.1169               878.3925               919.0863
 Red. masses --      1.9478                 2.8318                 2.0054
 Frc consts  --      0.8769                 1.2873                 0.9981
 IR Inten    --      7.0113                17.0780                 2.7463

                     19                     20                     21
                      A                      A                      A
 Frequencies --    927.8275               979.4069              1035.7621
 Red. masses --      1.2597                 1.5946                 1.6908
 Frc consts  --      0.6389                 0.9012                 1.0687
 IR Inten    --      9.7392                15.9964                 6.8812

                     22                     23                     24
                      A                      A                      A
 Frequencies --   1059.1586              1092.6416              1128.5321
 Red. masses --      4.9589                 1.9172                 1.8559
 Frc consts  --      3.2776                 1.3486                 1.3926
 IR Inten    --     55.0719                13.5920                 6.4714

                     25                     26                     27
                      A                      A                      A
 Frequencies --   1145.3555              1177.7730              1184.9930
 Red. masses --      2.9506                 1.4893                 1.2207
 Frc consts  --      2.2806                 1.2172                 1.0099
 IR Inten    --     57.8593                28.3841                 9.7468

                     28                     29                     30
                      A                      A                      A
 Frequencies --   1218.3612              1259.9830              1294.9054
 Red. masses --      1.4883                 1.4887                 1.6596
 Frc consts  --      1.3016                 1.3924                 1.6395
 IR Inten    --     12.4260                 0.9917                17.1007

                     31                     32                     33
                      A                      A                      A
 Frequencies --   1332.8775              1342.7241              1382.1475
 Red. masses --      1.7932                 2.2669                 1.3183
 Frc consts  --      1.8769                 2.4080                 1.4838
 IR Inten    --      3.7832                 1.8591                 5.8100

                     34                     35                     36
                      A                      A                      A
 Frequencies --   1404.3628              1407.6878              1475.7823
 Red. masses --      1.2174                 1.2193                 1.0936
 Frc consts  --      1.4147                 1.4236                 1.4034
 IR Inten    --      4.5457                60.9681                 6.8071

                     37                     38                     39
                      A                      A                      A
 Frequencies --   1488.7341              1496.0346              1499.9905
 Red. masses --      1.0849                 1.0461                 1.0498
 Frc consts  --      1.4166                 1.3795                 1.3916
 IR Inten    --      1.8018                 6.0398                 4.0848

                     40                     41                     42
                      A                      A                      A
 Frequencies --   1676.7716              1808.2695              3003.0009
 Red. masses --      7.3434                12.3510                 1.0614
 Frc consts  --     12.1645                23.7945                 5.6396
 IR Inten    --     38.2876               270.9380                43.5318

                     43                     44                     45
                      A                      A                      A
 Frequencies --   3024.9392              3034.7731              3036.4647
 Red. masses --      1.0792                 1.0503                 1.0500
 Frc consts  --      5.8179                 5.6993                 5.7042
 IR Inten    --      8.5765                17.0586                19.9066

                     46                     47                     48
                      A                      A                      A
 Frequencies --   3051.5009              3064.0588              3101.9084
 Red. masses --      1.1004                 1.1005                 1.1009
 Frc consts  --      6.0369                 6.0874                 6.2409
 IR Inten    --     19.8625                16.6580                28.8435

                     49                     50                     51
                      A                      A                      A
 Frequencies --   3123.1802              3208.2317              3811.0066
 Red. masses --      1.1013                 1.0955                 1.0664
 Frc consts  --      6.3294                 6.6436                 9.1254
 IR Inten    --     10.9221                 5.2470                21.1756

 - Thermochemistry -
 -------------------
 Temperature   298.150 Kelvin.  Pressure   1.00000 Atm.
 Atom     1 has atomic number  6 and mass  12.00000

 Molecular mass:   126.06808 amu.
 Principal axes and moments of inertia in atomic units:
                           1         2         3
     Eigenvalues --   587.509801730.738662141.58031
           X            0.99882   0.04851  -0.00322
           Y           -0.04853   0.99881  -0.00437
           Z            0.00301   0.00452   0.99999
 This molecule is an asymmetric top.
 Rotational symmetry number  1.
 Warning -- assumption of classical behavior for rotation
           may cause significant error
 Rotational temperatures (Kelvin)      0.14743     0.05004     0.04044
 Rotational constants (GHZ):           3.07185     1.04276     0.84271
 Zero-point vibrational energy     416828.7 (Joules/Mol)
                                   99.62444 (Kcal/Mol)
 Warning -- explicit consideration of  12 degrees of freedom as
           vibrations may cause significant error
 Vibrational temperatures:     79.09    88.60   201.74   300.22   320.84
          (Kelvin)            378.76   437.90   533.42   549.56   668.42
                              738.70   876.91   944.59  1013.48  1122.85
                             1257.66  1263.81  1322.36  1334.94  1409.15
                             1490.23  1523.89  1572.07  1623.70  1647.91
                             1694.55  1704.94  1752.95  1812.83  1863.08
                             1917.71  1931.88  1988.60  2020.56  2025.35
                             2123.32  2141.95  2152.46  2158.15  2412.50
                             2601.69  4320.64  4352.21  4366.36  4368.79
                             4390.42  4408.49  4462.95  4493.55  4615.92
                             5483.18

 Zero-point correction=                           0.158762 (Hartree/Particle)
 Thermal correction to Energy=                    0.167989
 Thermal correction to Enthalpy=                  0.168933
 Thermal correction to Gibbs Free Energy=         0.123996
 Sum of electronic and zero-point Energies=           -423.066225
 Sum of electronic and thermal Energies=              -423.056998
 Sum of electronic and thermal Enthalpies=            -423.056054
 Sum of electronic and thermal Free Energies=         -423.100991

                     E (Thermal)             CV                S
                      KCal/Mol        Cal/Mol-Kelvin    Cal/Mol-Kelvin
 Total                  105.414             33.634             94.578
 Electronic               0.000              0.000              0.000
 Translational            0.889              2.981             40.409
 Rotational               0.889              2.981             29.167
 Vibrational            103.637             27.673             25.003
 Vibration     1          0.596              1.976              4.630
 Vibration     2          0.597              1.973              4.406
 Vibration     3          0.615              1.913              2.801
 Vibration     4          0.642              1.827              2.055
 Vibration     5          0.649              1.806              1.935
 Vibration     6          0.670              1.740              1.640
 Vibration     7          0.695              1.665              1.393
 Vibration     8          0.743              1.532              1.077
 Vibration     9          0.751              1.509              1.031
 Vibration    10          0.822              1.329              0.753
 Vibration    11          0.868              1.220              0.625
 Vibration    12          0.968              1.012              0.434

 Normal termination of Gaussian 09 at Tue Jan 28 12:50:33 2020.
