 Gaussian 09, Revision D.01,
 Gaussian 09:  ES64L-G09RevD.01 24-Apr-2013

 -----------------------------
 # b3lyp 6-31G(2df,p) opt Freq
 -----------------------------

 -----
 titel
 -----
 Symbolic Z-matrix:
 Charge =  0 Multiplicity = 1

 SCF Done:  E(RB3LYP) =  -423.165655712     A.U. after   14 cycles
 Optimization completed.
    -- Stationary point found.
 Normal termination of Gaussian 09 at Tue Jan 28 03:58:20 2020.

 ----------------------------------------------------------------------
 #N Geom=AllCheck Guess=TCheck SCRF=Check GenChk RB3LYP/6-31G(2df,p) Fr
 eq
 ----------------------------------------------------------------------

 Structure from the checkpoint file:  "/scratch/puck/g09_8bf127b7-e732-4df8-b37b-85d1f79e34c4/Gau-14305.chk"
 -----
 titel
 -----
 Charge =  0 Multiplicity = 1

                         Standard orientation:
 ---------------------------------------------------------------------
 Center     Atomic      Atomic             Coordinates (Angstroms)
 Number     Number       Type             X           Y           Z
 ---------------------------------------------------------------------
      1          8           0       -1.587982   -1.684390   -0.650234
      2          6           0       -0.906405   -0.840341    0.265766
      3          6           0       -1.871268    0.180722    0.921020
      4          6           0       -1.682096    1.416947    0.072482
      5          6           0       -0.593423    1.332182   -0.693912
      6          6           0        0.158055    0.035969   -0.462270
      7          6           0        1.405483    0.264110    0.369175
      8          6           0        2.741141    0.374313   -0.230046
      9          8           0        2.335164   -0.818804    0.442882
     10          1           0       -2.005536   -1.117172   -1.308931
     11          1           0       -0.446526   -1.518050    0.988289
     12          1           0       -2.894457   -0.210059    0.918663
     13          1           0       -1.612835    0.378661    1.970139
     14          1           0       -2.354302    2.267299    0.110742
     15          1           0       -0.237038    2.103739   -1.367490
     16          1           0        0.457724   -0.470538   -1.386825
     17          1           0        1.237998    0.769462    1.322686
     18          1           0        2.851572    0.285236   -1.310481
     19          1           0        3.517028    0.953554    0.268741
 ---------------------------------------------------------------------

 SCF Done:  E(RB3LYP) =  -423.165655712     A.U. after    1 cycles

 The electronic state is 1-A.
 Alpha  occ. eigenvalues --  -19.14921 -19.13268 -10.23875 -10.23373 -10.23117
 Alpha  occ. eigenvalues --  -10.19220 -10.19104 -10.18803 -10.18626  -1.06960
 Alpha  occ. eigenvalues --   -1.01678  -0.84352  -0.73604  -0.70520  -0.66442
 Alpha  occ. eigenvalues --   -0.62010  -0.58005  -0.54428  -0.52610  -0.48916
 Alpha  occ. eigenvalues --   -0.47886  -0.45513  -0.44057  -0.40931  -0.39579
 Alpha  occ. eigenvalues --   -0.37753  -0.36968  -0.36444  -0.34952  -0.32735
 Alpha  occ. eigenvalues --   -0.30518  -0.27196  -0.25867  -0.25226
 Alpha virt. eigenvalues --    0.00931   0.08904   0.09477   0.10788   0.11131
 Alpha virt. eigenvalues --    0.12359   0.13351   0.13898   0.15097   0.16758
 Alpha virt. eigenvalues --    0.17347   0.18238   0.18902   0.19184   0.21325

 Mulliken charges:
               1
     1  O   -0.436042
     2  C    0.116597
     3  C   -0.282654
     4  C   -0.073670
     5  C   -0.099617
     6  C   -0.094392
     7  C    0.092321
     8  C   -0.184627
     9  O   -0.238230
    10  H    0.278617
    11  H    0.100771
    12  H    0.112040
    13  H    0.112162
    14  H    0.098050
    15  H    0.096914
    16  H    0.082434
    17  H    0.091945
    18  H    0.112441
    19  H    0.114938
 Sum of Mulliken charges =   0.00000

 Dipole moment (field-independent basis, Debye):
    X=             -0.6191    Y=              2.9941    Z=             -0.5222  Tot=              3.1017
 Quadrupole moment (field-independent basis, Debye-Ang):
   XX=            -51.7578   YY=            -58.0899   ZZ=            -50.2185
   XY=              1.2724   XZ=             -1.5474   YZ=             -0.3728

  Exact polarizability:  93.150  -0.926  68.763  -8.724  -1.807  68.105
 Approx polarizability: 126.859  -3.048 104.422 -16.015  -3.084 107.918

                      1                      2                      3
                      A                      A                      A
 Frequencies --     66.4343                85.9045               165.5508
 Red. masses --      3.7489                 3.7639                 3.4306
 Frc consts  --      0.0097                 0.0164                 0.0554
 IR Inten    --      1.4951                 0.4438                 0.4384

                      4                      5                      6
                      A                      A                      A
 Frequencies --    195.0206               302.4116               356.5891
 Red. masses --      3.4157                 3.1904                 1.3546
 Frc consts  --      0.0765                 0.1719                 0.1015
 IR Inten    --      3.1649                 2.6278                40.4873

                      7                      8                      9
                      A                      A                      A
 Frequencies --    388.9674               431.4139               483.7334
 Red. masses --      1.9551                 3.7796                 3.3067
 Frc consts  --      0.1743                 0.4145                 0.4559
 IR Inten    --     22.6165                30.0722                 3.8858

                     10                     11                     12
                      A                      A                      A
 Frequencies --    493.2739               726.0614               758.6253
 Red. masses --      2.7682                 1.3277                 4.0122
 Frc consts  --      0.3969                 0.4124                 1.3604
 IR Inten    --      0.8549                24.0482                 7.3777

                     13                     14                     15
                      A                      A                      A
 Frequencies --    793.2803               847.2775               864.5428
 Red. masses --      5.1252                 2.6860                 4.9872
 Frc consts  --      1.9003                 1.1361                 2.1962
 IR Inten    --      8.7168                 8.1089                24.0615

                     16                     17                     18
                      A                      A                      A
 Frequencies --    877.0653               914.5538               947.8196
 Red. masses --      2.0125                 2.2543                 2.0082
 Frc consts  --      0.9121                 1.1109                 1.0629
 IR Inten    --     31.1661                15.2346                 7.0823

                     19                     20                     21
                      A                      A                      A
 Frequencies --    971.5303               981.2782               992.3634
 Red. masses --      1.7735                 1.5296                 2.2641
 Frc consts  --      0.9863                 0.8678                 1.3137
 IR Inten    --      9.4395                 6.3771                 2.3876

                     22                     23                     24
                      A                      A                      A
 Frequencies --   1048.2435              1064.8152              1100.9207
 Red. masses --      1.8077                 2.4665                 1.3781
 Frc consts  --      1.1703                 1.6477                 0.9841
 IR Inten    --      7.1316                37.7407                 6.8165

                     25                     26                     27
                      A                      A                      A
 Frequencies --   1131.1277              1133.5691              1159.7884
 Red. masses --      1.5637                 1.4345                 1.3853
 Frc consts  --      1.1788                 1.0861                 1.0979
 IR Inten    --     13.8033                 3.5872                 6.8315

                     28                     29                     30
                      A                      A                      A
 Frequencies --   1167.3862              1174.7069              1221.1765
 Red. masses --      1.1659                 1.4339                 1.7656
 Frc consts  --      0.9361                 1.1658                 1.5513
 IR Inten    --     37.8713                 2.9819                15.2906

                     31                     32                     33
                      A                      A                      A
 Frequencies --   1263.7100              1288.4709              1293.6038
 Red. masses --      1.2759                 1.4228                 1.5981
 Frc consts  --      1.2005                 1.3917                 1.5757
 IR Inten    --      7.4027                 7.7538                 5.1214

                     34                     35                     36
                      A                      A                      A
 Frequencies --   1308.4993              1318.3822              1379.1531
 Red. masses --      1.5508                 1.4797                 1.7020
 Frc consts  --      1.5645                 1.5153                 1.9074
 IR Inten    --      3.0008                 4.8707                 0.4422

                     37                     38                     39
                      A                      A                      A
 Frequencies --   1435.6456              1438.5997              1475.1502
 Red. masses --      1.2382                 1.6518                 1.0981
 Frc consts  --      1.5037                 2.0142                 1.4078
 IR Inten    --     49.6341                22.3623                 5.8637

                     40                     41                     42
                      A                      A                      A
 Frequencies --   1528.7201              1672.0602              3018.8491
 Red. masses --      1.3322                 6.1719                 1.0671
 Frc consts  --      1.8343                10.1665                 5.7297
 IR Inten    --      3.4756                 1.1198                23.2583

                     43                     44                     45
                      A                      A                      A
 Frequencies --   3045.8503              3070.4829              3079.1579
 Red. masses --      1.0836                 1.0947                 1.0504
 Frc consts  --      5.9231                 6.0808                 5.8677
 IR Inten    --      9.6082                18.4460                30.4509

                     46                     47                     48
                      A                      A                      A
 Frequencies --   3089.2393              3096.7387              3165.6968
 Red. masses --      1.0876                 1.0876                 1.1193
 Frc consts  --      6.1156                 6.1451                 6.6092
 IR Inten    --     21.3877                24.1032                28.3145

                     49                     50                     51
                      A                      A                      A
 Frequencies --   3181.2062              3206.1312              3791.0045
 Red. masses --      1.0844                 1.1039                 1.0657
 Frc consts  --      6.4660                 6.6857                 9.0239
 IR Inten    --      4.6621                20.4378                12.9779

 - Thermochemistry -
 -------------------
 Temperature   298.150 Kelvin.  Pressure   1.00000 Atm.
 Atom     1 has atomic number  8 and mass  15.99491

 Molecular mass:   126.06808 amu.
 Principal axes and moments of inertia in atomic units:
                           1         2         3
     Eigenvalues --   622.818811505.682971797.19392
           X            0.99984   0.00766  -0.01625
           Y           -0.00778   0.99994  -0.00705
           Z            0.01619   0.00718   0.99984
 This molecule is an asymmetric top.
 Rotational symmetry number  1.
 Warning -- assumption of classical behavior for rotation
           may cause significant error
 Rotational temperatures (Kelvin)      0.13907     0.05752     0.04819
 Rotational constants (GHZ):           2.89770     1.19862     1.00420
 Zero-point vibrational energy     418643.8 (Joules/Mol)
                                  100.05828 (Kcal/Mol)
 Warning -- explicit consideration of  10 degrees of freedom as
           vibrations may cause significant error
 Vibrational temperatures:     95.58   123.60   238.19   280.59   435.10
          (Kelvin)            513.05   559.64   620.71   695.98   709.71
                             1044.64  1091.49  1141.35  1219.04  1243.88
                             1261.90  1315.84  1363.70  1397.81  1411.84
                             1427.79  1508.19  1532.03  1583.98  1627.44
                             1630.95  1668.67  1679.61  1690.14  1757.00
                             1818.19  1853.82  1861.20  1882.64  1896.86
                             1984.29  2065.57  2069.82  2122.41  2199.48
                             2405.72  4343.45  4382.29  4417.73  4430.22
                             4444.72  4455.51  4554.73  4577.04  4612.90
                             5454.40

 Zero-point correction=                           0.159453 (Hartree/Particle)
 Thermal correction to Energy=                    0.167837
 Thermal correction to Enthalpy=                  0.168781
 Thermal correction to Gibbs Free Energy=         0.125898
 Sum of electronic and zero-point Energies=           -423.006203
 Sum of electronic and thermal Energies=              -422.997819
 Sum of electronic and thermal Enthalpies=            -422.996874
 Sum of electronic and thermal Free Energies=         -423.039758

                     E (Thermal)             CV                S
                      KCal/Mol        Cal/Mol-Kelvin    Cal/Mol-Kelvin
 Total                  105.319             31.778             90.255
 Electronic               0.000              0.000              0.000
 Translational            0.889              2.981             40.409
 Rotational               0.889              2.981             28.912
 Vibrational            103.542             25.816             20.935
 Vibration     1          0.598              1.970              4.256
 Vibration     2          0.601              1.959              3.751
 Vibration     3          0.624              1.885              2.485
 Vibration     4          0.636              1.847              2.180
 Vibration     5          0.694              1.669              1.404
 Vibration     6          0.732              1.562              1.137
 Vibration     7          0.757              1.494              1.004
 Vibration     8          0.792              1.402              0.854
 Vibration     9          0.840              1.286              0.700
 Vibration    10          0.849              1.265              0.675

 Optimization completed.
    -- Stationary point found.
 Normal termination of Gaussian 09 at Tue Jan 28 04:42:54 2020.
