 Gaussian 09, Revision D.01,
 Gaussian 09:  ES64L-G09RevD.01 24-Apr-2013

 -----------------------------
 # b3lyp 6-31G(2df,p) opt Freq
 -----------------------------

 -----
 titel
 -----
 Symbolic Z-matrix:
 Charge =  0 Multiplicity = 1

 SCF Done:  E(RB3LYP) =  -423.162835738     A.U. after   14 cycles
 Optimization completed.
    -- Stationary point found.
 Normal termination of Gaussian 09 at Mon Jan 27 13:49:52 2020.

 ----------------------------------------------------------------------
 #N Geom=AllCheck Guess=TCheck SCRF=Check GenChk RB3LYP/6-31G(2df,p) Fr
 eq
 ----------------------------------------------------------------------

 Structure from the checkpoint file:  "/scratch/puck/g09_997046d1-a9fc-45c5-a24f-f3b4b896c682/Gau-76097.chk"
 -----
 titel
 -----
 Charge =  0 Multiplicity = 1

                         Standard orientation:
 ---------------------------------------------------------------------
 Center     Atomic      Atomic             Coordinates (Angstroms)
 Number     Number       Type             X           Y           Z
 ---------------------------------------------------------------------
      1          8           0        2.491034    1.043115    0.347960
      2          6           0        2.469641    0.087445   -0.378439
      3          8           0        1.611257   -0.939955   -0.326265
      4          6           0        0.602274   -0.891917    0.712109
      5          6           0       -0.660886   -0.247987    0.213863
      6          6           0       -1.533921   -0.673809   -1.006483
      7          6           0       -2.261472    0.545082   -0.370713
      8          6           0       -1.990097   -0.103518    1.017568
      9          6           0       -0.869485    1.227682   -0.246216
     10          1           0        3.173026   -0.090005   -1.207079
     11          1           0        0.427373   -1.937174    0.981188
     12          1           0        1.003927   -0.352254    1.573401
     13          1           0       -1.093534   -0.524190   -1.995647
     14          1           0       -2.038470   -1.641781   -0.933347
     15          1           0       -3.190587    1.003708   -0.708631
     16          1           0       -1.968178    0.569153    1.879568
     17          1           0       -2.527676   -1.029295    1.243252
     18          1           0       -0.381663    1.522239   -1.178881
     19          1           0       -0.758867    1.996447    0.522494
 ---------------------------------------------------------------------

 SCF Done:  E(RB3LYP) =  -423.162835738     A.U. after    1 cycles

 The electronic state is 1-A.
 Alpha  occ. eigenvalues --  -19.18905 -19.13331 -10.30822 -10.24093 -10.21111
 Alpha  occ. eigenvalues --  -10.20319 -10.19101 -10.18828 -10.18635  -1.10370
 Alpha  occ. eigenvalues --   -1.02086  -0.91569  -0.75232  -0.66977  -0.66749
 Alpha  occ. eigenvalues --   -0.62951  -0.57501  -0.53728  -0.52907  -0.49754
 Alpha  occ. eigenvalues --   -0.47332  -0.45479  -0.44983  -0.42872  -0.42021
 Alpha  occ. eigenvalues --   -0.36774  -0.35376  -0.33349  -0.32696  -0.32121
 Alpha  occ. eigenvalues --   -0.31787  -0.31155  -0.28831  -0.27973
 Alpha virt. eigenvalues --    0.00960   0.09805   0.09963   0.11208   0.13082
 Alpha virt. eigenvalues --    0.14632   0.14931   0.15077   0.15409   0.15859
 Alpha virt. eigenvalues --    0.16292   0.17519   0.17859   0.18066   0.23643

 Mulliken charges:
               1
     1  O   -0.307441
     2  C    0.193112
     3  O   -0.203999
     4  C   -0.228087
     5  C    0.344415
     6  C   -0.245882
     7  C   -0.047585
     8  C   -0.262216
     9  C   -0.236913
    10  H    0.110546
    11  H    0.115963
    12  H    0.135567
    13  H    0.094093
    14  H    0.087913
    15  H    0.074545
    16  H    0.094217
    17  H    0.089781
    18  H    0.093285
    19  H    0.098687
 Sum of Mulliken charges =   0.00000

 Dipole moment (field-independent basis, Debye):
    X=             -1.1394    Y=             -1.3372    Z=             -0.3270  Tot=              1.7870
 Quadrupole moment (field-independent basis, Debye-Ang):
   XX=            -54.3885   YY=            -55.2664   ZZ=            -51.7542
   XY=             -3.2087   XZ=             -2.8962   YZ=             -2.1010

  Exact polarizability:  84.608   4.352  73.071  -4.542   1.277  71.288
 Approx polarizability: 109.914   8.177 117.568  -4.764   6.970 109.355

                      1                      2                      3
                      A                      A                      A
 Frequencies --     44.4541                64.0439               146.9186
 Red. masses --      5.1021                 4.4242                 3.4930
 Frc consts  --      0.0059                 0.0107                 0.0444
 IR Inten    --      1.4516                 1.1689                 1.2090

                      4                      5                      6
                      A                      A                      A
 Frequencies --    238.8125               302.6768               353.7099
 Red. masses --      4.2745                 2.6718                 2.1991
 Frc consts  --      0.1436                 0.1442                 0.1621
 IR Inten    --      3.5339                12.0515                10.8937

                      7                      8                      9
                      A                      A                      A
 Frequencies --    424.8364               539.0879               545.0886
 Red. masses --      4.0944                 1.7823                 1.8654
 Frc consts  --      0.4354                 0.3052                 0.3266
 IR Inten    --      5.9398                 0.3225                 0.4691

                     10                     11                     12
                      A                      A                      A
 Frequencies --    683.1769               749.2563               787.4968
 Red. masses --      3.4169                 3.3197                 3.5666
 Frc consts  --      0.9396                 1.0980                 1.3032
 IR Inten    --      5.1182                 4.5659                 2.0112

                     13                     14                     15
                      A                      A                      A
 Frequencies --    808.8385               886.9686               911.0466
 Red. masses --      2.7623                 3.5753                 2.2443
 Frc consts  --      1.0647                 1.6572                 1.0975
 IR Inten    --      1.4047                 1.3402                 0.4319

                     16                     17                     18
                      A                      A                      A
 Frequencies --    921.9653               960.3499               969.0285
 Red. masses --      4.0457                 1.2580                 2.1957
 Frc consts  --      2.0262                 0.6836                 1.2148
 IR Inten    --     14.8891                 0.0127                 3.5600

                     19                     20                     21
                      A                      A                      A
 Frequencies --    979.0491               998.3802              1022.8210
 Red. masses --      2.3628                 1.0109                 1.2546
 Frc consts  --      1.3344                 0.5937                 0.7733
 IR Inten    --      2.3386                 0.0069                 2.4464

                     22                     23                     24
                      A                      A                      A
 Frequencies --   1045.0116              1097.0798              1102.9919
 Red. masses --      1.6314                 1.5487                 1.6125
 Frc consts  --      1.0497                 1.0982                 1.1558
 IR Inten    --      0.1928                 0.1652                 0.8266

                     25                     26                     27
                      A                      A                      A
 Frequencies --   1144.5651              1145.3899              1165.3795
 Red. masses --      1.3776                 1.3751                 1.6571
 Frc consts  --      1.0633                 1.0629                 1.3260
 IR Inten    --      1.6974                 5.3548                 2.5166

                     28                     29                     30
                      A                      A                      A
 Frequencies --   1175.4999              1199.7977              1232.5787
 Red. masses --      2.1634                 2.8204                 1.7026
 Frc consts  --      1.7613                 2.3921                 1.5241
 IR Inten    --    115.9875               189.8629                 6.4252

                     31                     32                     33
                      A                      A                      A
 Frequencies --   1237.4546              1242.1626              1314.6368
 Red. masses --      1.8065                 1.8279                 1.3359
 Frc consts  --      1.6299                 1.6618                 1.3603
 IR Inten    --     19.0571                30.9244                18.7190

                     34                     35                     36
                      A                      A                      A
 Frequencies --   1324.4210              1400.1176              1410.7435
 Red. masses --      2.8392                 1.3516                 1.2211
 Frc consts  --      2.9343                 1.5611                 1.4318
 IR Inten    --      7.9337                 3.5069                 1.7694

                     37                     38                     39
                      A                      A                      A
 Frequencies --   1476.3892              1496.3433              1497.5726
 Red. masses --      1.1011                 1.0986                 1.0970
 Frc consts  --      1.4141                 1.4493                 1.4495
 IR Inten    --      8.0440                 0.1882                 0.2559

                     40                     41                     42
                      A                      A                      A
 Frequencies --   1554.1883              1819.3106              3027.0333
 Red. masses --      1.1937                 9.1744                 1.0901
 Frc consts  --      1.6988                17.8913                 5.8851
 IR Inten    --      0.0201               234.3509                67.0616

                     43                     44                     45
                      A                      A                      A
 Frequencies --   3043.4281              3048.1419              3057.8703
 Red. masses --      1.0537                 1.0539                 1.0545
 Frc consts  --      5.7504                 5.7694                 5.8095
 IR Inten    --     57.1123                48.7945                18.6640

                     46                     47                     48
                      A                      A                      A
 Frequencies --   3062.1358              3109.3832              3113.9949
 Red. masses --      1.0567                 1.1118                 1.1011
 Frc consts  --      5.8379                 6.3334                 6.2910
 IR Inten    --     21.7195                14.9932                55.0592

                     49                     50                     51
                      A                      A                      A
 Frequencies --   3114.9379              3118.5306              3123.0140
 Red. masses --      1.1016                 1.1080                 1.1108
 Frc consts  --      6.2978                 6.3489                 6.3832
 IR Inten    --     47.4211                13.3821                42.5583

 - Thermochemistry -
 -------------------
 Temperature   298.150 Kelvin.  Pressure   1.00000 Atm.
 Atom     1 has atomic number  8 and mass  15.99491

 Molecular mass:   126.06808 amu.
 Principal axes and moments of inertia in atomic units:
                           1         2         3
     Eigenvalues --   503.034411654.922971758.06413
           X            0.99997  -0.00443  -0.00625
           Y            0.00412   0.99878  -0.04915
           Z            0.00646   0.04912   0.99877
 This molecule is an asymmetric top.
 Rotational symmetry number  1.
 Warning -- assumption of classical behavior for rotation
           may cause significant error
 Rotational temperatures (Kelvin)      0.17218     0.05234     0.04927
 Rotational constants (GHZ):           3.58771     1.09053     1.02655
 Zero-point vibrational energy     420117.2 (Joules/Mol)
                                  100.41042 (Kcal/Mol)
 Warning -- explicit consideration of   9 degrees of freedom as
           vibrations may cause significant error
 Vibrational temperatures:     63.96    92.14   211.38   343.60   435.48
          (Kelvin)            508.91   611.24   775.63   784.26   982.94
                             1078.01  1133.03  1163.74  1276.15  1310.79
                             1326.50  1381.73  1394.21  1408.63  1436.44
                             1471.61  1503.54  1578.45  1586.96  1646.77
                             1647.96  1676.72  1691.28  1726.24  1773.40
                             1780.42  1787.19  1891.47  1905.54  2014.45
                             2029.74  2124.19  2152.90  2154.67  2236.13
                             2617.58  4355.22  4378.81  4385.59  4399.59
                             4405.72  4473.70  4480.34  4481.70  4486.86
                             4493.31

 Zero-point correction=                           0.160014 (Hartree/Particle)
 Thermal correction to Energy=                    0.168101
 Thermal correction to Enthalpy=                  0.169045
 Thermal correction to Gibbs Free Energy=         0.126180
 Sum of electronic and zero-point Energies=           -423.002822
 Sum of electronic and thermal Energies=              -422.994735
 Sum of electronic and thermal Enthalpies=            -422.993790
 Sum of electronic and thermal Free Energies=         -423.036655

                     E (Thermal)             CV                S
                      KCal/Mol        Cal/Mol-Kelvin    Cal/Mol-Kelvin
 Total                  105.485             30.299             90.217
 Electronic               0.000              0.000              0.000
 Translational            0.889              2.981             40.409
 Rotational               0.889              2.981             28.772
 Vibrational            103.708             24.337             21.036
 Vibration     1          0.595              1.980              5.050
 Vibration     2          0.597              1.971              4.329
 Vibration     3          0.617              1.906              2.712
 Vibration     4          0.657              1.781              1.812
 Vibration     5          0.694              1.669              1.402
 Vibration     6          0.730              1.568              1.150
 Vibration     7          0.787              1.416              0.876
 Vibration     8          0.894              1.164              0.567
 Vibration     9          0.900              1.150              0.554

 Optimization completed.
    -- Stationary point found.
 Normal termination of Gaussian 09 at Mon Jan 27 14:31:27 2020.
