 Gaussian 09, Revision D.01,
 Gaussian 09:  ES64L-G09RevD.01 24-Apr-2013

 -----------------------------
 # b3lyp 6-31G(2df,p) opt Freq
 -----------------------------

 -----
 titel
 -----
 Symbolic Z-matrix:
 Charge =  0 Multiplicity = 1

 SCF Done:  E(RB3LYP) =  -423.188242118     A.U. after   14 cycles
 Optimization completed.
    -- Stationary point found.
 Normal termination of Gaussian 09 at Mon Jan 27 13:44:34 2020.

 ----------------------------------------------------------------------
 #N Geom=AllCheck Guess=TCheck SCRF=Check GenChk RB3LYP/6-31G(2df,p) Fr
 eq
 ----------------------------------------------------------------------

 Structure from the checkpoint file:  "/scratch/puck/g09_2b537eef-a8f3-4b3c-bb41-b0136b4e5b8e/Gau-2275.chk"
 -----
 titel
 -----
 Charge =  0 Multiplicity = 1

                         Standard orientation:
 ---------------------------------------------------------------------
 Center     Atomic      Atomic             Coordinates (Angstroms)
 Number     Number       Type             X           Y           Z
 ---------------------------------------------------------------------
      1          8           0        2.705841   -0.831156   -0.537935
      2          6           0        2.160914    0.033302    0.097250
      3          6           0        0.743832   -0.060756    0.666765
      4          8           0        0.208420    1.246990    0.849012
      5          6           0       -0.436834    1.598732   -0.379717
      6          6           0       -1.094432    0.313671   -0.873436
      7          6           0       -2.321649   -0.185285   -0.056456
      8          6           0       -1.494729   -1.400090    0.449795
      9          6           0       -0.225441   -0.828781   -0.239571
     10          1           0        2.665437    0.994626    0.346789
     11          1           0        0.839249   -0.510409    1.665220
     12          1           0       -1.138359    2.408204   -0.159298
     13          1           0        0.301526    1.965099   -1.111571
     14          1           0       -1.217742    0.290989   -1.957061
     15          1           0       -2.620168    0.507423    0.734932
     16          1           0       -3.204900   -0.432859   -0.648930
     17          1           0       -1.431475   -1.518780    1.535066
     18          1           0       -1.814520   -2.352399    0.020475
     19          1           0        0.316884   -1.503324   -0.902006
 ---------------------------------------------------------------------

 SCF Done:  E(RB3LYP) =  -423.188242118     A.U. after    1 cycles

 The electronic state is 1-A.
 Alpha  occ. eigenvalues --  -19.14935 -19.14754 -10.27182 -10.24093 -10.23274
 Alpha  occ. eigenvalues --  -10.19338 -10.19253 -10.18541 -10.18446  -1.05702
 Alpha  occ. eigenvalues --   -1.04262  -0.84575  -0.76141  -0.70420  -0.65389
 Alpha  occ. eigenvalues --   -0.62226  -0.56850  -0.54611  -0.51022  -0.49611
 Alpha  occ. eigenvalues --   -0.47011  -0.45877  -0.43745  -0.42414  -0.42072
 Alpha  occ. eigenvalues --   -0.39719  -0.36756  -0.35461  -0.33172  -0.32408
 Alpha  occ. eigenvalues --   -0.31009  -0.30257  -0.28388  -0.24308
 Alpha virt. eigenvalues --   -0.03120   0.07956   0.09985   0.10855   0.11592
 Alpha virt. eigenvalues --    0.12043   0.13393   0.14506   0.15151   0.16297
 Alpha virt. eigenvalues --    0.17086   0.19273   0.19478   0.21892   0.22314

 Mulliken charges:
               1
     1  O   -0.237994
     2  C    0.125572
     3  C   -0.001695
     4  O   -0.261849
     5  C   -0.110278
     6  C   -0.018062
     7  C   -0.223526
     8  C   -0.239098
     9  C   -0.032405
    10  H    0.090922
    11  H    0.111314
    12  H    0.114009
    13  H    0.093610
    14  H    0.076181
    15  H    0.107445
    16  H    0.101799
    17  H    0.100206
    18  H    0.105183
    19  H    0.098666
 Sum of Mulliken charges =   0.00000

 Dipole moment (field-independent basis, Debye):
    X=             -1.9295    Y=              0.5234    Z=             -0.0369  Tot=              1.9995
 Quadrupole moment (field-independent basis, Debye-Ang):
   XX=            -57.5830   YY=            -53.9335   ZZ=            -52.9201
   XY=              3.1210   XZ=              3.6361   YZ=             -3.1734

  Exact polarizability:  83.579   0.911  75.222  -0.503  -0.616  64.656
 Approx polarizability: 108.979  -4.325 111.668  -3.270   4.682 103.256

                      1                      2                      3
                      A                      A                      A
 Frequencies --     59.3551                85.2880               149.0157
 Red. masses --      3.0638                 2.6699                 3.2068
 Frc consts  --      0.0064                 0.0114                 0.0420
 IR Inten    --      2.2961                 6.1965                 1.7195

                      4                      5                      6
                      A                      A                      A
 Frequencies --    200.5817               280.4018               350.2454
 Red. masses --      3.2529                 3.7828                 1.8778
 Frc consts  --      0.0771                 0.1752                 0.1357
 IR Inten    --      5.4896                 7.0241                 0.0478

                      7                      8                      9
                      A                      A                      A
 Frequencies --    441.0109               577.3232               636.2181
 Red. masses --      3.5554                 5.8974                 3.5416
 Frc consts  --      0.4074                 1.1581                 0.8446
 IR Inten    --     12.0046                 5.7736                 2.4884

                     10                     11                     12
                      A                      A                      A
 Frequencies --    701.5169               740.7890               745.9510
 Red. masses --      2.6525                 1.9295                 2.0065
 Frc consts  --      0.7691                 0.6238                 0.6578
 IR Inten    --      4.5800                10.9053                 1.8312

                     13                     14                     15
                      A                      A                      A
 Frequencies --    809.8809               864.8315               872.7210
 Red. masses --      2.1858                 3.0477                 1.9639
 Frc consts  --      0.8447                 1.3430                 0.8813
 IR Inten    --      2.3715                 0.0194                 3.9274

                     16                     17                     18
                      A                      A                      A
 Frequencies --    942.2514               964.5565               965.9308
 Red. masses --      3.3179                 1.8885                 2.8100
 Frc consts  --      1.7356                 1.0352                 1.5447
 IR Inten    --     18.7257                 8.8384                 3.8321

                     19                     20                     21
                      A                      A                      A
 Frequencies --    990.2941              1014.8512              1029.4278
 Red. masses --      1.8563                 1.5674                 2.4826
 Frc consts  --      1.0726                 0.9511                 1.5501
 IR Inten    --      8.5820                 7.4019                 5.6123

                     22                     23                     24
                      A                      A                      A
 Frequencies --   1068.4131              1091.9551              1124.9903
 Red. masses --      2.0003                 2.4346                 3.2181
 Frc consts  --      1.3453                 1.7103                 2.3997
 IR Inten    --      2.7930                20.9539                47.3445

                     25                     26                     27
                      A                      A                      A
 Frequencies --   1156.2821              1182.8960              1224.5870
 Red. masses --      1.9212                 1.5493                 1.2108
 Frc consts  --      1.5134                 1.2772                 1.0698
 IR Inten    --      2.0985                 7.7993                 3.9824

                     28                     29                     30
                      A                      A                      A
 Frequencies --   1230.6999              1262.3423              1266.9579
 Red. masses --      1.2529                 1.5062                 1.3509
 Frc consts  --      1.1181                 1.4141                 1.2776
 IR Inten    --      1.0567                 3.5171                 0.4825

                     31                     32                     33
                      A                      A                      A
 Frequencies --   1272.2472              1281.8145              1311.2072
 Red. masses --      1.3320                 1.4307                 1.3246
 Frc consts  --      1.2703                 1.3850                 1.3417
 IR Inten    --      2.6691                 0.3441                 4.5992

                     34                     35                     36
                      A                      A                      A
 Frequencies --   1330.2825              1351.1734              1377.2799
 Red. masses --      1.6162                 1.5490                 1.2851
 Frc consts  --      1.6852                 1.6662                 1.4363
 IR Inten    --      0.2734                 1.2313                 0.0373

                     37                     38                     39
                      A                      A                      A
 Frequencies --   1393.4179              1474.5138              1492.5143
 Red. masses --      1.2835                 1.0825                 1.1179
 Frc consts  --      1.4683                 1.3866                 1.4672
 IR Inten    --      8.5826                 0.9192                 1.5073

                     40                     41                     42
                      A                      A                      A
 Frequencies --   1505.6589              1832.4025              2879.7961
 Red. masses --      1.0937                11.0451                 1.0841
 Frc consts  --      1.4609                21.8506                 5.2971
 IR Inten    --      1.0245               130.6257               101.5832

                     43                     44                     45
                      A                      A                      A
 Frequencies --   2971.5787              3016.9742              3055.3640
 Red. masses --      1.0706                 1.0827                 1.0583
 Frc consts  --      5.5700                 5.8061                 5.8208
 IR Inten    --     63.0515                19.4433                38.7675

                     46                     47                     48
                      A                      A                      A
 Frequencies --   3063.1978              3089.8048              3095.0191
 Red. masses --      1.0603                 1.0931                 1.0970
 Frc consts  --      5.8617                 6.1486                 6.1912
 IR Inten    --     35.4493                30.3548                10.8355

                     49                     50                     51
                      A                      A                      A
 Frequencies --   3103.9251              3116.0990              3124.7920
 Red. masses --      1.0986                 1.0944                 1.0998
 Frc consts  --      6.2362                 6.2608                 6.3270
 IR Inten    --      4.9941                 6.6270                49.1979

 - Thermochemistry -
 -------------------
 Temperature   298.150 Kelvin.  Pressure   1.00000 Atm.
 Atom     1 has atomic number  8 and mass  15.99491

 Molecular mass:   126.06808 amu.
 Principal axes and moments of inertia in atomic units:
                           1         2         3
     Eigenvalues --   604.909861321.843491586.57977
           X            0.99956   0.02893   0.00686
           Y           -0.02852   0.99819  -0.05302
           Z           -0.00838   0.05280   0.99857
 This molecule is an asymmetric top.
 Rotational symmetry number  1.
 Warning -- assumption of classical behavior for rotation
           may cause significant error
 Rotational temperatures (Kelvin)      0.14318     0.06553     0.05459
 Rotational constants (GHZ):           2.98349     1.36532     1.13750
 Zero-point vibrational energy     419713.6 (Joules/Mol)
                                  100.31395 (Kcal/Mol)
 Warning -- explicit consideration of   8 degrees of freedom as
           vibrations may cause significant error
 Vibrational temperatures:     85.40   122.71   214.40   288.59   403.44
          (Kelvin)            503.92   634.52   830.64   915.37  1009.33
                             1065.83  1073.26  1165.24  1244.30  1255.65
                             1355.69  1387.78  1389.76  1424.81  1460.14
                             1481.12  1537.21  1571.08  1618.61  1663.63
                             1701.92  1761.91  1770.70  1816.23  1822.87
                             1830.48  1844.24  1886.53  1913.98  1944.03
                             1981.60  2004.82  2121.49  2147.39  2166.30
                             2636.42  4143.38  4275.43  4340.75  4395.98
                             4407.25  4445.53  4453.04  4465.85  4483.37
                             4495.87

 Zero-point correction=                           0.159860 (Hartree/Particle)
 Thermal correction to Energy=                    0.167863
 Thermal correction to Enthalpy=                  0.168807
 Thermal correction to Gibbs Free Energy=         0.126488
 Sum of electronic and zero-point Energies=           -423.028382
 Sum of electronic and thermal Energies=              -423.020379
 Sum of electronic and thermal Enthalpies=            -423.019435
 Sum of electronic and thermal Free Energies=         -423.061754

                     E (Thermal)             CV                S
                      KCal/Mol        Cal/Mol-Kelvin    Cal/Mol-Kelvin
 Total                  105.336             29.972             89.068
 Electronic               0.000              0.000              0.000
 Translational            0.889              2.981             40.409
 Rotational               0.889              2.981             28.630
 Vibrational            103.558             24.011             20.029
 Vibration     1          0.597              1.974              4.479
 Vibration     2          0.601              1.959              3.765
 Vibration     3          0.618              1.904              2.685
 Vibration     4          0.638              1.839              2.128
 Vibration     5          0.680              1.710              1.531
 Vibration     6          0.727              1.575              1.165
 Vibration     7          0.801              1.381              0.823
 Vibration     8          0.934              1.080              0.490

 Optimization completed.
    -- Stationary point found.
 Normal termination of Gaussian 09 at Mon Jan 27 15:38:53 2020.
