 Gaussian 09, Revision D.01,
 Gaussian 09:  ES64L-G09RevD.01 24-Apr-2013

 -----------------------------
 # b3lyp 6-31G(2df,p) opt Freq
 -----------------------------

 -----
 titel
 -----
 Symbolic Z-matrix:
 Charge =  0 Multiplicity = 1

 SCF Done:  E(RB3LYP) =  -423.122016033     A.U. after   13 cycles
 Optimization completed.
    -- Stationary point found.
 Normal termination of Gaussian 09 at Tue Jan 28 09:55:02 2020.

 ----------------------------------------------------------------------
 #N Geom=AllCheck Guess=TCheck SCRF=Check GenChk RB3LYP/6-31G(2df,p) Fr
 eq
 ----------------------------------------------------------------------

 Structure from the checkpoint file:  "/scratch/puck/g09_04a81de2-206a-440f-9170-aee6bc37e098/Gau-18894.chk"
 -----
 titel
 -----
 Charge =  0 Multiplicity = 1

                         Standard orientation:
 ---------------------------------------------------------------------
 Center     Atomic      Atomic             Coordinates (Angstroms)
 Number     Number       Type             X           Y           Z
 ---------------------------------------------------------------------
      1          8           0       -2.438088    0.351387    0.230779
      2          6           0       -1.692061   -0.587642   -0.550890
      3          6           0       -0.239486   -0.580542   -0.163329
      4          6           0        0.238416   -0.934666    1.279033
      5          6           0        1.362449    0.071857    1.053724
      6          6           0        1.780420   -0.053950   -0.451300
      7          6           0        0.899202   -1.138901   -1.070297
      8          6           0        0.601173    0.766481   -0.048385
      9          8           0        0.262808    2.059388   -0.342843
     10          1           0       -2.513716   -0.005437    1.121224
     11          1           0       -2.127339   -1.596777   -0.481186
     12          1           0       -1.805460   -0.254418   -1.588146
     13          1           0       -0.457802   -0.582137    2.047966
     14          1           0        0.491420   -1.983971    1.471056
     15          1           0        2.055083    0.491272    1.771901
     16          1           0        2.756817    0.289338   -0.767380
     17          1           0        0.707972   -0.940933   -2.129248
     18          1           0        1.175646   -2.191084   -0.935802
     19          1           0       -0.581063    2.232124    0.094794
 ---------------------------------------------------------------------

 SCF Done:  E(RB3LYP) =  -423.122016033     A.U. after    1 cycles

 The electronic state is 1-A.
 Alpha  occ. eigenvalues --  -19.14847 -19.14545 -10.23085 -10.23084 -10.19377
 Alpha  occ. eigenvalues --  -10.18596 -10.18583 -10.18424 -10.18405  -1.03537
 Alpha  occ. eigenvalues --   -1.02146  -0.91915  -0.73988  -0.71860  -0.67210
 Alpha  occ. eigenvalues --   -0.60594  -0.55799  -0.53904  -0.52212  -0.48849
 Alpha  occ. eigenvalues --   -0.46024  -0.45608  -0.42593  -0.42313  -0.40408
 Alpha  occ. eigenvalues --   -0.38037  -0.37260  -0.34924  -0.33556  -0.30900
 Alpha  occ. eigenvalues --   -0.29653  -0.28006  -0.25095  -0.22237
 Alpha virt. eigenvalues --    0.05617   0.09796   0.10212   0.11994   0.12687
 Alpha virt. eigenvalues --    0.13448   0.14172   0.15052   0.15885   0.16336
 Alpha virt. eigenvalues --    0.18623   0.19331   0.20217   0.22152   0.22534

 Mulliken charges:
               1
     1  O   -0.422203
     2  C   -0.211807
     3  C    0.235273
     4  C   -0.281180
     5  C   -0.150503
     6  C   -0.120772
     7  C   -0.290207
     8  C    0.368451
     9  O   -0.457296
    10  H    0.286856
    11  H    0.095395
    12  H    0.117766
    13  H    0.079408
    14  H    0.089461
    15  H    0.087192
    16  H    0.089637
    17  H    0.102371
    18  H    0.088114
    19  H    0.294046
 Sum of Mulliken charges =   0.00000

 Dipole moment (field-independent basis, Debye):
    X=             -0.5371    Y=             -1.5320    Z=              1.1720  Tot=              2.0023
 Quadrupole moment (field-independent basis, Debye-Ang):
   XX=            -53.8536   YY=            -54.9614   ZZ=            -50.7367
   XY=              0.8181   XZ=             -2.1853   YZ=              2.0036

  Exact polarizability:  78.629  -0.057  71.911  -0.953   1.072  73.102
 Approx polarizability: 110.367  -3.021 109.721  -2.135  -0.639 110.858

                      1                      2                      3
                      A                      A                      A
 Frequencies --     52.7622               155.8367               213.0341
 Red. masses --      3.9044                 3.8300                 2.4481
 Frc consts  --      0.0064                 0.0548                 0.0655
 IR Inten    --      7.9235                 2.0571                 4.6570

                      4                      5                      6
                      A                      A                      A
 Frequencies --    271.5473               303.3052               348.5330
 Red. masses --      3.3981                 1.2467                 1.4572
 Frc consts  --      0.1476                 0.0676                 0.1043
 IR Inten    --      1.7534                38.5105                79.1379

                      7                      8                      9
                      A                      A                      A
 Frequencies --    394.9973               420.6527               486.0891
 Red. masses --      2.5705                 1.6056                 2.3308
 Frc consts  --      0.2363                 0.1674                 0.3245
 IR Inten    --      4.6580               127.3947                 1.8805

                     10                     11                     12
                      A                      A                      A
 Frequencies --    488.0145               636.7785               648.0296
 Red. masses --      2.6739                 4.2943                 3.4205
 Frc consts  --      0.3752                 1.0259                 0.8463
 IR Inten    --     11.4025                 4.7418                14.3422

                     13                     14                     15
                      A                      A                      A
 Frequencies --    727.0136               757.4572               817.6022
 Red. masses --      3.7928                 3.1096                 2.6378
 Frc consts  --      1.1811                 1.0512                 1.0389
 IR Inten    --      0.5648                 5.6562                 0.7910

                     16                     17                     18
                      A                      A                      A
 Frequencies --    874.0464               902.6412               926.6463
 Red. masses --      1.8046                 1.5983                 2.0647
 Frc consts  --      0.8122                 0.7672                 1.0446
 IR Inten    --      2.1598                 5.4218                 4.9436

                     19                     20                     21
                      A                      A                      A
 Frequencies --    966.9285               984.1168               989.3900
 Red. masses --      1.7636                 1.5396                 1.4971
 Frc consts  --      0.9715                 0.8785                 0.8634
 IR Inten    --     28.8609                 4.8296                 1.3427

                     22                     23                     24
                      A                      A                      A
 Frequencies --   1017.2792              1040.2047              1082.0253
 Red. masses --      2.3133                 5.0091                 1.7989
 Frc consts  --      1.4105                 3.1934                 1.2409
 IR Inten    --     10.1674                50.8134                12.2913

                     25                     26                     27
                      A                      A                      A
 Frequencies --   1086.0919              1090.1732              1127.4412
 Red. masses --      2.1024                 2.2228                 1.3551
 Frc consts  --      1.4612                 1.5565                 1.0149
 IR Inten    --      3.6598                 3.7718                14.1991

                     28                     29                     30
                      A                      A                      A
 Frequencies --   1154.1577              1202.4141              1229.4412
 Red. masses --      1.3977                 1.5872                 1.8546
 Frc consts  --      1.0969                 1.3520                 1.6517
 IR Inten    --      4.2240                 3.6833                21.9057

                     31                     32                     33
                      A                      A                      A
 Frequencies --   1242.0026              1251.9814              1281.5366
 Red. masses --      1.4756                 1.7995                 1.8694
 Frc consts  --      1.3411                 1.6619                 1.8089
 IR Inten    --      4.3755                10.5256                13.1057

                     34                     35                     36
                      A                      A                      A
 Frequencies --   1318.5795              1350.4501              1375.3557
 Red. masses --      1.6193                 2.3028                 1.4029
 Frc consts  --      1.6588                 2.4744                 1.5635
 IR Inten    --     92.3226                81.8563                 8.0150

                     37                     38                     39
                      A                      A                      A
 Frequencies --   1412.6028              1483.3760              1491.2588
 Red. masses --      1.3013                 1.1411                 1.6882
 Frc consts  --      1.5299                 1.4794                 2.2119
 IR Inten    --     35.1986                 2.7833                22.4049

                     40                     41                     42
                      A                      A                      A
 Frequencies --   1495.3210              1515.6828              2984.1902
 Red. masses --      1.1114                 1.7785                 1.0688
 Frc consts  --      1.4642                 2.4073                 5.6079
 IR Inten    --      3.0150                27.3278                55.3785

                     43                     44                     45
                      A                      A                      A
 Frequencies --   3022.3364              3031.4078              3070.0086
 Red. masses --      1.0567                 1.0587                 1.0943
 Frc consts  --      5.6870                 5.7323                 6.0769
 IR Inten    --     51.4076                60.8070                17.5063

                     46                     47                     48
                      A                      A                      A
 Frequencies --   3074.0319              3091.6212              3196.6999
 Red. masses --      1.1067                 1.1050                 1.0919
 Frc consts  --      6.1618                 6.2229                 6.5742
 IR Inten    --     39.4387                33.8419                 5.9372

                     49                     50                     51
                      A                      A                      A
 Frequencies --   3205.9685              3769.2737              3823.1750
 Red. masses --      1.0944                 1.0655                 1.0662
 Frc consts  --      6.6273                 8.9189                 9.1816
 IR Inten    --     23.6022                39.9713                17.4262

 - Thermochemistry -
 -------------------
 Temperature   298.150 Kelvin.  Pressure   1.00000 Atm.
 Atom     1 has atomic number  8 and mass  15.99491

 Molecular mass:   126.06808 amu.
 Principal axes and moments of inertia in atomic units:
                           1         2         3
     Eigenvalues --   730.596671109.001391300.62826
           X            0.99999   0.00420  -0.00166
           Y           -0.00414   0.99934   0.03597
           Z            0.00181  -0.03596   0.99935
 This molecule is an asymmetric top.
 Rotational symmetry number  1.
 Warning -- assumption of classical behavior for rotation
           may cause significant error
 Rotational temperatures (Kelvin)      0.11855     0.07810     0.06659
 Rotational constants (GHZ):           2.47023     1.62736     1.38759
 Zero-point vibrational energy     417984.3 (Joules/Mol)
                                   99.90064 (Kcal/Mol)
 Warning -- explicit consideration of  10 degrees of freedom as
           vibrations may cause significant error
 Vibrational temperatures:     75.91   224.21   306.51   390.70   436.39
          (Kelvin)            501.46   568.31   605.22   699.37   702.14
                              916.18   932.37  1046.01  1089.81  1176.35
                             1257.56  1298.70  1333.24  1391.19  1415.92
                             1423.51  1463.64  1496.62  1556.79  1562.64
                             1568.51  1622.13  1660.57  1730.00  1768.89
                             1786.96  1801.32  1843.84  1897.14  1942.99
                             1978.83  2032.42  2134.24  2145.59  2151.43
                             2180.73  4293.58  4348.46  4361.51  4417.05
                             4422.84  4448.15  4599.33  4612.67  5423.14
                             5500.69

 Zero-point correction=                           0.159202 (Hartree/Particle)
 Thermal correction to Energy=                    0.167483
 Thermal correction to Enthalpy=                  0.168427
 Thermal correction to Gibbs Free Energy=         0.126344
 Sum of electronic and zero-point Energies=           -422.962814
 Sum of electronic and thermal Energies=              -422.954533
 Sum of electronic and thermal Enthalpies=            -422.953589
 Sum of electronic and thermal Free Energies=         -422.995672

                     E (Thermal)             CV                S
                      KCal/Mol        Cal/Mol-Kelvin    Cal/Mol-Kelvin
 Total                  105.097             32.547             88.573
 Electronic               0.000              0.000              0.000
 Translational            0.889              2.981             40.409
 Rotational               0.889              2.981             28.446
 Vibrational            103.320             26.585             19.719
 Vibration     1          0.596              1.977              4.711
 Vibration     2          0.620              1.896              2.600
 Vibration     3          0.644              1.821              2.018
 Vibration     4          0.675              1.726              1.586
 Vibration     5          0.695              1.667              1.399
 Vibration     6          0.726              1.578              1.173
 Vibration     7          0.762              1.481              0.981
 Vibration     8          0.783              1.425              0.890
 Vibration     9          0.842              1.281              0.694
 Vibration    10          0.844              1.277              0.689

 Normal termination of Gaussian 09 at Tue Jan 28 10:39:35 2020.
