 Gaussian 09, Revision D.01,
 Gaussian 09:  ES64L-G09RevD.01 24-Apr-2013

 -----------------------------
 # b3lyp 6-31G(2df,p) opt Freq
 -----------------------------

 -----
 titel
 -----
 Symbolic Z-matrix:
 Charge =  0 Multiplicity = 1

 SCF Done:  E(RB3LYP) =  -423.125660038     A.U. after   13 cycles
 Optimization completed.
    -- Stationary point found.
 Normal termination of Gaussian 09 at Tue Jan 28 02:53:53 2020.

 ----------------------------------------------------------------------
 #N Geom=AllCheck Guess=TCheck SCRF=Check GenChk RB3LYP/6-31G(2df,p) Fr
 eq
 ----------------------------------------------------------------------

 Structure from the checkpoint file:  "/scratch/puck/g09_f3ad2171-c9dd-476c-aef7-ab4f8bfe886d/Gau-113788.chk"
 -----
 titel
 -----
 Charge =  0 Multiplicity = 1

                         Standard orientation:
 ---------------------------------------------------------------------
 Center     Atomic      Atomic             Coordinates (Angstroms)
 Number     Number       Type             X           Y           Z
 ---------------------------------------------------------------------
      1          8           0       -2.425916    0.958801   -0.131609
      2          6           0       -1.520079    0.072193    0.483392
      3          6           0       -1.267542   -1.276812   -0.292930
      4          6           0        0.098984   -0.726093   -0.833652
      5          6           0        1.411932   -0.909396   -0.067952
      6          6           0        2.164751    0.428661   -0.367805
      7          6           0        1.007855    1.447016   -0.014273
      8          6           0       -0.025282    0.364766    0.267792
      9          8           0        0.723829   -0.544403    1.161311
     10          1           0       -2.220901    1.005340   -1.071947
     11          1           0       -1.825967   -0.007627    1.528512
     12          1           0       -1.198587   -2.157533    0.344695
     13          1           0       -2.008758   -1.455117   -1.076442
     14          1           0        0.135426   -0.485838   -1.898624
     15          1           0        2.002694   -1.826094   -0.007788
     16          1           0        3.025982    0.537503    0.293900
     17          1           0        2.505571    0.511492   -1.403778
     18          1           0        1.242457    2.063725    0.855559
     19          1           0        0.735072    2.096953   -0.849139
 ---------------------------------------------------------------------

 SCF Done:  E(RB3LYP) =  -423.125660038     A.U. after    1 cycles

 The electronic state is 1-A.
 Alpha  occ. eigenvalues --  -19.14382 -19.13111 -10.23994 -10.23833 -10.23417
 Alpha  occ. eigenvalues --  -10.18978 -10.18827 -10.18806 -10.18733  -1.05371
 Alpha  occ. eigenvalues --   -1.02470  -0.81309  -0.78039  -0.71291  -0.65646
 Alpha  occ. eigenvalues --   -0.62669  -0.57412  -0.52997  -0.51651  -0.48498
 Alpha  occ. eigenvalues --   -0.47244  -0.45164  -0.43734  -0.40936  -0.38151
 Alpha  occ. eigenvalues --   -0.37521  -0.35852  -0.35449  -0.34700  -0.32410
 Alpha  occ. eigenvalues --   -0.31322  -0.26747  -0.26643  -0.24673
 Alpha virt. eigenvalues --    0.05854   0.08112   0.09659   0.11125   0.12989
 Alpha virt. eigenvalues --    0.13651   0.13762   0.14774   0.16070   0.16928
 Alpha virt. eigenvalues --    0.18072   0.18552   0.19657   0.20330   0.21360

 Mulliken charges:
               1
     1  O   -0.427796
     2  C    0.025044
     3  C   -0.294136
     4  C   -0.068099
     5  C    0.055741
     6  C   -0.212298
     7  C   -0.320129
     8  C    0.402958
     9  O   -0.334160
    10  H    0.281703
    11  H    0.103864
    12  H    0.122106
    13  H    0.099003
    14  H    0.067240
    15  H    0.075534
    16  H    0.111618
    17  H    0.098477
    18  H    0.113512
    19  H    0.099817
 Sum of Mulliken charges =   0.00000

 Dipole moment (field-independent basis, Debye):
    X=              0.9396    Y=             -0.1628    Z=             -2.2824  Tot=              2.4737
 Quadrupole moment (field-independent basis, Debye-Ang):
   XX=            -55.4618   YY=            -53.1996   ZZ=            -52.3430
   XY=              1.9678   XZ=              0.8628   YZ=             -0.4397

  Exact polarizability:  84.334   1.757  72.347  -0.249  -0.142  66.533
 Approx polarizability: 112.999  -2.295 105.981   0.120  -1.345 110.157

                      1                      2                      3
                      A                      A                      A
 Frequencies --    129.3251               217.4990               283.6192
 Red. masses --      3.7391                 2.5695                 1.8118
 Frc consts  --      0.0368                 0.0716                 0.0859
 IR Inten    --      1.4316                 3.0585                 4.1323

                      4                      5                      6
                      A                      A                      A
 Frequencies --    296.2315               348.9972               427.3401
 Red. masses --      1.2249                 2.7275                 5.4949
 Frc consts  --      0.0633                 0.1957                 0.5912
 IR Inten    --     80.6667                 0.3141                 2.9838

                      7                      8                      9
                      A                      A                      A
 Frequencies --    447.9053               504.6381               620.8956
 Red. masses --      1.9476                 4.0926                 4.6004
 Frc consts  --      0.2302                 0.6141                 1.0449
 IR Inten    --      4.2768                21.1573                 1.2664

                     10                     11                     12
                      A                      A                      A
 Frequencies --    708.8116               739.7511               797.8843
 Red. masses --      3.4063                 2.5317                 2.4946
 Frc consts  --      1.0083                 0.8163                 0.9357
 IR Inten    --      4.9404                10.4576                21.1829

                     13                     14                     15
                      A                      A                      A
 Frequencies --    820.0374               832.2037               858.6056
 Red. masses --      2.5212                 1.7183                 3.4412
 Frc consts  --      0.9989                 0.7011                 1.4947
 IR Inten    --      3.5317                 3.0720                 1.2548

                     16                     17                     18
                      A                      A                      A
 Frequencies --    869.2123               904.3103               928.5225
 Red. masses --      2.8434                 2.6893                 3.2550
 Frc consts  --      1.2657                 1.2958                 1.6535
 IR Inten    --      3.5140                14.2070                13.4616

                     19                     20                     21
                      A                      A                      A
 Frequencies --    956.7424               983.0584              1002.1882
 Red. masses --      3.3196                 2.4618                 2.1917
 Frc consts  --      1.7903                 1.4017                 1.2970
 IR Inten    --     32.0427                 8.7572                 4.0916

                     22                     23                     24
                      A                      A                      A
 Frequencies --   1045.4734              1060.5772              1104.5921
 Red. masses --      1.4581                 2.2784                 2.3672
 Frc consts  --      0.9390                 1.5100                 1.7017
 IR Inten    --      0.9000                13.0188                60.2797

                     25                     26                     27
                      A                      A                      A
 Frequencies --   1120.5514              1152.4331              1165.1347
 Red. masses --      1.4627                 1.6692                 1.4718
 Frc consts  --      1.0821                 1.3061                 1.1772
 IR Inten    --     66.4213                16.1293                 2.5019

                     28                     29                     30
                      A                      A                      A
 Frequencies --   1198.1172              1209.2562              1235.3749
 Red. masses --      1.6259                 1.3242                 1.5636
 Frc consts  --      1.3751                 1.1409                 1.4059
 IR Inten    --      9.7294                 3.2679                 4.3868

                     31                     32                     33
                      A                      A                      A
 Frequencies --   1237.9799              1264.7821              1280.0393
 Red. masses --      1.3429                 1.5026                 1.3741
 Frc consts  --      1.2126                 1.4162                 1.3266
 IR Inten    --      1.7642                 5.0567                 0.1296

                     34                     35                     36
                      A                      A                      A
 Frequencies --   1289.3412              1300.7156              1317.9372
 Red. masses --      1.5438                 1.5508                 2.4644
 Frc consts  --      1.5121                 1.5459                 2.5221
 IR Inten    --      1.2571                 5.3591                 3.9353

                     37                     38                     39
                      A                      A                      A
 Frequencies --   1345.9471              1420.6206              1457.4264
 Red. masses --      1.7551                 1.2877                 1.1160
 Frc consts  --      1.8733                 1.5312                 1.3966
 IR Inten    --      1.0708                70.3951                 4.3742

                     40                     41                     42
                      A                      A                      A
 Frequencies --   1478.8409              1499.8921              3062.4227
 Red. masses --      1.0891                 1.1211                 1.0607
 Frc consts  --      1.4033                 1.4860                 5.8613
 IR Inten    --      0.2689                 2.2177                18.5576

                     43                     44                     45
                      A                      A                      A
 Frequencies --   3069.4970              3072.3583              3082.0842
 Red. masses --      1.0665                 1.0602                 1.0807
 Frc consts  --      5.9205                 5.8963                 6.0487
 IR Inten    --     12.0597                51.7880                42.1495

                     46                     47                     48
                      A                      A                      A
 Frequencies --   3095.2924              3098.8670              3113.7286
 Red. masses --      1.0908                 1.0885                 1.1062
 Frc consts  --      6.1573                 6.1588                 6.3191
 IR Inten    --     74.1489                11.4270                 1.8777

                     49                     50                     51
                      A                      A                      A
 Frequencies --   3129.6621              3144.7325              3800.0468
 Red. masses --      1.1061                 1.1044                 1.0658
 Frc consts  --      6.3835                 6.4350                 9.0682
 IR Inten    --     36.8051                15.8644                10.6025

 - Thermochemistry -
 -------------------
 Temperature   298.150 Kelvin.  Pressure   1.00000 Atm.
 Atom     1 has atomic number  8 and mass  15.99491

 Molecular mass:   126.06808 amu.
 Principal axes and moments of inertia in atomic units:
                           1         2         3
     Eigenvalues --   546.971451164.895541365.87072
           X            0.99928   0.03772  -0.00508
           Y           -0.03771   0.99929   0.00088
           Z            0.00511  -0.00069   0.99999
 This molecule is an asymmetric top.
 Rotational symmetry number  1.
 Warning -- assumption of classical behavior for rotation
           may cause significant error
 Rotational temperatures (Kelvin)      0.15835     0.07435     0.06341
 Rotational constants (GHZ):           3.29952     1.54927     1.32131
 Zero-point vibrational energy     421872.1 (Joules/Mol)
                                  100.82984 (Kcal/Mol)
 Warning -- explicit consideration of   8 degrees of freedom as
           vibrations may cause significant error
 Vibrational temperatures:    186.07   312.93   408.06   426.21   502.13
          (Kelvin)            614.85   644.44   726.06   893.33  1019.82
                             1064.34  1147.98  1179.85  1197.35  1235.34
                             1250.60  1301.10  1335.94  1376.54  1414.40
                             1441.92  1504.20  1525.93  1589.26  1612.22
                             1658.09  1676.37  1723.82  1739.85  1777.43
                             1781.17  1819.74  1841.69  1855.07  1871.44
                             1896.22  1936.52  2043.95  2096.91  2127.72
                             2158.01  4406.14  4416.32  4420.43  4434.43
                             4453.43  4458.57  4479.96  4502.88  4524.56
                             5467.41

 Zero-point correction=                           0.160683 (Hartree/Particle)
 Thermal correction to Energy=                    0.167949
 Thermal correction to Enthalpy=                  0.168893
 Thermal correction to Gibbs Free Energy=         0.129351
 Sum of electronic and zero-point Energies=           -422.964977
 Sum of electronic and thermal Energies=              -422.957711
 Sum of electronic and thermal Enthalpies=            -422.956767
 Sum of electronic and thermal Free Energies=         -422.996309

                     E (Thermal)             CV                S
                      KCal/Mol        Cal/Mol-Kelvin    Cal/Mol-Kelvin
 Total                  105.389             30.017             83.222
 Electronic               0.000              0.000              0.000
 Translational            0.889              2.981             40.409
 Rotational               0.889              2.981             28.256
 Vibrational            103.612             24.055             14.558
 Vibration     1          0.612              1.924              2.956
 Vibration     2          0.646              1.814              1.980
 Vibration     3          0.682              1.704              1.512
 Vibration     4          0.690              1.681              1.438
 Vibration     5          0.726              1.577              1.171
 Vibration     6          0.789              1.411              0.867
 Vibration     7          0.807              1.366              0.802
 Vibration     8          0.860              1.240              0.647

 Normal termination of Gaussian 09 at Tue Jan 28 03:40:08 2020.
