 Gaussian 09, Revision D.01,
 Gaussian 09:  ES64L-G09RevD.01 24-Apr-2013

 -----------------------------
 # b3lyp 6-31G(2df,p) opt Freq
 -----------------------------

 -----
 titel
 -----
 Symbolic Z-matrix:
 Charge =  0 Multiplicity = 1

 SCF Done:  E(RB3LYP) =  -423.165789069     A.U. after   14 cycles
 Optimization completed.
    -- Stationary point found.
 Normal termination of Gaussian 09 at Mon Jan 27 18:43:44 2020.

 ----------------------------------------------------------------------
 #N Geom=AllCheck Guess=TCheck SCRF=Check GenChk RB3LYP/6-31G(2df,p) Fr
 eq
 ----------------------------------------------------------------------

 Structure from the checkpoint file:  "/scratch/puck/g09_cda83570-6c5e-4446-955f-407a4e3a4f56/Gau-18922.chk"
 -----
 titel
 -----
 Charge =  0 Multiplicity = 1

                         Standard orientation:
 ---------------------------------------------------------------------
 Center     Atomic      Atomic             Coordinates (Angstroms)
 Number     Number       Type             X           Y           Z
 ---------------------------------------------------------------------
      1          6           0       -0.901974    1.914873   -0.372137
      2          6           0       -0.873856    0.449979   -0.008672
      3          6           0       -1.058632    0.049880    1.483552
      4          6           0        0.245604   -0.799781    1.433371
      5          6           0        0.406225   -0.486753   -0.070002
      6          8           0       -0.272368   -1.406833   -0.941263
      7          6           0       -1.461351   -0.583426   -0.991364
      8          6           0        1.732253   -0.035264   -0.596720
      9          8           0        2.529086    0.595815    0.055039
     10          1           0       -0.628662    2.079944   -1.419617
     11          1           0       -1.906774    2.327270   -0.218658
     12          1           0       -0.209281    2.488456    0.251958
     13          1           0       -1.001133    0.899148    2.168225
     14          1           0       -1.979415   -0.500227    1.694883
     15          1           0        1.064072   -0.372752    2.016491
     16          1           0        0.152228   -1.865313    1.650285
     17          1           0       -1.633671   -0.199497   -2.005464
     18          1           0       -2.355344   -1.123071   -0.655312
     19          1           0        1.914625   -0.302868   -1.661167
 ---------------------------------------------------------------------

 SCF Done:  E(RB3LYP) =  -423.165789069     A.U. after    1 cycles

 The electronic state is 1-A.
 Alpha  occ. eigenvalues --  -19.14508 -19.14305 -10.26894 -10.24231 -10.23876
 Alpha  occ. eigenvalues --  -10.21372 -10.19262 -10.18974 -10.18900  -1.05675
 Alpha  occ. eigenvalues --   -1.04372  -0.83966  -0.75717  -0.71051  -0.66704
 Alpha  occ. eigenvalues --   -0.62560  -0.60169  -0.51317  -0.49782  -0.49031
 Alpha  occ. eigenvalues --   -0.47122  -0.45036  -0.43016  -0.42335  -0.41323
 Alpha  occ. eigenvalues --   -0.40872  -0.39132  -0.37237  -0.35201  -0.33398
 Alpha  occ. eigenvalues --   -0.31172  -0.29297  -0.26463  -0.24359
 Alpha virt. eigenvalues --   -0.03836   0.07105   0.08698   0.10068   0.12084
 Alpha virt. eigenvalues --    0.12551   0.12862   0.14862   0.15185   0.15963
 Alpha virt. eigenvalues --    0.17023   0.17886   0.18416   0.21227   0.22049

 Mulliken charges:
               1
     1  C   -0.498640
     2  C    0.242817
     3  C   -0.281219
     4  C   -0.271375
     5  C    0.311609
     6  O   -0.339406
     7  C   -0.121625
     8  C    0.083785
     9  O   -0.262159
    10  H    0.122021
    11  H    0.124914
    12  H    0.136760
    13  H    0.109863
    14  H    0.104147
    15  H    0.129753
    16  H    0.114864
    17  H    0.102927
    18  H    0.103560
    19  H    0.087402
 Sum of Mulliken charges =   0.00000

 Dipole moment (field-independent basis, Debye):
    X=             -2.6738    Y=              0.5364    Z=              0.0406  Tot=              2.7273
 Quadrupole moment (field-independent basis, Debye-Ang):
   XX=            -57.3449   YY=            -55.3047   ZZ=            -51.7587
   XY=             -3.0034   XZ=             -0.9145   YZ=             -2.1202

  Exact polarizability:  82.517   1.427  68.836   0.758  -0.005  75.699
 Approx polarizability: 121.328   5.360 101.614   4.772   5.199 109.308

                      1                      2                      3
                      A                      A                      A
 Frequencies --     69.8757                79.7324               178.4628
 Red. masses --      3.1445                 3.2036                 2.1996
 Frc consts  --      0.0090                 0.0120                 0.0413
 IR Inten    --      2.1168                 4.4985                 4.1297

                      4                      5                      6
                      A                      A                      A
 Frequencies --    212.0840               233.9992               265.6236
 Red. masses --      1.1585                 2.5474                 2.4743
 Frc consts  --      0.0307                 0.0822                 0.1029
 IR Inten    --      0.7191                 6.5661                 3.7889

                      7                      8                      9
                      A                      A                      A
 Frequencies --    331.2407               370.1478               432.2302
 Red. masses --      2.2126                 3.1879                 2.4019
 Frc consts  --      0.1430                 0.2573                 0.2644
 IR Inten    --      0.2648                 3.9430                 1.2106

                     10                     11                     12
                      A                      A                      A
 Frequencies --    494.1329               619.1452               651.2270
 Red. masses --      5.2959                 3.9055                 3.9096
 Frc consts  --      0.7619                 0.8821                 0.9769
 IR Inten    --      1.0240                 7.3882                 1.8219

                     13                     14                     15
                      A                      A                      A
 Frequencies --    727.7830               754.8177               833.4331
 Red. masses --      2.1902                 1.6602                 2.3623
 Frc consts  --      0.6835                 0.5573                 0.9668
 IR Inten    --      7.4190                 8.6085                 5.9270

                     16                     17                     18
                      A                      A                      A
 Frequencies --    877.2477               914.5254               955.0199
 Red. masses --      3.0338                 1.9091                 2.6948
 Frc consts  --      1.3756                 0.9408                 1.4481
 IR Inten    --     13.1325                 5.4208                 1.2377

                     19                     20                     21
                      A                      A                      A
 Frequencies --    964.0415               995.2306              1015.6179
 Red. masses --      1.5283                 1.6029                 6.8658
 Frc consts  --      0.8368                 0.9354                 4.1725
 IR Inten    --      1.3051                 7.1904                61.3712

                     22                     23                     24
                      A                      A                      A
 Frequencies --   1040.3872              1095.6074              1141.0425
 Red. masses --      1.6504                 2.3544                 2.2242
 Frc consts  --      1.0525                 1.6651                 1.7062
 IR Inten    --      7.4385                12.5745                 4.6131

                     25                     26                     27
                      A                      A                      A
 Frequencies --   1152.0756              1161.7039              1215.0248
 Red. masses --      2.9558                 1.2838                 2.1134
 Frc consts  --      2.3114                 1.0208                 1.8383
 IR Inten    --     50.3202                 2.0985                12.5487

                     28                     29                     30
                      A                      A                      A
 Frequencies --   1233.0606              1242.7348              1261.2225
 Red. masses --      1.4414                 1.9799                 1.6688
 Frc consts  --      1.2913                 1.8016                 1.5640
 IR Inten    --      6.2389                 1.3098                 1.7661

                     31                     32                     33
                      A                      A                      A
 Frequencies --   1281.6995              1297.2880              1362.1380
 Red. masses --      2.0568                 1.8746                 1.6546
 Frc consts  --      1.9907                 1.8588                 1.8088
 IR Inten    --      8.4004                 3.7366                 1.7642

                     34                     35                     36
                      A                      A                      A
 Frequencies --   1398.1260              1413.8393              1457.0878
 Red. masses --      1.2962                 1.2802                 1.0923
 Frc consts  --      1.4928                 1.5077                 1.3664
 IR Inten    --      9.8697                 3.9825                 3.2316

                     37                     38                     39
                      A                      A                      A
 Frequencies --   1483.6645              1490.3824              1492.8201
 Red. masses --      1.1002                 1.0542                 1.0549
 Frc consts  --      1.4269                 1.3796                 1.3851
 IR Inten    --      1.7496                 5.6687                 3.3080

                     40                     41                     42
                      A                      A                      A
 Frequencies --   1524.0508              1808.5381              2892.0479
 Red. masses --      1.0990                10.6690                 1.0841
 Frc consts  --      1.5040                20.5602                 5.3421
 IR Inten    --      1.1932               130.4319               101.7373

                     43                     44                     45
                      A                      A                      A
 Frequencies --   3005.6429              3024.5475              3053.9792
 Red. masses --      1.0557                 1.0369                 1.1084
 Frc consts  --      5.6189                 5.5886                 6.0906
 IR Inten    --     68.3245                24.2873                27.3347

                     46                     47                     48
                      A                      A                      A
 Frequencies --   3060.0275              3075.4918              3088.7841
 Red. masses --      1.0600                 1.0583                 1.0992
 Frc consts  --      5.8482                 5.8980                 6.1789
 IR Inten    --     43.5260                18.2634                16.6054

                     49                     50                     51
                      A                      A                      A
 Frequencies --   3103.6650              3109.6969              3139.8535
 Red. masses --      1.1021                 1.1076                 1.1086
 Frc consts  --      6.2547                 6.3108                 6.4394
 IR Inten    --     13.4008                14.8316                14.5412

 - Thermochemistry -
 -------------------
 Temperature   298.150 Kelvin.  Pressure   1.00000 Atm.
 Atom     1 has atomic number  6 and mass  12.00000

 Molecular mass:   126.06808 amu.
 Principal axes and moments of inertia in atomic units:
                           1         2         3
     Eigenvalues --   811.429001172.034461226.98917
           X            0.99897  -0.04486   0.00748
           Y            0.04527   0.96543  -0.25670
           Z            0.00430   0.25677   0.96646
 This molecule is an asymmetric top.
 Rotational symmetry number  1.
 Warning -- assumption of classical behavior for rotation
           may cause significant error
 Rotational temperatures (Kelvin)      0.10674     0.07390     0.07059
 Rotational constants (GHZ):           2.22415     1.53984     1.47087
 Zero-point vibrational energy     413201.2 (Joules/Mol)
                                   98.75746 (Kcal/Mol)
 Warning -- explicit consideration of  11 degrees of freedom as
           vibrations may cause significant error
 Vibrational temperatures:    100.54   114.72   256.77   305.14   336.67
          (Kelvin)            382.17   476.58   532.56   621.88   710.95
                              890.81   936.97  1047.12  1086.01  1199.12
                             1262.16  1315.80  1374.06  1387.04  1431.91
                             1461.25  1496.88  1576.33  1641.70  1657.58
                             1671.43  1748.15  1774.10  1788.02  1814.62
                             1844.08  1866.51  1959.81  2011.59  2034.20
                             2096.42  2134.66  2144.33  2147.83  2192.77
                             2602.08  4161.01  4324.44  4351.64  4393.99
                             4402.69  4424.94  4444.07  4465.48  4474.15
                             4517.54

 Zero-point correction=                           0.157380 (Hartree/Particle)
 Thermal correction to Energy=                    0.166187
 Thermal correction to Enthalpy=                  0.167131
 Thermal correction to Gibbs Free Energy=         0.123655
 Sum of electronic and zero-point Energies=           -423.008409
 Sum of electronic and thermal Energies=              -422.999602
 Sum of electronic and thermal Enthalpies=            -422.998658
 Sum of electronic and thermal Free Energies=         -423.042134

                     E (Thermal)             CV                S
                      KCal/Mol        Cal/Mol-Kelvin    Cal/Mol-Kelvin
 Total                  104.284             32.652             91.504
 Electronic               0.000              0.000              0.000
 Translational            0.889              2.981             40.409
 Rotational               0.889              2.981             28.547
 Vibrational            102.506             26.690             22.548
 Vibration     1          0.598              1.968              4.157
 Vibration     2          0.600              1.963              3.897
 Vibration     3          0.629              1.869              2.344
 Vibration     4          0.643              1.822              2.026
 Vibration     5          0.654              1.789              1.848
 Vibration     6          0.671              1.736              1.625
 Vibration     7          0.714              1.613              1.254
 Vibration     8          0.742              1.534              1.079
 Vibration     9          0.793              1.400              0.851
 Vibration    10          0.850              1.263              0.673
 Vibration    11          0.979              0.991              0.418

 Normal termination of Gaussian 09 at Mon Jan 27 20:28:28 2020.
