 Gaussian 09, Revision D.01,
 Gaussian 09:  ES64L-G09RevD.01 24-Apr-2013

 -----------------------------
 # b3lyp 6-31G(2df,p) opt Freq
 -----------------------------

 -----
 titel
 -----
 Symbolic Z-matrix:
 Charge =  0 Multiplicity = 1

 SCF Done:  E(RB3LYP) =  -423.176948540     A.U. after   14 cycles
 Optimization completed.
    -- Stationary point found.
 Normal termination of Gaussian 09 at Tue Jan 28 04:05:19 2020.

 ----------------------------------------------------------------------
 #N Geom=AllCheck Guess=TCheck SCRF=Check GenChk RB3LYP/6-31G(2df,p) Fr
 eq
 ----------------------------------------------------------------------

 Structure from the checkpoint file:  "/scratch/puck/g09_85f668f5-8626-42a7-8bf7-950bf55523bd/Gau-91848.chk"
 -----
 titel
 -----
 Charge =  0 Multiplicity = 1

                         Standard orientation:
 ---------------------------------------------------------------------
 Center     Atomic      Atomic             Coordinates (Angstroms)
 Number     Number       Type             X           Y           Z
 ---------------------------------------------------------------------
      1          6           0       -2.049811    1.215315   -0.609864
      2          6           0       -1.158807   -0.019311   -0.704828
      3          6           0       -1.653177   -1.249814    0.113507
      4          6           0       -0.661392   -0.873131    1.248870
      5          6           0        0.078153    0.034719    0.243155
      6          8           0        0.631456    1.300245    0.660160
      7          6           0        1.952203    1.012534    0.153629
      8          6           0        1.448921   -0.364680   -0.298485
      9          8           0        1.911906   -1.325198   -0.835424
     10          1           0       -1.537566    2.100810   -0.996430
     11          1           0       -2.966083    1.064897   -1.190094
     12          1           0       -2.336802    1.427917    0.425055
     13          1           0       -0.909724   -0.224143   -1.750574
     14          1           0       -2.714211   -1.261811    0.372593
     15          1           0       -1.393628   -2.197070   -0.363455
     16          1           0       -1.125115   -0.264631    2.029401
     17          1           0       -0.081220   -1.672009    1.715888
     18          1           0        2.261326    1.688438   -0.653423
     19          1           0        2.719579    1.003442    0.937251
 ---------------------------------------------------------------------

 SCF Done:  E(RB3LYP) =  -423.176948540     A.U. after    1 cycles

 The electronic state is 1-A.
 Alpha  occ. eigenvalues --  -19.15168 -19.14927 -10.27839 -10.24213 -10.24201
 Alpha  occ. eigenvalues --  -10.19699 -10.19153 -10.18811 -10.17975  -1.06902
 Alpha  occ. eigenvalues --   -1.04365  -0.85196  -0.73060  -0.71374  -0.67777
 Alpha  occ. eigenvalues --   -0.63600  -0.58297  -0.51310  -0.49537  -0.48678
 Alpha  occ. eigenvalues --   -0.47196  -0.45963  -0.43548  -0.41825  -0.40096
 Alpha  occ. eigenvalues --   -0.39117  -0.37680  -0.36101  -0.35186  -0.33520
 Alpha  occ. eigenvalues --   -0.32715  -0.31636  -0.25981  -0.24934
 Alpha virt. eigenvalues --   -0.02976   0.06021   0.08929   0.10783   0.11454
 Alpha virt. eigenvalues --    0.13155   0.14319   0.15192   0.16419   0.16931
 Alpha virt. eigenvalues --    0.18028   0.18685   0.20214   0.20961   0.22060

 Mulliken charges:
               1
     1  C   -0.390323
     2  C   -0.064959
     3  C   -0.223319
     4  C   -0.297308
     5  C    0.336921
     6  O   -0.327037
     7  C   -0.199795
     8  C    0.285150
     9  O   -0.286818
    10  H    0.126529
    11  H    0.116149
    12  H    0.121182
    13  H    0.081712
    14  H    0.102841
    15  H    0.118440
    16  H    0.123276
    17  H    0.112053
    18  H    0.132178
    19  H    0.133127
 Sum of Mulliken charges =   0.00000

 Dipole moment (field-independent basis, Debye):
    X=             -0.8991    Y=              0.7136    Z=              0.3800  Tot=              1.2091
 Quadrupole moment (field-independent basis, Debye-Ang):
   XX=            -51.7669   YY=            -56.8920   ZZ=            -53.1332
   XY=              4.6623   XZ=              2.0749   YZ=             -3.7132

  Exact polarizability:  87.170   2.848  74.949  -0.165  -0.394  66.280
 Approx polarizability: 114.519  -0.628 112.768  -3.628   6.009 100.884

                      1                      2                      3
                      A                      A                      A
 Frequencies --     81.0930                99.9694               139.1860
 Red. masses --      2.9378                 3.2102                 3.3119
 Frc consts  --      0.0114                 0.0189                 0.0378
 IR Inten    --      0.4924                 5.6367                 0.4401

                      4                      5                      6
                      A                      A                      A
 Frequencies --    212.2517               224.7895               256.2563
 Red. masses --      2.1102                 1.2086                 3.6570
 Frc consts  --      0.0560                 0.0360                 0.1415
 IR Inten    --      2.3301                 0.2642                 2.7100

                      7                      8                      9
                      A                      A                      A
 Frequencies --    355.8151               399.9258               497.5635
 Red. masses --      2.3439                 3.6819                 4.5533
 Frc consts  --      0.1748                 0.3470                 0.6642
 IR Inten    --      2.3125                 3.9390                 4.4516

                     10                     11                     12
                      A                      A                      A
 Frequencies --    539.7081               563.9409               713.4902
 Red. masses --      2.1755                 3.4112                 1.6091
 Frc consts  --      0.3734                 0.6392                 0.4826
 IR Inten    --      0.5111                 5.3283                 2.2145

                     13                     14                     15
                      A                      A                      A
 Frequencies --    734.9510               789.8494               867.3025
 Red. masses --      4.8264                 1.9784                 2.5143
 Frc consts  --      1.5360                 0.7272                 1.1143
 IR Inten    --      2.9980                 1.0028                 9.7822

                     16                     17                     18
                      A                      A                      A
 Frequencies --    882.3200               908.6618               939.7400
 Red. masses --      2.2905                 2.4679                 2.0503
 Frc consts  --      1.0506                 1.2006                 1.0668
 IR Inten    --      0.5340                 0.8089                 2.3943

                     19                     20                     21
                      A                      A                      A
 Frequencies --    953.6191              1005.3297              1019.4591
 Red. masses --      1.7552                 5.4298                 1.8062
 Frc consts  --      0.9404                 3.2333                 1.1060
 IR Inten    --      3.6856               113.6168                11.4765

                     22                     23                     24
                      A                      A                      A
 Frequencies --   1045.7638              1073.5168              1096.8819
 Red. masses --      2.7259                 1.9930                 2.7724
 Frc consts  --      1.7564                 1.3532                 1.9653
 IR Inten    --     58.0601                22.9842                 4.7714

                     25                     26                     27
                      A                      A                      A
 Frequencies --   1138.6476              1155.9267              1182.4371
 Red. masses --      1.1309                 3.2433                 1.8405
 Frc consts  --      0.8638                 2.5532                 1.5161
 IR Inten    --      0.1526                40.9602                 1.8302

                     28                     29                     30
                      A                      A                      A
 Frequencies --   1209.1386              1218.3109              1253.9750
 Red. masses --      2.3812                 1.3720                 1.4460
 Frc consts  --      2.0512                 1.1998                 1.3397
 IR Inten    --      5.9104                 2.5926                11.5543

                     31                     32                     33
                      A                      A                      A
 Frequencies --   1272.7725              1295.0293              1297.7351
 Red. masses --      1.4236                 1.6418                 1.5442
 Frc consts  --      1.3587                 1.6223                 1.5322
 IR Inten    --      0.2868                 3.3004                 2.8127

                     34                     35                     36
                      A                      A                      A
 Frequencies --   1350.6703              1410.2059              1471.9429
 Red. masses --      1.5247                 1.2317                 1.0858
 Frc consts  --      1.6389                 1.4432                 1.3860
 IR Inten    --      4.8459                 1.8570                 1.4748

                     37                     38                     39
                      A                      A                      A
 Frequencies --   1482.6380              1490.0153              1493.9447
 Red. masses --      1.0937                 1.1045                 1.0552
 Frc consts  --      1.4165                 1.4448                 1.3876
 IR Inten    --      1.6361                 6.5168                 4.6239

                     40                     41                     42
                      A                      A                      A
 Frequencies --   1495.8557              1915.0068              3020.9498
 Red. masses --      1.0581                12.8442                 1.0549
 Frc consts  --      1.3949                27.7522                 5.6720
 IR Inten    --      3.1467               238.5255                35.1321

                     43                     44                     45
                      A                      A                      A
 Frequencies --   3036.3226              3053.4915              3065.8266
 Red. masses --      1.0351                 1.0843                 1.0573
 Frc consts  --      5.6228                 5.9563                 5.8550
 IR Inten    --     21.2275                16.8102                20.6577

                     46                     47                     48
                      A                      A                      A
 Frequencies --   3069.8342              3071.8078              3104.4558
 Red. masses --      1.1080                 1.0615                 1.1014
 Frc consts  --      6.1522                 5.9017                 6.2544
 IR Inten    --     20.1213                25.3069                30.9310

                     49                     50                     51
                      A                      A                      A
 Frequencies --   3114.0139              3115.2602              3131.3897
 Red. masses --      1.1023                 1.1077                 1.1076
 Frc consts  --      6.2976                 6.3336                 6.3988
 IR Inten    --     10.9387                14.6877                26.6663

 - Thermochemistry -
 -------------------
 Temperature   298.150 Kelvin.  Pressure   1.00000 Atm.
 Atom     1 has atomic number  6 and mass  12.00000

 Molecular mass:   126.06808 amu.
 Principal axes and moments of inertia in atomic units:
                           1         2         3
     Eigenvalues --   711.752301229.722661488.56140
           X            0.99948   0.02809   0.01581
           Y           -0.02682   0.99677  -0.07571
           Z           -0.01789   0.07525   0.99700
 This molecule is an asymmetric top.
 Rotational symmetry number  1.
 Warning -- assumption of classical behavior for rotation
           may cause significant error
 Rotational temperatures (Kelvin)      0.12169     0.07043     0.05819
 Rotational constants (GHZ):           2.53563     1.46760     1.21241
 Zero-point vibrational energy     414619.6 (Joules/Mol)
                                   99.09647 (Kcal/Mol)
 Warning -- explicit consideration of  11 degrees of freedom as
           vibrations may cause significant error
 Vibrational temperatures:    116.67   143.83   200.26   305.38   323.42
          (Kelvin)            368.70   511.94   575.40   715.88   776.52
                              811.38  1026.55  1057.43  1136.42  1247.85
                             1269.46  1307.36  1352.07  1372.04  1446.44
                             1466.77  1504.62  1544.55  1578.17  1638.26
                             1663.12  1701.26  1739.68  1752.88  1804.19
                             1831.23  1863.26  1867.15  1943.31  2028.97
                             2117.79  2133.18  2143.80  2149.45  2152.20
                             2755.26  4346.47  4368.59  4393.29  4411.04
                             4416.80  4419.64  4466.61  4480.37  4482.16
                             4505.37

 Zero-point correction=                           0.157920 (Hartree/Particle)
 Thermal correction to Energy=                    0.166618
 Thermal correction to Enthalpy=                  0.167562
 Thermal correction to Gibbs Free Energy=         0.124341
 Sum of electronic and zero-point Energies=           -423.019028
 Sum of electronic and thermal Energies=              -423.010331
 Sum of electronic and thermal Enthalpies=            -423.009387
 Sum of electronic and thermal Free Energies=         -423.052607

                     E (Thermal)             CV                S
                      KCal/Mol        Cal/Mol-Kelvin    Cal/Mol-Kelvin
 Total                  104.554             32.406             90.966
 Electronic               0.000              0.000              0.000
 Translational            0.889              2.981             40.409
 Rotational               0.889              2.981             28.656
 Vibrational            102.777             26.444             21.901
 Vibration     1          0.600              1.962              3.864
 Vibration     2          0.604              1.949              3.455
 Vibration     3          0.615              1.914              2.815
 Vibration     4          0.643              1.822              2.024
 Vibration     5          0.649              1.803              1.920
 Vibration     6          0.666              1.752              1.687
 Vibration     7          0.731              1.563              1.140
 Vibration     8          0.766              1.470              0.963
 Vibration     9          0.853              1.255              0.664
 Vibration    10          0.895              1.162              0.566
 Vibration    11          0.920              1.109              0.516

 Optimization completed.
    -- Stationary point found.
 Normal termination of Gaussian 09 at Tue Jan 28 04:45:26 2020.
