 Gaussian 09, Revision D.01,
 Gaussian 09:  ES64L-G09RevD.01 24-Apr-2013

 -----------------------------
 # b3lyp 6-31G(2df,p) opt Freq
 -----------------------------

 -----
 titel
 -----
 Symbolic Z-matrix:
 Charge =  0 Multiplicity = 1

 SCF Done:  E(RB3LYP) =  -423.157728941     A.U. after   13 cycles
 Optimization completed.
    -- Stationary point found.
 Normal termination of Gaussian 09 at Tue Jan 28 08:14:11 2020.

 ----------------------------------------------------------------------
 #N Geom=AllCheck Guess=TCheck SCRF=Check GenChk RB3LYP/6-31G(2df,p) Fr
 eq
 ----------------------------------------------------------------------

 Structure from the checkpoint file:  "/scratch/puck/g09_ef559f28-ff13-4f8a-98c7-fbe6b88b85a6/Gau-43551.chk"
 -----
 titel
 -----
 Charge =  0 Multiplicity = 1

                         Standard orientation:
 ---------------------------------------------------------------------
 Center     Atomic      Atomic             Coordinates (Angstroms)
 Number     Number       Type             X           Y           Z
 ---------------------------------------------------------------------
      1          6           0       -0.733077    1.613164    1.026239
      2          6           0       -0.698051    1.065230   -0.396088
      3          8           0       -1.708562    0.082647   -0.680261
      4          6           0       -1.686484   -1.124203    0.073040
      5          6           0       -0.303234   -1.631956    0.401608
      6          6           0        0.722865   -0.941993   -0.065109
      7          6           0        2.150037   -0.585311    0.259989
      8          8           0        1.877832    0.781335   -0.175283
      9          6           0        0.616463    0.370901   -0.779076
     10          1           0        0.003610    2.414616    1.128498
     11          1           0       -1.725782    2.016788    1.244441
     12          1           0       -0.495500    0.847178    1.769183
     13          1           0       -0.931097    1.874383   -1.095144
     14          1           0       -2.234008   -0.995427    1.022844
     15          1           0       -2.259915   -1.845067   -0.522607
     16          1           0       -0.213627   -2.456940    1.102636
     17          1           0        2.457046   -0.639198    1.310682
     18          1           0        2.920247   -1.054364   -0.367920
     19          1           0        0.713747    0.331176   -1.871884
 ---------------------------------------------------------------------

 SCF Done:  E(RB3LYP) =  -423.157728941     A.U. after    1 cycles

 The electronic state is 1-A.
 Alpha  occ. eigenvalues --  -19.14117 -19.13851 -10.23973 -10.23649 -10.23387
 Alpha  occ. eigenvalues --  -10.22942 -10.19162 -10.18889 -10.17256  -1.04267
 Alpha  occ. eigenvalues --   -1.02596  -0.79527  -0.77526  -0.70746  -0.69188
 Alpha  occ. eigenvalues --   -0.62538  -0.59811  -0.51480  -0.50936  -0.49059
 Alpha  occ. eigenvalues --   -0.47335  -0.45516  -0.43728  -0.41769  -0.41108
 Alpha  occ. eigenvalues --   -0.39847  -0.36856  -0.36507  -0.35518  -0.31965
 Alpha  occ. eigenvalues --   -0.29377  -0.27510  -0.25256  -0.23953
 Alpha virt. eigenvalues --    0.00957   0.07417   0.09678   0.11424   0.12422
 Alpha virt. eigenvalues --    0.13589   0.14165   0.15362   0.16580   0.17156
 Alpha virt. eigenvalues --    0.17916   0.18281   0.18469   0.19269   0.21442

 Mulliken charges:
               1
     1  C   -0.408667
     2  C    0.072584
     3  O   -0.277905
     4  C   -0.097969
     5  C   -0.245795
     6  C    0.240025
     7  C   -0.158139
     8  O   -0.307225
     9  C    0.082169
    10  H    0.133288
    11  H    0.119262
    12  H    0.119967
    13  H    0.086562
    14  H    0.104670
    15  H    0.122592
    16  H    0.098012
    17  H    0.119153
    18  H    0.110253
    19  H    0.087163
 Sum of Mulliken charges =   0.00000

 Dipole moment (field-independent basis, Debye):
    X=             -0.0654    Y=             -1.3474    Z=              0.9759  Tot=              1.6650
 Quadrupole moment (field-independent basis, Debye-Ang):
   XX=            -55.2765   YY=            -51.2752   ZZ=            -52.4455
   XY=             -2.1084   XZ=             -1.2289   YZ=             -1.4876

  Exact polarizability:  88.649   3.425  76.835  -1.883  -5.355  65.395
 Approx polarizability: 128.933  12.375 113.051  -4.099 -11.824 100.431

                      1                      2                      3
                      A                      A                      A
 Frequencies --    137.9276               175.1439               207.3491
 Red. masses --      2.8647                 3.0658                 1.1572
 Frc consts  --      0.0321                 0.0554                 0.0293
 IR Inten    --      1.5817                 3.6433                 0.1008

                      4                      5                      6
                      A                      A                      A
 Frequencies --    219.6402               270.6646               346.6961
 Red. masses --      2.4070                 2.2461                 2.8448
 Frc consts  --      0.0684                 0.0969                 0.2015
 IR Inten    --      1.0531                 7.1280                 0.4508

                      7                      8                      9
                      A                      A                      A
 Frequencies --    384.0416               436.6983               514.8319
 Red. masses --      4.1503                 4.8705                 3.9726
 Frc consts  --      0.3606                 0.5473                 0.6204
 IR Inten    --     10.2880                 2.4406                 3.6534

                     10                     11                     12
                      A                      A                      A
 Frequencies --    577.8275               711.6618               772.3336
 Red. masses --      4.0520                 2.6434                 2.4569
 Frc consts  --      0.7971                 0.7888                 0.8635
 IR Inten    --      0.6513                 4.3939                 7.3353

                     13                     14                     15
                      A                      A                      A
 Frequencies --    802.6077               816.4356               882.0223
 Red. masses --      4.4163                 1.8523                 2.3718
 Frc consts  --      1.6762                 0.7275                 1.0872
 IR Inten    --      6.1779                12.5204                21.5036

                     16                     17                     18
                      A                      A                      A
 Frequencies --    898.5307               940.6581               974.1536
 Red. masses --      2.5221                 2.7414                 4.6765
 Frc consts  --      1.1997                 1.4292                 2.6147
 IR Inten    --      1.9297                21.8677                59.6142

                     19                     20                     21
                      A                      A                      A
 Frequencies --    996.1416              1024.5566              1035.6367
 Red. masses --      2.0425                 2.0129                 1.8187
 Frc consts  --      1.1942                 1.2449                 1.1493
 IR Inten    --     25.1299                13.8351                15.6701

                     22                     23                     24
                      A                      A                      A
 Frequencies --   1054.6596              1097.8501              1108.7836
 Red. masses --      2.0872                 1.9138                 3.3875
 Frc consts  --      1.3679                 1.3590                 2.4537
 IR Inten    --      8.8309                 7.3536                39.9943

                     25                     26                     27
                      A                      A                      A
 Frequencies --   1139.5297              1153.2875              1168.3510
 Red. masses --      1.1563                 3.3355                 2.2781
 Frc consts  --      0.8847                 2.6139                 1.8322
 IR Inten    --      1.0420                42.3515                 6.9074

                     28                     29                     30
                      A                      A                      A
 Frequencies --   1248.9737              1260.9295              1304.5889
 Red. masses --      1.4902                 1.1298                 1.4289
 Frc consts  --      1.3696                 1.0584                 1.4329
 IR Inten    --      1.4603                 4.6545                 2.3698

                     31                     32                     33
                      A                      A                      A
 Frequencies --   1329.9613              1339.4725              1368.6546
 Red. masses --      1.5874                 1.3475                 1.4068
 Frc consts  --      1.6543                 1.4245                 1.5526
 IR Inten    --      4.7054                10.4420                 4.2376

                     34                     35                     36
                      A                      A                      A
 Frequencies --   1387.0388              1396.7873              1410.2226
 Red. masses --      1.3234                 1.3278                 1.3807
 Frc consts  --      1.5001                 1.5263                 1.6178
 IR Inten    --      2.1136                 6.0789                17.9962

                     37                     38                     39
                      A                      A                      A
 Frequencies --   1482.1088              1487.1821              1503.2550
 Red. masses --      1.0530                 1.0701                 1.0598
 Frc consts  --      1.3628                 1.3944                 1.4111
 IR Inten    --      3.5279                 1.9087                 0.4181

                     40                     41                     42
                      A                      A                      A
 Frequencies --   1510.1738              1794.1877              2956.1483
 Red. masses --      1.1080                 8.8206                 1.0723
 Frc consts  --      1.4889                16.7296                 5.5208
 IR Inten    --      0.7153                 3.2911                53.8544

                     43                     44                     45
                      A                      A                      A
 Frequencies --   3002.3847              3015.0643              3041.8089
 Red. masses --      1.0620                 1.0827                 1.0876
 Frc consts  --      5.6405                 5.7991                 5.9292
 IR Inten    --     70.0258                48.5629                33.8751

                     46                     47                     48
                      A                      A                      A
 Frequencies --   3048.1354              3059.9019              3061.1582
 Red. masses --      1.0350                 1.0868                 1.1029
 Frc consts  --      5.6658                 5.9953                 6.0893
 IR Inten    --     12.9724                40.1085                26.8596

                     49                     50                     51
                      A                      A                      A
 Frequencies --   3123.0390              3125.3749              3169.8276
 Red. masses --      1.1022                 1.1009                 1.0921
 Frc consts  --      6.3338                 6.3360                 6.4651
 IR Inten    --     22.5910                15.8507                12.2336

 - Thermochemistry -
 -------------------
 Temperature   298.150 Kelvin.  Pressure   1.00000 Atm.
 Atom     1 has atomic number  6 and mass  12.00000

 Molecular mass:   126.06808 amu.
 Principal axes and moments of inertia in atomic units:
                           1         2         3
     Eigenvalues --   686.117721050.390411396.74746
           X            0.99946  -0.03024  -0.01300
           Y            0.03036   0.99950   0.00922
           Z            0.01272  -0.00961   0.99987
 This molecule is an asymmetric top.
 Rotational symmetry number  1.
 Warning -- assumption of classical behavior for rotation
           may cause significant error
 Rotational temperatures (Kelvin)      0.12624     0.08246     0.06201
 Rotational constants (GHZ):           2.63037     1.71816     1.29210
 Zero-point vibrational energy     420334.3 (Joules/Mol)
                                  100.46230 (Kcal/Mol)
 Warning -- explicit consideration of  10 degrees of freedom as
           vibrations may cause significant error
 Vibrational temperatures:    198.45   251.99   298.33   316.01   389.43
          (Kelvin)            498.82   552.55   628.31   740.73   831.36
                             1023.92  1111.21  1154.77  1174.67  1269.03
                             1292.78  1353.40  1401.59  1433.22  1474.11
                             1490.05  1517.42  1579.56  1595.29  1639.53
                             1659.32  1680.99  1796.99  1814.19  1877.01
                             1913.52  1927.20  1969.19  1995.64  2009.66
                             2028.99  2132.42  2139.72  2162.85  2172.80
                             2581.43  4253.23  4319.76  4338.00  4376.48
                             4385.58  4402.51  4404.32  4493.35  4496.71
                             4560.67

 Zero-point correction=                           0.160097 (Hartree/Particle)
 Thermal correction to Energy=                    0.167982
 Thermal correction to Enthalpy=                  0.168926
 Thermal correction to Gibbs Free Energy=         0.128014
 Sum of electronic and zero-point Energies=           -422.997632
 Sum of electronic and thermal Energies=              -422.989747
 Sum of electronic and thermal Enthalpies=            -422.988803
 Sum of electronic and thermal Free Energies=         -423.029715

                     E (Thermal)             CV                S
                      KCal/Mol        Cal/Mol-Kelvin    Cal/Mol-Kelvin
 Total                  105.410             30.728             86.106
 Electronic               0.000              0.000              0.000
 Translational            0.889              2.981             40.409
 Rotational               0.889              2.981             28.400
 Vibrational            103.633             24.766             17.297
 Vibration     1          0.614              1.915              2.832
 Vibration     2          0.627              1.873              2.380
 Vibration     3          0.641              1.829              2.067
 Vibration     4          0.647              1.811              1.962
 Vibration     5          0.674              1.727              1.592
 Vibration     6          0.725              1.582              1.181
 Vibration     7          0.753              1.504              1.023
 Vibration     8          0.797              1.390              0.837
 Vibration     9          0.870              1.217              0.622
 Vibration    10          0.934              1.079              0.489

 Optimization completed.
    -- Stationary point found.
 Normal termination of Gaussian 09 at Tue Jan 28 09:02:11 2020.
