 Gaussian 09, Revision D.01,
 Gaussian 09:  ES64L-G09RevD.01 24-Apr-2013

 -----------------------------
 # b3lyp 6-31G(2df,p) opt Freq
 -----------------------------

 -----
 titel
 -----
 Symbolic Z-matrix:
 Charge =  0 Multiplicity = 1

 SCF Done:  E(RB3LYP) =  -423.155012963     A.U. after   13 cycles
 Optimization completed.
    -- Stationary point found.
 Normal termination of Gaussian 09 at Tue Jan 28 08:10:02 2020.

 ----------------------------------------------------------------------
 #N Geom=AllCheck Guess=TCheck SCRF=Check GenChk RB3LYP/6-31G(2df,p) Fr
 eq
 ----------------------------------------------------------------------

 Structure from the checkpoint file:  "/scratch/puck/g09_61981d3b-bc0e-41ef-8399-6ae9169e6b5c/Gau-126897.chk"
 -----
 titel
 -----
 Charge =  0 Multiplicity = 1

                         Standard orientation:
 ---------------------------------------------------------------------
 Center     Atomic      Atomic             Coordinates (Angstroms)
 Number     Number       Type             X           Y           Z
 ---------------------------------------------------------------------
      1          8           0        0.182771    1.914213   -0.276450
      2          6           0       -0.416738    0.808269    0.365751
      3          6           0       -1.953733    0.896532    0.270713
      4          6           0       -2.384452   -0.514914   -0.191550
      5          8           0       -1.239009   -1.355381   -0.050398
      6          6           0       -0.110433   -0.545913   -0.313597
      7          6           0        1.133838   -1.270433    0.211584
      8          6           0        2.339030   -0.461487    0.065272
      9          6           0        3.312692    0.234815   -0.058895
     10          1           0        1.138460    1.785826   -0.228899
     11          1           0       -0.104012    0.754565    1.419938
     12          1           0       -2.401245    1.167745    1.228725
     13          1           0       -2.221024    1.665497   -0.457500
     14          1           0       -3.186902   -0.950361    0.408801
     15          1           0       -2.711324   -0.500474   -1.241748
     16          1           0        0.000079   -0.355913   -1.395106
     17          1           0        0.969960   -1.514995    1.268440
     18          1           0        1.251155   -2.222632   -0.318005
     19          1           0        4.193541    0.818871   -0.165534
 ---------------------------------------------------------------------

 SCF Done:  E(RB3LYP) =  -423.155012963     A.U. after    1 cycles

 The electronic state is 1-A.
 Alpha  occ. eigenvalues --  -19.14169 -19.13136 -10.23417 -10.23158 -10.22853
 Alpha  occ. eigenvalues --  -10.21415 -10.19710 -10.18511 -10.18199  -1.04402
 Alpha  occ. eigenvalues --   -1.01329  -0.80868  -0.76746  -0.74059  -0.68373
 Alpha  occ. eigenvalues --   -0.59773  -0.58736  -0.53911  -0.52767  -0.49334
 Alpha  occ. eigenvalues --   -0.47832  -0.45123  -0.44967  -0.42381  -0.40087
 Alpha  occ. eigenvalues --   -0.39121  -0.37624  -0.34544  -0.33825  -0.31574
 Alpha  occ. eigenvalues --   -0.28108  -0.27704  -0.26569  -0.25194
 Alpha virt. eigenvalues --    0.03935   0.04579   0.08685   0.09208   0.10945
 Alpha virt. eigenvalues --    0.11655   0.12591   0.14209   0.14900   0.16151
 Alpha virt. eigenvalues --    0.16857   0.18569   0.19803   0.21426   0.23087

 Mulliken charges:
               1
     1  O   -0.438383
     2  C    0.116705
     3  C   -0.256080
     4  C   -0.083653
     5  O   -0.260070
     6  C    0.106882
     7  C   -0.384499
     8  C    0.289886
     9  C   -0.451624
    10  H    0.284328
    11  H    0.069182
    12  H    0.110538
    13  H    0.122643
    14  H    0.109745
    15  H    0.097216
    16  H    0.078655
    17  H    0.140650
    18  H    0.143443
    19  H    0.204435
 Sum of Mulliken charges =   0.00000

 Dipole moment (field-independent basis, Debye):
    X=              0.3800    Y=             -0.1317    Z=              0.4033  Tot=              0.5696
 Quadrupole moment (field-independent basis, Debye-Ang):
   XX=            -46.0520   YY=            -57.8627   ZZ=            -53.0571
   XY=              1.3630   XZ=             -0.6292   YZ=              0.6368

  Exact polarizability:  99.974   7.723  70.851  -1.801  -1.390  59.124
 Approx polarizability: 132.151  19.828 109.289  -4.444  -5.677  91.216

                      1                      2                      3
                      A                      A                      A
 Frequencies --     32.4584                71.0013               118.5987
 Red. masses --      2.2080                 3.2480                 4.2420
 Frc consts  --      0.0014                 0.0096                 0.0352
 IR Inten    --      0.3068                 0.1586                 1.4711

                      4                      5                      6
                      A                      A                      A
 Frequencies --    179.1923               260.0522               344.6205
 Red. masses --      3.2763                 4.8584                 2.6295
 Frc consts  --      0.0620                 0.1936                 0.1840
 IR Inten    --      2.4188                 1.0480                 0.5854

                      7                      8                      9
                      A                      A                      A
 Frequencies --    356.9709               392.4177               419.3215
 Red. masses --      3.0615                 2.9120                 1.2484
 Frc consts  --      0.2298                 0.2642                 0.1293
 IR Inten    --      2.3080                23.9403                82.3573

                     10                     11                     12
                      A                      A                      A
 Frequencies --    453.5837               535.3346               622.1974
 Red. masses --      5.0703                 3.9702                 4.2999
 Frc consts  --      0.6146                 0.6704                 0.9808
 IR Inten    --      3.6602                 4.5232                 1.7186

                     13                     14                     15
                      A                      A                      A
 Frequencies --    629.6398               652.8392               684.2425
 Red. masses --      1.2214                 1.2173                 4.0203
 Frc consts  --      0.2853                 0.3057                 1.1090
 IR Inten    --     50.1507                49.4334                 2.1855

                     16                     17                     18
                      A                      A                      A
 Frequencies --    800.5208               853.0363               937.2796
 Red. masses --      1.6980                 1.6198                 2.9912
 Frc consts  --      0.6411                 0.6944                 1.5482
 IR Inten    --      6.9548                 1.0586                 7.1124

                     19                     20                     21
                      A                      A                      A
 Frequencies --    957.7002               991.0684              1014.5047
 Red. masses --      3.1543                 1.8942                 3.4721
 Frc consts  --      1.7046                 1.0962                 2.1055
 IR Inten    --      3.5558                 4.3188                20.5604

                     22                     23                     24
                      A                      A                      A
 Frequencies --   1032.4407              1070.7037              1116.4910
 Red. masses --      2.9553                 2.7559                 3.1368
 Frc consts  --      1.8560                 1.8614                 2.3038
 IR Inten    --      8.8749                46.0584               102.9060

                     25                     26                     27
                      A                      A                      A
 Frequencies --   1124.4689              1137.9933              1195.8149
 Red. masses --      3.0183                 2.8820                 1.3410
 Frc consts  --      2.2485                 2.1990                 1.1298
 IR Inten    --     12.9063                32.7229                 7.0705

                     28                     29                     30
                      A                      A                      A
 Frequencies --   1230.5598              1254.9367              1286.6600
 Red. masses --      1.3009                 1.1636                 1.1198
 Frc consts  --      1.1607                 1.0797                 1.0922
 IR Inten    --      5.2772                12.2202                41.7969

                     31                     32                     33
                      A                      A                      A
 Frequencies --   1291.6218              1302.4111              1314.2135
 Red. masses --      1.3572                 1.2412                 1.3418
 Frc consts  --      1.3340                 1.2405                 1.3654
 IR Inten    --      0.3885                 6.4732                 3.1326

                     34                     35                     36
                      A                      A                      A
 Frequencies --   1372.1909              1382.6488              1404.9042
 Red. masses --      1.3420                 1.3396                 1.4613
 Frc consts  --      1.4888                 1.5089                 1.6993
 IR Inten    --     28.3141                 2.5425                17.0184

                     37                     38                     39
                      A                      A                      A
 Frequencies --   1435.6146              1472.5092              1491.5557
 Red. masses --      1.4685                 1.0857                 1.0904
 Frc consts  --      1.7832                 1.3870                 1.4293
 IR Inten    --     13.9040                 5.4597                 3.5883

                     40                     41                     42
                      A                      A                      A
 Frequencies --   1523.4814              2229.9914              2958.5654
 Red. masses --      1.0970                 5.9492                 1.0809
 Frc consts  --      1.5001                17.4306                 5.5744
 IR Inten    --      0.4722                 2.7630                17.4077

                     43                     44                     45
                      A                      A                      A
 Frequencies --   2980.5772              2994.9445              3033.3860
 Red. masses --      1.0852                 1.0713                 1.0587
 Frc consts  --      5.6801                 5.6614                 5.7396
 IR Inten    --     59.0433                74.4049                12.2993

                     46                     47                     48
                      A                      A                      A
 Frequencies --   3072.6283              3076.0960              3092.9946
 Red. masses --      1.1015                 1.0614                 1.0925
 Frc consts  --      6.1273                 5.9171                 6.1580
 IR Inten    --      9.6762                16.8264                29.9889

                     49                     50                     51
                      A                      A                      A
 Frequencies --   3126.4810              3501.9095              3771.4766
 Red. masses --      1.1063                 1.1614                 1.0658
 Frc consts  --      6.3713                 8.3915                 8.9319
 IR Inten    --     24.5223                74.1395                64.9041

 - Thermochemistry -
 -------------------
 Temperature   298.150 Kelvin.  Pressure   1.00000 Atm.
 Atom     1 has atomic number  8 and mass  15.99491

 Molecular mass:   126.06808 amu.
 Principal axes and moments of inertia in atomic units:
                           1         2         3
     Eigenvalues --   597.358771497.299541985.77894
           X            0.99999  -0.00387  -0.00040
           Y            0.00388   0.99998   0.00519
           Z            0.00038  -0.00519   0.99999
 This molecule is an asymmetric top.
 Rotational symmetry number  1.
 Warning -- assumption of classical behavior for rotation
           may cause significant error
 Rotational temperatures (Kelvin)      0.14499     0.05785     0.04362
 Rotational constants (GHZ):           3.02120     1.20533     0.90883
 Zero-point vibrational energy     416221.8 (Joules/Mol)
                                   99.47940 (Kcal/Mol)
 Warning -- explicit consideration of  11 degrees of freedom as
           vibrations may cause significant error
 Vibrational temperatures:     46.70   102.15   170.64   257.82   374.16
          (Kelvin)            495.83   513.60   564.60   603.31   652.61
                              770.23   895.20   905.91   939.29   984.47
                             1151.77  1227.33  1348.53  1377.92  1425.92
                             1459.64  1485.45  1540.50  1606.38  1617.86
                             1637.32  1720.51  1770.50  1805.57  1851.21
                             1858.35  1873.88  1890.86  1974.27  1989.32
                             2021.34  2065.53  2118.61  2146.01  2191.95
                             3208.46  4256.71  4288.38  4309.05  4364.36
                             4420.82  4425.81  4450.12  4498.30  5038.46
                             5426.31

 Zero-point correction=                           0.158531 (Hartree/Particle)
 Thermal correction to Energy=                    0.167696
 Thermal correction to Enthalpy=                  0.168640
 Thermal correction to Gibbs Free Energy=         0.123591
 Sum of electronic and zero-point Energies=           -422.996482
 Sum of electronic and thermal Energies=              -422.987317
 Sum of electronic and thermal Enthalpies=            -422.986373
 Sum of electronic and thermal Free Energies=         -423.031422

                     E (Thermal)             CV                S
                      KCal/Mol        Cal/Mol-Kelvin    Cal/Mol-Kelvin
 Total                  105.231             33.871             94.814
 Electronic               0.000              0.000              0.000
 Translational            0.889              2.981             40.409
 Rotational               0.889              2.981             28.964
 Vibrational            103.453             27.910             25.441
 Vibration     1          0.594              1.983              5.673
 Vibration     2          0.598              1.968              4.125
 Vibration     3          0.609              1.934              3.123
 Vibration     4          0.629              1.868              2.337
 Vibration     5          0.668              1.746              1.661
 Vibration     6          0.723              1.586              1.191
 Vibration     7          0.732              1.561              1.135
 Vibration     8          0.760              1.486              0.991
 Vibration     9          0.782              1.428              0.894
 Vibration    10          0.812              1.353              0.785
 Vibration    11          0.890              1.172              0.575

 Normal termination of Gaussian 09 at Tue Jan 28 08:53:15 2020.
