 Gaussian 09, Revision D.01,
 Gaussian 09:  ES64L-G09RevD.01 24-Apr-2013

 -----------------------------
 # b3lyp 6-31G(2df,p) opt Freq
 -----------------------------

 -----
 titel
 -----
 Symbolic Z-matrix:
 Charge =  0 Multiplicity = 1

 SCF Done:  E(RB3LYP) =  -423.190683817     A.U. after   14 cycles
 Optimization completed.
    -- Stationary point found.
 Normal termination of Gaussian 09 at Mon Jan 27 11:16:43 2020.

 ----------------------------------------------------------------------
 #N Geom=AllCheck Guess=TCheck SCRF=Check GenChk RB3LYP/6-31G(2df,p) Fr
 eq
 ----------------------------------------------------------------------

 Structure from the checkpoint file:  "/scratch/puck/g09_2a9d0703-258d-4bd7-8ea4-da6f0a5cd166/Gau-69970.chk"
 -----
 titel
 -----
 Charge =  0 Multiplicity = 1

                         Standard orientation:
 ---------------------------------------------------------------------
 Center     Atomic      Atomic             Coordinates (Angstroms)
 Number     Number       Type             X           Y           Z
 ---------------------------------------------------------------------
      1          6           0       -1.712808    0.543536   -0.607819
      2          6           0       -1.550433   -0.998555   -0.526392
      3          6           0       -0.342017   -1.141307    0.420639
      4          8           0       -0.479148   -0.045245    1.315449
      5          6           0       -0.718484    1.078408    0.462299
      6          6           0        0.621134    1.546934   -0.131090
      7          6           0        1.415079    0.364088   -0.669589
      8          8           0        2.069245   -0.460349    0.305543
      9          6           0        0.948631   -1.002638   -0.378109
     10          1           0       -1.483500    0.933111   -1.603000
     11          1           0       -2.734797    0.844692   -0.368515
     12          1           0       -2.432190   -1.467018   -0.083380
     13          1           0       -1.380234   -1.461306   -1.502585
     14          1           0       -0.342353   -2.057645    1.016937
     15          1           0       -1.158564    1.863616    1.081595
     16          1           0        0.443891    2.272272   -0.933506
     17          1           0        1.216155    2.050347    0.638471
     18          1           0        2.014341    0.539695   -1.562439
     19          1           0        1.169860   -1.815804   -1.071149
 ---------------------------------------------------------------------

 SCF Done:  E(RB3LYP) =  -423.190683817     A.U. after    1 cycles

 The electronic state is 1-A.
 Alpha  occ. eigenvalues --  -19.14500 -19.13556 -10.23590 -10.23225 -10.23203
 Alpha  occ. eigenvalues --  -10.23198 -10.18783 -10.18683 -10.18559  -1.07330
 Alpha  occ. eigenvalues --   -1.03361  -0.78876  -0.77556  -0.72222  -0.64495
 Alpha  occ. eigenvalues --   -0.62132  -0.59090  -0.53195  -0.52939  -0.48755
 Alpha  occ. eigenvalues --   -0.47495  -0.45765  -0.42847  -0.41265  -0.40340
 Alpha  occ. eigenvalues --   -0.38441  -0.37021  -0.35241  -0.34865  -0.33819
 Alpha  occ. eigenvalues --   -0.31098  -0.28780  -0.26148  -0.25072
 Alpha virt. eigenvalues --    0.07719   0.09017   0.09987   0.11595   0.12745
 Alpha virt. eigenvalues --    0.13579   0.14337   0.15963   0.16085   0.16302
 Alpha virt. eigenvalues --    0.18197   0.18530   0.19075   0.21256   0.21941

 Mulliken charges:
               1
     1  C   -0.232635
     2  C   -0.225224
     3  C    0.032404
     4  O   -0.249848
     5  C    0.090845
     6  C   -0.245378
     7  C    0.044175
     8  O   -0.248517
     9  C    0.050978
    10  H    0.101701
    11  H    0.109912
    12  H    0.109232
    13  H    0.101169
    14  H    0.085118
    15  H    0.078704
    16  H    0.097141
    17  H    0.120498
    18  H    0.091287
    19  H    0.088437
 Sum of Mulliken charges =   0.00000

 Dipole moment (field-independent basis, Debye):
    X=             -1.6201    Y=              0.3995    Z=             -2.3502  Tot=              2.8823
 Quadrupole moment (field-independent basis, Debye-Ang):
   XX=            -56.0920   YY=            -48.5642   ZZ=            -54.9143
   XY=              1.1562   XZ=             -2.1205   YZ=              0.5153

  Exact polarizability:  74.643   1.694  78.895  -1.245  -0.023  63.915
 Approx polarizability: 103.146   1.479 114.275   1.384  -2.000 102.768

                      1                      2                      3
                      A                      A                      A
 Frequencies --    117.2978               219.4318               300.7894
 Red. masses --      2.0069                 3.0568                 3.3949
 Frc consts  --      0.0163                 0.0867                 0.1810
 IR Inten    --      0.1598                 0.7098                 1.4641

                      4                      5                      6
                      A                      A                      A
 Frequencies --    382.2751               413.4977               454.6428
 Red. masses --      3.6083                 2.3727                 5.3970
 Frc consts  --      0.3107                 0.2390                 0.6573
 IR Inten    --      0.5203                 2.0957                 9.2689

                      7                      8                      9
                      A                      A                      A
 Frequencies --    569.9674               639.0084               744.0177
 Red. masses --      4.3088                 4.0137                 2.5743
 Frc consts  --      0.8247                 0.9656                 0.8396
 IR Inten    --     10.3813                 5.0690                 2.9201

                     10                     11                     12
                      A                      A                      A
 Frequencies --    783.3426               802.0842               822.7613
 Red. masses --      3.5727                 3.1822                 1.9712
 Frc consts  --      1.2917                 1.2062                 0.7862
 IR Inten    --      5.9328                10.8293                 2.4224

                     13                     14                     15
                      A                      A                      A
 Frequencies --    836.5611               877.6632               893.5602
 Red. masses --      3.2152                 3.4018                 2.6974
 Frc consts  --      1.3257                 1.5439                 1.2689
 IR Inten    --      2.9864                25.3750                14.7228

                     16                     17                     18
                      A                      A                      A
 Frequencies --    915.3600               959.9781               983.2283
 Red. masses --      2.3364                 2.5555                 2.6909
 Frc consts  --      1.1534                 1.3876                 1.5327
 IR Inten    --      1.5265                11.1972                 2.7707

                     19                     20                     21
                      A                      A                      A
 Frequencies --    998.0230              1019.0271              1036.9178
 Red. masses --      2.3881                 2.2538                 1.7562
 Frc consts  --      1.4015                 1.3789                 1.1125
 IR Inten    --      5.2339                 9.7288                25.3590

                     22                     23                     24
                      A                      A                      A
 Frequencies --   1063.6749              1102.6495              1105.6068
 Red. masses --      2.1381                 2.0788                 2.8582
 Frc consts  --      1.4253                 1.4891                 2.0585
 IR Inten    --      1.2113                16.0018                31.4022

                     25                     26                     27
                      A                      A                      A
 Frequencies --   1127.2975              1185.1762              1223.7047
 Red. masses --      1.2237                 1.2696                 1.2123
 Frc consts  --      0.9163                 1.0507                 1.0696
 IR Inten    --      2.4676                 1.5453                 5.0645

                     28                     29                     30
                      A                      A                      A
 Frequencies --   1240.8393              1256.4454              1281.7288
 Red. masses --      1.2845                 1.3687                 1.2869
 Frc consts  --      1.1653                 1.2730                 1.2456
 IR Inten    --      9.1859                 1.2255                 5.0363

                     31                     32                     33
                      A                      A                      A
 Frequencies --   1292.2189              1316.5526              1323.1985
 Red. masses --      1.3166                 1.6769                 1.3984
 Frc consts  --      1.2953                 1.7125                 1.4425
 IR Inten    --      0.8580                 5.4536                 4.7291

                     34                     35                     36
                      A                      A                      A
 Frequencies --   1343.2475              1362.0264              1373.7579
 Red. masses --      1.3681                 1.4007                 1.6023
 Frc consts  --      1.4544                 1.5310                 1.7816
 IR Inten    --      6.0549                 1.8661                 4.7513

                     37                     38                     39
                      A                      A                      A
 Frequencies --   1399.3833              1461.7714              1469.7470
 Red. masses --      1.4023                 1.9062                 1.3629
 Frc consts  --      1.6180                 2.3999                 1.7345
 IR Inten    --      3.6646                10.2579                 4.7334

                     40                     41                     42
                      A                      A                      A
 Frequencies --   1486.8103              1507.4733              3037.8330
 Red. masses --      1.1119                 1.1036                 1.0602
 Frc consts  --      1.4483                 1.4776                 5.7647
 IR Inten    --      1.8415                 5.6594                17.5176

                     43                     44                     45
                      A                      A                      A
 Frequencies --   3059.6413              3068.3690              3077.0839
 Red. masses --      1.0603                 1.0661                 1.0860
 Frc consts  --      5.8483                 5.9139                 6.0583
 IR Inten    --     14.1403                23.7467                50.9658

                     46                     47                     48
                      A                      A                      A
 Frequencies --   3081.4990              3083.8616              3097.9887
 Red. masses --      1.0954                 1.0912                 1.0875
 Frc consts  --      6.1284                 6.1144                 6.1496
 IR Inten    --     18.7957                19.7865                41.6766

                     49                     50                     51
                      A                      A                      A
 Frequencies --   3100.6135              3114.4855              3119.7234
 Red. masses --      1.1033                 1.0920                 1.1053
 Frc consts  --      6.2494                 6.2407                 6.3384
 IR Inten    --      0.6652                35.0915                53.2776

 - Thermochemistry -
 -------------------
 Temperature   298.150 Kelvin.  Pressure   1.00000 Atm.
 Atom     1 has atomic number  6 and mass  12.00000

 Molecular mass:   126.06808 amu.
 Principal axes and moments of inertia in atomic units:
                           1         2         3
     Eigenvalues --   637.17864 965.417591167.65861
           X            0.99953   0.03058   0.00145
           Y           -0.03059   0.99946   0.01169
           Z           -0.00109  -0.01173   0.99993
 This molecule is an asymmetric top.
 Rotational symmetry number  1.
 Warning -- assumption of classical behavior for rotation
           may cause significant error
 Rotational temperatures (Kelvin)      0.13593     0.08972     0.07418
 Rotational constants (GHZ):           2.83239     1.86939     1.54561
 Zero-point vibrational energy     427867.4 (Joules/Mol)
                                  102.26276 (Kcal/Mol)
 Warning -- explicit consideration of   7 degrees of freedom as
           vibrations may cause significant error
 Vibrational temperatures:    168.77   315.71   432.77   550.01   594.93
          (Kelvin)            654.13   820.05   919.39  1070.47  1127.05
                             1154.02  1183.77  1203.62  1262.76  1285.63
                             1317.00  1381.19  1414.64  1435.93  1466.15
                             1491.89  1530.39  1586.46  1590.72  1621.93
                             1705.20  1760.64  1785.29  1807.74  1844.12
                             1859.21  1894.22  1903.79  1932.63  1959.65
                             1976.53  2013.40  2103.16  2114.64  2139.19
                             2168.92  4370.76  4402.14  4414.69  4427.23
                             4433.58  4436.98  4457.31  4461.09  4481.04
                             4488.58

 Zero-point correction=                           0.162966 (Hartree/Particle)
 Thermal correction to Energy=                    0.169660
 Thermal correction to Enthalpy=                  0.170604
 Thermal correction to Gibbs Free Energy=         0.132021
 Sum of electronic and zero-point Energies=           -423.027718
 Sum of electronic and thermal Energies=              -423.021024
 Sum of electronic and thermal Enthalpies=            -423.020080
 Sum of electronic and thermal Free Energies=         -423.058663

                     E (Thermal)             CV                S
                      KCal/Mol        Cal/Mol-Kelvin    Cal/Mol-Kelvin
 Total                  106.463             27.676             81.205
 Electronic               0.000              0.000              0.000
 Translational            0.889              2.981             40.409
 Rotational               0.889              2.981             28.065
 Vibrational            104.686             21.714             12.732
 Vibration     1          0.608              1.935              3.144
 Vibration     2          0.647              1.811              1.964
 Vibration     3          0.693              1.672              1.413
 Vibration     4          0.752              1.508              1.030
 Vibration     5          0.777              1.441              0.914
 Vibration     6          0.813              1.351              0.782
 Vibration     7          0.926              1.096              0.504

 Optimization completed.
    -- Stationary point found.
 Normal termination of Gaussian 09 at Mon Jan 27 12:11:28 2020.
