 Gaussian 09, Revision D.01,
 Gaussian 09:  ES64L-G09RevD.01 24-Apr-2013

 -----------------------------
 # b3lyp 6-31G(2df,p) opt Freq
 -----------------------------

 -----
 titel
 -----
 Symbolic Z-matrix:
 Charge =  0 Multiplicity = 1

 SCF Done:  E(RB3LYP) =  -423.115895507     A.U. after   13 cycles
 Optimization completed.
    -- Stationary point found.
 Normal termination of Gaussian 09 at Tue Jan 28 02:55:23 2020.

 ----------------------------------------------------------------------
 #N Geom=AllCheck Guess=TCheck SCRF=Check GenChk RB3LYP/6-31G(2df,p) Fr
 eq
 ----------------------------------------------------------------------

 Structure from the checkpoint file:  "/scratch/puck/g09_e2b8a1b2-5e0e-4776-a6fd-578bee31c9db/Gau-65436.chk"
 -----
 titel
 -----
 Charge =  0 Multiplicity = 1

                         Standard orientation:
 ---------------------------------------------------------------------
 Center     Atomic      Atomic             Coordinates (Angstroms)
 Number     Number       Type             X           Y           Z
 ---------------------------------------------------------------------
      1          8           0       -2.175884   -0.357373    0.881503
      2          6           0       -1.648828    0.005204   -0.376969
      3          6           0       -0.844454    1.363562   -0.311091
      4          6           0        0.635583    0.995180   -0.494502
      5          6           0        1.615798    0.579589    0.636195
      6          6           0        2.179232   -0.554361   -0.284281
      7          6           0        0.636154   -0.539537   -0.368385
      8          6           0       -0.648135   -1.089395   -0.908022
      9          8           0        0.619077   -0.380345    1.139540
     10          1           0       -1.413015   -0.387073    1.477076
     11          1           0       -2.513611    0.090914   -1.040768
     12          1           0       -1.157182    2.040306   -1.111473
     13          1           0       -1.080518    1.852780    0.635928
     14          1           0        1.104023    1.409613   -1.391056
     15          1           0        2.149029    1.181142    1.373765
     16          1           0        2.737036   -0.266217   -1.178488
     17          1           0        2.624243   -1.394556    0.248861
     18          1           0       -0.615471   -1.110627   -2.003154
     19          1           0       -0.932179   -2.075980   -0.536699
 ---------------------------------------------------------------------

 SCF Done:  E(RB3LYP) =  -423.115895507     A.U. after    1 cycles

 The electronic state is 1-A.
 Alpha  occ. eigenvalues --  -19.13877 -19.11609 -10.25682 -10.25144 -10.23121
 Alpha  occ. eigenvalues --  -10.20330 -10.19323 -10.18835 -10.18131  -1.06219
 Alpha  occ. eigenvalues --   -1.00297  -0.81980  -0.77314  -0.72452  -0.65715
 Alpha  occ. eigenvalues --   -0.62729  -0.58509  -0.53059  -0.50270  -0.47425
 Alpha  occ. eigenvalues --   -0.46916  -0.45249  -0.44354  -0.41071  -0.39791
 Alpha  occ. eigenvalues --   -0.37037  -0.36182  -0.35156  -0.34355  -0.33140
 Alpha  occ. eigenvalues --   -0.30037  -0.29171  -0.25113  -0.24671
 Alpha virt. eigenvalues --    0.07235   0.09417   0.10980   0.11614   0.12275
 Alpha virt. eigenvalues --    0.12644   0.13957   0.14513   0.15605   0.16330
 Alpha virt. eigenvalues --    0.17136   0.17377   0.18690   0.18855   0.21390

 Mulliken charges:
               1
     1  O   -0.438781
     2  C    0.143637
     3  C   -0.287959
     4  C   -0.009491
     5  C    0.027060
     6  C   -0.314192
     7  C    0.414100
     8  C   -0.374633
     9  O   -0.361080
    10  H    0.288773
    11  H    0.080900
    12  H    0.099905
    13  H    0.116774
    14  H    0.072470
    15  H    0.097031
    16  H    0.102379
    17  H    0.114334
    18  H    0.105978
    19  H    0.122795
 Sum of Mulliken charges =   0.00000

 Dipole moment (field-independent basis, Debye):
    X=              2.2052    Y=              0.8436    Z=             -1.9385  Tot=              3.0549
 Quadrupole moment (field-independent basis, Debye-Ang):
   XX=            -56.0913   YY=            -52.3838   ZZ=            -52.4009
   XY=             -0.2894   XZ=              2.5867   YZ=              1.3058

  Exact polarizability:  85.405  -0.780  70.245   2.221   0.450  69.576
 Approx polarizability: 116.582   1.996 105.243   0.720  -1.735 113.685

                      1                      2                      3
                      A                      A                      A
 Frequencies --    146.8416               234.2452               310.8754
 Red. masses --      3.7018                 3.6467                 3.7832
 Frc consts  --      0.0470                 0.1179                 0.2154
 IR Inten    --      2.8734                 0.3035                 5.3793

                      4                      5                      6
                      A                      A                      A
 Frequencies --    386.7490               400.8186               459.2708
 Red. masses --      2.5388                 2.1705                 2.6496
 Frc consts  --      0.2237                 0.2054                 0.3293
 IR Inten    --      1.9683                 0.5827                 1.5278

                      7                      8                      9
                      A                      A                      A
 Frequencies --    520.1904               595.6522               618.7856
 Red. masses --      2.3699                 1.1973                 3.1380
 Frc consts  --      0.3778                 0.2503                 0.7079
 IR Inten    --      1.4849                67.3836                21.3310

                     10                     11                     12
                      A                      A                      A
 Frequencies --    680.1817               705.8701               752.7614
 Red. masses --      5.3910                 2.3796                 5.2744
 Frc consts  --      1.4695                 0.6985                 1.7609
 IR Inten    --     20.9631                 1.6755                 5.0473

                     13                     14                     15
                      A                      A                      A
 Frequencies --    769.2781               811.4716               831.8417
 Red. masses --      4.0802                 2.9076                 2.4071
 Frc consts  --      1.4227                 1.1281                 0.9813
 IR Inten    --      0.0759                 0.7378                11.4278

                     16                     17                     18
                      A                      A                      A
 Frequencies --    888.4770               909.1179               939.3058
 Red. masses --      3.0162                 2.1893                 2.3804
 Frc consts  --      1.4028                 1.0661                 1.2374
 IR Inten    --     36.4243                 2.0410                 3.3330

                     19                     20                     21
                      A                      A                      A
 Frequencies --    967.1102               995.0251              1005.2030
 Red. masses --      2.6372                 2.7850                 2.3546
 Frc consts  --      1.4532                 1.6246                 1.4018
 IR Inten    --      0.0581                 3.9119                15.4824

                     22                     23                     24
                      A                      A                      A
 Frequencies --   1028.9021              1073.9659              1082.5893
 Red. masses --      1.2608                 1.8306                 2.0760
 Frc consts  --      0.7864                 1.2440                 1.4335
 IR Inten    --      6.9705                49.9429                 0.6641

                     25                     26                     27
                      A                      A                      A
 Frequencies --   1107.7707              1124.3796              1170.9626
 Red. masses --      1.6029                 1.5704                 1.5124
 Frc consts  --      1.1589                 1.1698                 1.2218
 IR Inten    --     51.5324                 6.6669                18.7778

                     28                     29                     30
                      A                      A                      A
 Frequencies --   1191.5411              1193.9379              1199.2837
 Red. masses --      1.3900                 1.3661                 1.2907
 Frc consts  --      1.1627                 1.1474                 1.0937
 IR Inten    --      0.7011                11.7395                34.5938

                     31                     32                     33
                      A                      A                      A
 Frequencies --   1227.3270              1249.4983              1275.6443
 Red. masses --      1.6136                 1.6456                 1.5366
 Frc consts  --      1.4321                 1.5138                 1.4733
 IR Inten    --     12.8503                 7.2981                 1.1677

                     34                     35                     36
                      A                      A                      A
 Frequencies --   1296.6006              1328.8478              1355.6735
 Red. masses --      1.6252                 1.4019                 2.1352
 Frc consts  --      1.6098                 1.4585                 2.3121
 IR Inten    --      2.5352                 2.6533                 8.9423

                     37                     38                     39
                      A                      A                      A
 Frequencies --   1378.1570              1457.4524              1469.1780
 Red. masses --      1.6284                 1.1688                 1.1434
 Frc consts  --      1.8223                 1.4628                 1.4541
 IR Inten    --      4.0605                56.7176                41.3815

                     40                     41                     42
                      A                      A                      A
 Frequencies --   1479.0452              1488.8728              3050.2571
 Red. masses --      1.0954                 1.2305                 1.0653
 Frc consts  --      1.4118                 1.6071                 5.8396
 IR Inten    --      3.9717                 1.2167                 9.6430

                     43                     44                     45
                      A                      A                      A
 Frequencies --   3057.8041              3066.3509              3074.0645
 Red. masses --      1.0696                 1.0644                 1.0783
 Frc consts  --      5.8923                 5.8967                 6.0034
 IR Inten    --      8.8821                23.6923                56.4253

                     46                     47                     48
                      A                      A                      A
 Frequencies --   3080.0195              3108.3549              3116.4942
 Red. masses --      1.0776                 1.0931                 1.1019
 Frc consts  --      6.0231                 6.2229                 6.3057
 IR Inten    --     52.7533                63.7177                12.7320

                     49                     50                     51
                      A                      A                      A
 Frequencies --   3122.1643              3154.4043              3729.0186
 Red. masses --      1.1013                 1.1106                 1.0648
 Frc consts  --      6.3249                 6.5107                 8.7240
 IR Inten    --     12.0994                21.8899                60.9188

 - Thermochemistry -
 -------------------
 Temperature   298.150 Kelvin.  Pressure   1.00000 Atm.
 Atom     1 has atomic number  8 and mass  15.99491

 Molecular mass:   126.06808 amu.
 Principal axes and moments of inertia in atomic units:
                           1         2         3
     Eigenvalues --   548.683041176.253941219.83756
           X            0.99991  -0.01049   0.00795
           Y            0.00969   0.99549   0.09435
           Z           -0.00890  -0.09427   0.99551
 This molecule is an asymmetric top.
 Rotational symmetry number  1.
 Warning -- assumption of classical behavior for rotation
           may cause significant error
 Rotational temperatures (Kelvin)      0.15786     0.07364     0.07100
 Rotational constants (GHZ):           3.28922     1.53431     1.47949
 Zero-point vibrational energy     422686.3 (Joules/Mol)
                                  101.02445 (Kcal/Mol)
 Warning -- explicit consideration of   9 degrees of freedom as
           vibrations may cause significant error
 Vibrational temperatures:    211.27   337.03   447.28   556.44   576.69
          (Kelvin)            660.79   748.44   857.01   890.29   978.63
                             1015.59  1083.05  1106.82  1167.53  1196.83
                             1278.32  1308.02  1351.45  1391.45  1431.62
                             1446.26  1480.36  1545.20  1557.60  1593.83
                             1617.73  1684.75  1714.36  1717.81  1725.50
                             1765.85  1797.75  1835.37  1865.52  1911.91
                             1950.51  1982.86  2096.95  2113.82  2128.01
                             2142.15  4388.63  4399.49  4411.79  4422.89
                             4431.46  4472.22  4483.93  4492.09  4538.48
                             5365.22

 Zero-point correction=                           0.160993 (Hartree/Particle)
 Thermal correction to Energy=                    0.167932
 Thermal correction to Enthalpy=                  0.168876
 Thermal correction to Gibbs Free Energy=         0.130081
 Sum of electronic and zero-point Energies=           -422.954903
 Sum of electronic and thermal Energies=              -422.947964
 Sum of electronic and thermal Enthalpies=            -422.947019
 Sum of electronic and thermal Free Energies=         -422.985815

                     E (Thermal)             CV                S
                      KCal/Mol        Cal/Mol-Kelvin    Cal/Mol-Kelvin
 Total                  105.379             29.529             81.651
 Electronic               0.000              0.000              0.000
 Translational            0.889              2.981             40.409
 Rotational               0.889              2.981             28.156
 Vibrational            103.601             23.568             13.087
 Vibration     1          0.617              1.906              2.713
 Vibration     2          0.654              1.788              1.846
 Vibration     3          0.700              1.653              1.358
 Vibration     4          0.755              1.498              1.013
 Vibration     5          0.767              1.468              0.960
 Vibration     6          0.817              1.340              0.768
 Vibration     7          0.875              1.205              0.610
 Vibration     8          0.953              1.041              0.457
 Vibration     9          0.979              0.992              0.418

 Normal termination of Gaussian 09 at Tue Jan 28 03:57:45 2020.
