 Gaussian 09, Revision D.01,
 Gaussian 09:  ES64L-G09RevD.01 24-Apr-2013

 -----------------------------
 # b3lyp 6-31G(2df,p) opt Freq
 -----------------------------

 -----
 titel
 -----
 Symbolic Z-matrix:
 Charge =  0 Multiplicity = 1

 SCF Done:  E(RB3LYP) =  -423.166821815     A.U. after   14 cycles
 Optimization completed.
    -- Stationary point found.
 Normal termination of Gaussian 09 at Tue Jan 28 14:09:13 2020.

 ----------------------------------------------------------------------
 #N Geom=AllCheck Guess=TCheck SCRF=Check GenChk RB3LYP/6-31G(2df,p) Fr
 eq
 ----------------------------------------------------------------------

 Structure from the checkpoint file:  "/scratch/puck/g09_010850dc-2cba-4fd1-92b9-cf2b7c5233c2/Gau-3929.chk"
 -----
 titel
 -----
 Charge =  0 Multiplicity = 1

                         Standard orientation:
 ---------------------------------------------------------------------
 Center     Atomic      Atomic             Coordinates (Angstroms)
 Number     Number       Type             X           Y           Z
 ---------------------------------------------------------------------
      1          6           0        3.527466   -0.320073   -0.354231
      2          6           0        2.236276   -0.162199    0.427333
      3          8           0        1.167847   -0.004043   -0.507682
      4          6           0       -0.060100    0.164590    0.076215
      5          6           0       -0.544493    1.467327    0.606282
      6          6           0       -1.273415    0.840395   -0.595191
      7          6           0       -2.128783   -0.291204   -0.111123
      8          8           0       -3.259661   -0.627132   -0.318475
      9          6           0       -0.938156   -0.986665    0.608221
     10          1           0        4.371239   -0.445417    0.330631
     11          1           0        3.476931   -1.195500   -1.007522
     12          1           0        3.711170    0.561203   -0.975149
     13          1           0        2.051408   -1.044341    1.058494
     14          1           0        2.279034    0.714828    1.089969
     15          1           0       -1.038423    1.551194    1.570357
     16          1           0        0.050451    2.329409    0.321706
     17          1           0       -1.357607    1.378837   -1.530689
     18          1           0       -1.001034   -1.134072    1.690123
     19          1           0       -0.721420   -1.939771    0.116302
 ---------------------------------------------------------------------

 SCF Done:  E(RB3LYP) =  -423.166821815     A.U. after    1 cycles

 The electronic state is 1-A.
 Alpha  occ. eigenvalues --  -19.16017 -19.12907 -10.27024 -10.26058 -10.24067
 Alpha  occ. eigenvalues --  -10.20835 -10.20430 -10.19462 -10.18492  -1.05855
 Alpha  occ. eigenvalues --   -1.03944  -0.90305  -0.76467  -0.73418  -0.64479
 Alpha  occ. eigenvalues --   -0.63650  -0.57487  -0.53803  -0.51208  -0.49066
 Alpha  occ. eigenvalues --   -0.46892  -0.45503  -0.43799  -0.41537  -0.40323
 Alpha  occ. eigenvalues --   -0.39997  -0.38872  -0.38654  -0.36563  -0.34867
 Alpha  occ. eigenvalues --   -0.32213  -0.27559  -0.26631  -0.24092
 Alpha virt. eigenvalues --   -0.00953   0.08467   0.09771   0.10571   0.11520
 Alpha virt. eigenvalues --    0.13147   0.13559   0.14208   0.15019   0.15920
 Alpha virt. eigenvalues --    0.16765   0.17497   0.18329   0.18975   0.20346

 Mulliken charges:
               1
     1  C   -0.387636
     2  C   -0.063846
     3  O   -0.290754
     4  C    0.457624
     5  C   -0.339298
     6  C   -0.265740
     7  C    0.436008
     8  O   -0.313931
     9  C   -0.433145
    10  H    0.119596
    11  H    0.131562
    12  H    0.129573
    13  H    0.099870
    14  H    0.097578
    15  H    0.122113
    16  H    0.129957
    17  H    0.117683
    18  H    0.115947
    19  H    0.136840
 Sum of Mulliken charges =   0.00000

 Dipole moment (field-independent basis, Debye):
    X=              3.4509    Y=              0.9327    Z=              1.3839  Tot=              3.8332
 Quadrupole moment (field-independent basis, Debye-Ang):
   XX=            -63.2700   YY=            -51.0341   ZZ=            -52.1293
   XY=             -3.1447   XZ=             -0.2647   YZ=             -0.7114

  Exact polarizability:  96.000   2.050  72.831   3.409  -1.659  64.997
 Approx polarizability: 128.505   5.605 107.448   7.752  -1.515 100.791

                      1                      2                      3
                      A                      A                      A
 Frequencies --     56.5427                72.8878                95.1966
 Red. masses --      3.8571                 1.8282                 4.6085
 Frc consts  --      0.0073                 0.0057                 0.0246
 IR Inten    --      0.2674                 0.4761                 3.3004

                      4                      5                      6
                      A                      A                      A
 Frequencies --    185.3003               245.1435               321.9634
 Red. masses --      3.6407                 1.1507                 2.6481
 Frc consts  --      0.0737                 0.0407                 0.1617
 IR Inten    --      3.8305                 0.2987                 1.4011

                      7                      8                      9
                      A                      A                      A
 Frequencies --    354.6700               396.1584               427.0992
 Red. masses --      4.1034                 2.6274                 3.1224
 Frc consts  --      0.3041                 0.2429                 0.3356
 IR Inten    --      4.2036                 6.4277                 1.0317

                     10                     11                     12
                      A                      A                      A
 Frequencies --    478.3018               555.0882               626.3528
 Red. masses --      3.4654                 3.0015                 2.8609
 Frc consts  --      0.4671                 0.5449                 0.6613
 IR Inten    --      0.8062                 0.4047                 3.3535

                     13                     14                     15
                      A                      A                      A
 Frequencies --    712.3495               780.8953               818.9906
 Red. masses --      3.1362                 2.3739                 1.0849
 Frc consts  --      0.9377                 0.8529                 0.4287
 IR Inten    --      6.6943                25.2901                 0.5440

                     16                     17                     18
                      A                      A                      A
 Frequencies --    846.7461               888.7366               926.0602
 Red. masses --      4.9731                 2.0893                 1.5313
 Frc consts  --      2.1008                 0.9723                 0.7737
 IR Inten    --      9.9863                22.9882                 5.0543

                     19                     20                     21
                      A                      A                      A
 Frequencies --    955.3313               982.8413               999.4215
 Red. masses --      2.2015                 1.4497                 2.0136
 Frc consts  --      1.1838                 0.8251                 1.1850
 IR Inten    --      9.3122                10.4506                 6.6392

                     22                     23                     24
                      A                      A                      A
 Frequencies --   1043.1284              1070.7409              1076.1642
 Red. masses --      2.3450                 2.2635                 1.5342
 Frc consts  --      1.5034                 1.5290                 1.0469
 IR Inten    --     20.2348                33.0079                 9.6203

                     25                     26                     27
                      A                      A                      A
 Frequencies --   1108.9958              1117.7808              1143.7593
 Red. masses --      1.8261                 1.9266                 2.2103
 Frc consts  --      1.3232                 1.4182                 1.7036
 IR Inten    --     35.5921                 6.1457                49.5586

                     28                     29                     30
                      A                      A                      A
 Frequencies --   1185.7920              1199.5852              1236.0293
 Red. masses --      1.5461                 1.5404                 2.2202
 Frc consts  --      1.2809                 1.3060                 1.9985
 IR Inten    --      4.5686                 2.6215                41.6298

                     31                     32                     33
                      A                      A                      A
 Frequencies --   1258.6764              1293.9746              1369.8821
 Red. masses --      3.8110                 1.1206                 2.1722
 Frc consts  --      3.5573                 1.1055                 2.4017
 IR Inten    --     38.3341                 1.7071               221.4252

                     34                     35                     36
                      A                      A                      A
 Frequencies --   1404.7009              1432.7077              1453.4823
 Red. masses --      1.3111                 1.4325                 1.1271
 Frc consts  --      1.5242                 1.7324                 1.4030
 IR Inten    --     22.5592                 1.0945                 3.2225

                     37                     38                     39
                      A                      A                      A
 Frequencies --   1483.4793              1496.9686              1499.6792
 Red. masses --      1.0401                 1.3484                 1.0635
 Frc consts  --      1.3486                 1.7803                 1.4093
 IR Inten    --      4.7050                30.8915                 6.0510

                     40                     41                     42
                      A                      A                      A
 Frequencies --   1526.8253              1886.2189              2985.8263
 Red. masses --      1.1044                12.3842                 1.0553
 Frc consts  --      1.5169                25.9599                 5.5434
 IR Inten    --      0.2001               352.1280                37.2182

                     43                     44                     45
                      A                      A                      A
 Frequencies --   3018.9896              3047.0770              3055.1789
 Red. masses --      1.1064                 1.0347                 1.0576
 Frc consts  --      5.9412                 5.6604                 5.8161
 IR Inten    --     33.2501                16.2780                14.9203

                     46                     47                     48
                      A                      A                      A
 Frequencies --   3113.3142              3115.9869              3122.1957
 Red. masses --      1.1067                 1.0551                 1.1015
 Frc consts  --      6.3201                 6.0360                 6.3265
 IR Inten    --      8.8641                12.7655                22.1069

                     49                     50                     51
                      A                      A                      A
 Frequencies --   3124.7549              3201.7136              3210.5927
 Red. masses --      1.1029                 1.0991                 1.1108
 Frc consts  --      6.3446                 6.6382                 6.7460
 IR Inten    --     23.7515                 2.0579                 6.5032

 - Thermochemistry -
 -------------------
 Temperature   298.150 Kelvin.  Pressure   1.00000 Atm.
 Atom     1 has atomic number  6 and mass  12.00000

 Molecular mass:   126.06808 amu.
 Principal axes and moments of inertia in atomic units:
                           1         2         3
     Eigenvalues --   387.598952079.407212217.45476
           X            0.99993  -0.01116  -0.00381
           Y            0.01107   0.99970  -0.02170
           Z            0.00405   0.02166   0.99976
 This molecule is an asymmetric top.
 Rotational symmetry number  1.
 Rotational temperatures (Kelvin)      0.22346     0.04165     0.03906
 Rotational constants (GHZ):           4.65621     0.86791     0.81388
 Zero-point vibrational energy     412773.1 (Joules/Mol)
                                   98.65514 (Kcal/Mol)
 Warning -- explicit consideration of  11 degrees of freedom as
           vibrations may cause significant error
 Vibrational temperatures:     81.35   104.87   136.97   266.61   352.71
          (Kelvin)            463.23   510.29   569.98   614.50   688.17
                              798.65   901.18  1024.91  1123.53  1178.34
                             1218.28  1278.69  1332.39  1374.51  1414.09
                             1437.94  1500.83  1540.56  1548.36  1595.60
                             1608.24  1645.61  1706.09  1725.93  1778.37
                             1810.95  1861.74  1970.95  2021.05  2061.34
                             2091.23  2134.39  2153.80  2157.70  2196.76
                             2713.84  4295.93  4343.65  4384.06  4395.72
                             4479.36  4483.20  4492.14  4495.82  4606.55
                             4619.32

 Zero-point correction=                           0.157217 (Hartree/Particle)
 Thermal correction to Energy=                    0.166233
 Thermal correction to Enthalpy=                  0.167177
 Thermal correction to Gibbs Free Energy=         0.122654
 Sum of electronic and zero-point Energies=           -423.009605
 Sum of electronic and thermal Energies=              -423.000589
 Sum of electronic and thermal Enthalpies=            -422.999645
 Sum of electronic and thermal Free Energies=         -423.044168

                     E (Thermal)             CV                S
                      KCal/Mol        Cal/Mol-Kelvin    Cal/Mol-Kelvin
 Total                  104.313             33.212             93.707
 Electronic               0.000              0.000              0.000
 Translational            0.889              2.981             40.409
 Rotational               0.889              2.981             28.971
 Vibrational            102.535             27.250             24.328
 Vibration     1          0.596              1.975              4.574
 Vibration     2          0.599              1.967              4.074
 Vibration     3          0.603              1.953              3.550
 Vibration     4          0.631              1.860              2.274
 Vibration     5          0.660              1.771              1.765
 Vibration     6          0.707              1.631              1.300
 Vibration     7          0.731              1.566              1.145
 Vibration     8          0.763              1.478              0.977
 Vibration     9          0.789              1.411              0.868
 Vibration    10          0.835              1.298              0.715
 Vibration    11          0.911              1.129              0.534

 Optimization completed.
    -- Stationary point found.
 Normal termination of Gaussian 09 at Tue Jan 28 14:55:05 2020.
