 Gaussian 09, Revision D.01,
 Gaussian 09:  ES64L-G09RevD.01 24-Apr-2013

 -----------------------------
 # b3lyp 6-31G(2df,p) opt Freq
 -----------------------------

 -----
 titel
 -----
 Symbolic Z-matrix:
 Charge =  0 Multiplicity = 1

 SCF Done:  E(RB3LYP) =  -423.138311094     A.U. after   13 cycles
 Optimization completed.
    -- Stationary point found.
 Normal termination of Gaussian 09 at Tue Jan 28 09:58:25 2020.

 ----------------------------------------------------------------------
 #N Geom=AllCheck Guess=TCheck SCRF=Check GenChk RB3LYP/6-31G(2df,p) Fr
 eq
 ----------------------------------------------------------------------

 Structure from the checkpoint file:  "/scratch/puck/g09_ccb5247e-9677-4a16-885e-220ece44a057/Gau-21551.chk"
 -----
 titel
 -----
 Charge =  0 Multiplicity = 1

                         Standard orientation:
 ---------------------------------------------------------------------
 Center     Atomic      Atomic             Coordinates (Angstroms)
 Number     Number       Type             X           Y           Z
 ---------------------------------------------------------------------
      1          6           0        2.730050    0.068223    0.151176
      2          8           0        1.653380   -0.245296   -0.711723
      3          6           0        0.390898   -0.053893   -0.157257
      4          6           0       -0.067380   -0.986065    1.020251
      5          6           0       -1.377338   -1.213070    0.263051
      6          6           0       -1.876854    0.113253   -0.275136
      7          8           0       -1.442859    1.309855    0.343362
      8          6           0       -0.030730    1.397008    0.139170
      9          6           0       -0.792523   -0.586264   -1.009236
     10          1           0        2.677726   -0.498480    1.091670
     11          1           0        3.646986   -0.206608   -0.374587
     12          1           0        2.770728    1.139766    0.392130
     13          1           0        0.542313   -1.893019    1.036707
     14          1           0       -0.124740   -0.553219    2.024674
     15          1           0       -2.028850   -2.074569    0.356735
     16          1           0       -2.887539    0.171759   -0.660180
     17          1           0        0.207659    2.049029   -0.715432
     18          1           0        0.417970    1.812905    1.046845
     19          1           0       -0.763155   -0.899187   -2.043785
 ---------------------------------------------------------------------

 SCF Done:  E(RB3LYP) =  -423.138311094     A.U. after    1 cycles

 The electronic state is 1-A.
 Alpha  occ. eigenvalues --  -19.14895 -19.13818 -10.24328 -10.23320 -10.22976
 Alpha  occ. eigenvalues --  -10.22308 -10.19309 -10.18742 -10.18437  -1.05110
 Alpha  occ. eigenvalues --   -1.03343  -0.88225  -0.75402  -0.69990  -0.67968
 Alpha  occ. eigenvalues --   -0.60958  -0.58008  -0.53675  -0.52769  -0.48590
 Alpha  occ. eigenvalues --   -0.46376  -0.45003  -0.44570  -0.44079  -0.42212
 Alpha  occ. eigenvalues --   -0.39031  -0.37197  -0.34529  -0.33942  -0.32987
 Alpha  occ. eigenvalues --   -0.30491  -0.26953  -0.25111  -0.22965
 Alpha virt. eigenvalues --    0.08412   0.09504   0.10555   0.11807   0.13303
 Alpha virt. eigenvalues --    0.13849   0.15065   0.15522   0.16035   0.16681
 Alpha virt. eigenvalues --    0.17000   0.17824   0.18721   0.19626   0.21495

 Mulliken charges:
               1
     1  C   -0.265205
     2  O   -0.307665
     3  C    0.403201
     4  C   -0.293004
     5  C   -0.106817
     6  C    0.114652
     7  O   -0.269755
     8  C   -0.130326
     9  C   -0.194322
    10  H    0.114633
    11  H    0.131212
    12  H    0.114038
    13  H    0.109198
    14  H    0.095311
    15  H    0.085821
    16  H    0.104362
    17  H    0.094906
    18  H    0.103660
    19  H    0.096101
 Sum of Mulliken charges =   0.00000

 Dipole moment (field-independent basis, Debye):
    X=              0.9426    Y=             -0.7189    Z=              0.2710  Tot=              1.2161
 Quadrupole moment (field-independent basis, Debye-Ang):
   XX=            -50.0223   YY=            -54.0006   ZZ=            -53.5805
   XY=              4.0156   XZ=              4.1328   YZ=             -0.8184

  Exact polarizability:  84.338   4.356  71.049   2.713  -1.479  65.935
 Approx polarizability: 112.176   3.156 104.862  -0.147  -0.630 104.180

                      1                      2                      3
                      A                      A                      A
 Frequencies --     98.4773               182.7591               204.9117
 Red. masses --      2.4711                 1.3492                 2.2683
 Frc consts  --      0.0141                 0.0266                 0.0561
 IR Inten    --      2.3597                 0.4311                 2.2973

                      4                      5                      6
                      A                      A                      A
 Frequencies --    232.8112               345.6450               378.3484
 Red. masses --      2.5831                 2.5387                 3.5919
 Frc consts  --      0.0825                 0.1787                 0.3029
 IR Inten    --      6.7821                 1.4534                 3.6110

                      7                      8                      9
                      A                      A                      A
 Frequencies --    428.4798               490.7370               597.5787
 Red. masses --      3.3535                 2.9370                 3.6539
 Frc consts  --      0.3627                 0.4167                 0.7688
 IR Inten    --      0.8122                 2.9903                 4.1933

                     10                     11                     12
                      A                      A                      A
 Frequencies --    647.7846               720.0848               757.1552
 Red. masses --      4.1939                 5.4677                 1.8609
 Frc consts  --      1.0369                 1.6704                 0.6285
 IR Inten    --      1.8474                 3.8637                 1.9850

                     13                     14                     15
                      A                      A                      A
 Frequencies --    790.4276               844.6220               901.2475
 Red. masses --      2.1184                 2.5592                 1.9082
 Frc consts  --      0.7798                 1.0757                 0.9132
 IR Inten    --      8.8387                16.6432                 9.7159

                     16                     17                     18
                      A                      A                      A
 Frequencies --    926.7399               953.3484               976.6431
 Red. masses --      1.8638                 1.6805                 2.2801
 Frc consts  --      0.9431                 0.8999                 1.2814
 IR Inten    --      1.8813                17.2264                18.2109

                     19                     20                     21
                      A                      A                      A
 Frequencies --   1013.8491              1020.9697              1033.2636
 Red. masses --      2.5409                 1.5731                 2.4041
 Frc consts  --      1.5388                 0.9661                 1.5123
 IR Inten    --      7.8749                 6.9138                16.7342

                     22                     23                     24
                      A                      A                      A
 Frequencies --   1068.1885              1080.3045              1108.4712
 Red. masses --      1.6254                 4.6194                 2.9836
 Frc consts  --      1.0927                 3.1764                 2.1599
 IR Inten    --     13.0373                65.9985                22.5728

                     25                     26                     27
                      A                      A                      A
 Frequencies --   1130.2792              1153.8195              1181.7549
 Red. masses --      2.0755                 1.8459                 1.2885
 Frc consts  --      1.5622                 1.4479                 1.0602
 IR Inten    --      8.8756                 2.3338                 2.2308

                     28                     29                     30
                      A                      A                      A
 Frequencies --   1196.7526              1200.3487              1219.3909
 Red. masses --      2.1514                 1.6279                 1.3743
 Frc consts  --      1.8155                 1.3820                 1.2040
 IR Inten    --     62.4831                 2.8550                 4.1081

                     31                     32                     33
                      A                      A                      A
 Frequencies --   1238.0646              1260.8243              1281.9832
 Red. masses --      1.6461                 2.0669                 1.9132
 Frc consts  --      1.4866                 1.9358                 1.8525
 IR Inten    --      7.4899                43.7209                64.9883

                     34                     35                     36
                      A                      A                      A
 Frequencies --   1310.5933              1373.9820              1403.9531
 Red. masses --      1.5817                 1.8879                 2.0922
 Frc consts  --      1.6007                 2.0999                 2.4297
 IR Inten    --      8.6003                49.5311                12.9459

                     37                     38                     39
                      A                      A                      A
 Frequencies --   1479.1003              1487.7485              1493.0302
 Red. masses --      1.1176                 1.1577                 1.0698
 Frc consts  --      1.4406                 1.5097                 1.4051
 IR Inten    --      2.8531                 2.0672                 2.7136

                     40                     41                     42
                      A                      A                      A
 Frequencies --   1507.1802              1514.3403              2985.9556
 Red. masses --      1.0545                 1.0984                 1.0650
 Frc consts  --      1.4114                 1.4840                 5.5946
 IR Inten    --      8.2528                 0.9285                53.2789

                     43                     44                     45
                      A                      A                      A
 Frequencies --   2991.7558              3039.5945              3044.1328
 Red. masses --      1.0375                 1.0681                 1.0944
 Frc consts  --      5.4714                 5.8142                 5.9754
 IR Inten    --     48.7137                23.2937                61.7999

                     46                     47                     48
                      A                      A                      A
 Frequencies --   3075.6125              3106.8677              3121.4591
 Red. masses --      1.0959                 1.1053                 1.0977
 Frc consts  --      6.1077                 6.2859                 6.3014
 IR Inten    --     34.1001                19.4178                27.3816

                     49                     50                     51
                      A                      A                      A
 Frequencies --   3171.5253              3193.8763              3211.8503
 Red. masses --      1.0911                 1.0905                 1.0983
 Frc consts  --      6.4662                 6.5542                 6.6758
 IR Inten    --     20.7822                16.6268                 9.4870

 - Thermochemistry -
 -------------------
 Temperature   298.150 Kelvin.  Pressure   1.00000 Atm.
 Atom     1 has atomic number  6 and mass  12.00000

 Molecular mass:   126.06808 amu.
 Principal axes and moments of inertia in atomic units:
                           1         2         3
     Eigenvalues --   549.037741190.118941381.20839
           X            0.99917   0.03219   0.02509
           Y           -0.03147   0.99909  -0.02878
           Z           -0.02599   0.02797   0.99927
 This molecule is an asymmetric top.
 Rotational symmetry number  1.
 Warning -- assumption of classical behavior for rotation
           may cause significant error
 Rotational temperatures (Kelvin)      0.15776     0.07278     0.06271
 Rotational constants (GHZ):           3.28710     1.51644     1.30664
 Zero-point vibrational energy     419761.4 (Joules/Mol)
                                  100.32538 (Kcal/Mol)
 Warning -- explicit consideration of   9 degrees of freedom as
           vibrations may cause significant error
 Vibrational temperatures:    141.69   262.95   294.82   334.96   497.31
          (Kelvin)            544.36   616.49   706.06   859.78   932.02
                             1036.04  1089.38  1137.25  1215.22  1296.69
                             1333.37  1371.65  1405.17  1458.70  1468.95
                             1486.63  1536.88  1554.32  1594.84  1626.22
                             1660.09  1700.28  1721.86  1727.03  1754.43
                             1781.30  1814.04  1844.49  1885.65  1976.85
                             2019.97  2128.09  2140.54  2148.13  2168.49
                             2178.80  4296.12  4304.46  4373.29  4379.82
                             4425.11  4470.08  4491.08  4563.11  4595.27
                             4621.13

 Zero-point correction=                           0.159879 (Hartree/Particle)
 Thermal correction to Energy=                    0.167521
 Thermal correction to Enthalpy=                  0.168465
 Thermal correction to Gibbs Free Energy=         0.127898
 Sum of electronic and zero-point Energies=           -422.978432
 Sum of electronic and thermal Energies=              -422.970790
 Sum of electronic and thermal Enthalpies=            -422.969846
 Sum of electronic and thermal Free Energies=         -423.010413

                     E (Thermal)             CV                S
                      KCal/Mol        Cal/Mol-Kelvin    Cal/Mol-Kelvin
 Total                  105.121             30.209             85.380
 Electronic               0.000              0.000              0.000
 Translational            0.889              2.981             40.409
 Rotational               0.889              2.981             28.292
 Vibrational            103.344             24.247             16.679
 Vibration     1          0.604              1.950              3.484
 Vibration     2          0.630              1.863              2.300
 Vibration     3          0.640              1.833              2.089
 Vibration     4          0.654              1.791              1.857
 Vibration     5          0.724              1.584              1.186
 Vibration     6          0.749              1.516              1.046
 Vibration     7          0.790              1.408              0.864
 Vibration     8          0.847              1.271              0.682
 Vibration     9          0.955              1.037              0.454

 Optimization completed.
    -- Stationary point found.
 Normal termination of Gaussian 09 at Tue Jan 28 10:45:16 2020.
