 Gaussian 09, Revision D.01,
 Gaussian 09:  ES64L-G09RevD.01 24-Apr-2013

 -----------------------------
 # b3lyp 6-31G(2df,p) opt Freq
 -----------------------------

 -----
 titel
 -----
 Symbolic Z-matrix:
 Charge =  0 Multiplicity = 1

 SCF Done:  E(RB3LYP) =  -423.214576263     A.U. after   14 cycles
 Optimization completed.
    -- Stationary point found.
 Normal termination of Gaussian 09 at Mon Jan 27 11:18:05 2020.

 ----------------------------------------------------------------------
 #N Geom=AllCheck Guess=TCheck SCRF=Check GenChk RB3LYP/6-31G(2df,p) Fr
 eq
 ----------------------------------------------------------------------

 Structure from the checkpoint file:  "/scratch/puck/g09_e5f3ec6b-5296-462e-8a39-599a2e3ee8f7/Gau-70227.chk"
 -----
 titel
 -----
 Charge =  0 Multiplicity = 1

                         Standard orientation:
 ---------------------------------------------------------------------
 Center     Atomic      Atomic             Coordinates (Angstroms)
 Number     Number       Type             X           Y           Z
 ---------------------------------------------------------------------
      1          6           0        2.612980   -1.037454    0.065584
      2          6           0        1.795346    0.242339    0.015674
      3          8           0        2.340725    1.327753    0.009180
      4          6           0        0.302286    0.114293   -0.029145
      5          6           0       -0.442729    1.226093   -0.080575
      6          6           0       -1.940727    1.194265   -0.076815
      7          6           0       -2.435530   -0.191505    0.343446
      8          8           0       -1.731060   -1.205956   -0.351284
      9          6           0       -0.359163   -1.248044   -0.012792
     10          1           0        3.666861   -0.784457    0.182623
     11          1           0        2.292651   -1.682579    0.891315
     12          1           0        2.480735   -1.612523   -0.858355
     13          1           0        0.069024    2.183768   -0.117568
     14          1           0       -2.336181    1.963078    0.599271
     15          1           0       -2.317970    1.447117   -1.077708
     16          1           0       -2.313640   -0.317284    1.432034
     17          1           0       -3.492635   -0.332209    0.103533
     18          1           0       -0.224688   -1.723419    0.976809
     19          1           0        0.103733   -1.915800   -0.747387
 ---------------------------------------------------------------------

 SCF Done:  E(RB3LYP) =  -423.214576263     A.U. after    1 cycles

 The electronic state is 1-A.
 Alpha  occ. eigenvalues --  -19.14595 -19.12152 -10.26806 -10.24010 -10.23501
 Alpha  occ. eigenvalues --  -10.20010 -10.19658 -10.19281 -10.18856  -1.04203
 Alpha  occ. eigenvalues --   -1.03219  -0.81645  -0.78129  -0.73706  -0.66495
 Alpha  occ. eigenvalues --   -0.64617  -0.57026  -0.52316  -0.49857  -0.48451
 Alpha  occ. eigenvalues --   -0.46794  -0.44625  -0.43442  -0.42591  -0.41254
 Alpha  occ. eigenvalues --   -0.40049  -0.39355  -0.38278  -0.36345  -0.35745
 Alpha  occ. eigenvalues --   -0.31433  -0.26270  -0.25568  -0.24349
 Alpha virt. eigenvalues --   -0.04778   0.06424   0.08290   0.09701   0.11614
 Alpha virt. eigenvalues --    0.12247   0.13887   0.14546   0.15853   0.16768
 Alpha virt. eigenvalues --    0.17979   0.18802   0.20524   0.21626   0.22473

 Mulliken charges:
               1
     1  C   -0.493496
     2  C    0.322853
     3  O   -0.308707
     4  C    0.140936
     5  C   -0.101856
     6  C   -0.264137
     7  C   -0.084350
     8  O   -0.244454
     9  C   -0.177072
    10  H    0.142539
    11  H    0.136426
    12  H    0.143244
    13  H    0.122771
    14  H    0.114018
    15  H    0.127476
    16  H    0.092649
    17  H    0.111701
    18  H    0.099847
    19  H    0.119614
 Sum of Mulliken charges =   0.00000

 Dipole moment (field-independent basis, Debye):
    X=             -1.4627    Y=             -1.1127    Z=              0.6416  Tot=              1.9466
 Quadrupole moment (field-independent basis, Debye-Ang):
   XX=            -54.7806   YY=            -55.0896   ZZ=            -52.7429
   XY=             -9.9781   XZ=             -1.5203   YZ=             -0.8559

  Exact polarizability: 101.660  -9.968  82.747   0.014  -1.341  54.974
 Approx polarizability: 136.353 -12.116 130.221   2.181  -0.749  87.344

                      1                      2                      3
                      A                      A                      A
 Frequencies --     55.1131               113.0077               158.1697
 Red. masses --      3.6909                 2.8632                 1.0577
 Frc consts  --      0.0066                 0.0215                 0.0156
 IR Inten    --      5.0219                 1.6100                 0.1349

                      4                      5                      6
                      A                      A                      A
 Frequencies --    206.6630               227.1882               306.8904
 Red. masses --      3.5344                 2.2425                 2.6825
 Frc consts  --      0.0889                 0.0682                 0.1489
 IR Inten    --      4.8507                 1.2216                 3.7720

                      7                      8                      9
                      A                      A                      A
 Frequencies --    353.1492               402.0194               436.6355
 Red. masses --      4.0035                 2.1499                 3.9964
 Frc consts  --      0.2942                 0.2047                 0.4489
 IR Inten    --      0.5015                 0.8193                 2.6089

                     10                     11                     12
                      A                      A                      A
 Frequencies --    501.1345               562.4899               596.4410
 Red. masses --      5.4337                 3.6829                 2.2309
 Frc consts  --      0.8040                 0.6865                 0.4676
 IR Inten    --      4.2043                 7.9865                 5.7940

                     13                     14                     15
                      A                      A                      A
 Frequencies --    631.3874               791.4957               883.1458
 Red. masses --      2.7750                 2.0637                 3.1964
 Frc consts  --      0.6518                 0.7617                 1.4688
 IR Inten    --     23.0011                 1.2197                 7.6179

                     16                     17                     18
                      A                      A                      A
 Frequencies --    894.9830               925.6077               958.9630
 Red. masses --      1.6071                 2.2135                 2.1085
 Frc consts  --      0.7585                 1.1173                 1.1424
 IR Inten    --     11.5710                27.1548                16.4804

                     19                     20                     21
                      A                      A                      A
 Frequencies --    981.8539              1021.1727              1044.8565
 Red. masses --      3.1792                 1.7153                 1.9172
 Frc consts  --      1.8058                 1.0539                 1.2332
 IR Inten    --     15.8508                 5.9430                 7.5237

                     22                     23                     24
                      A                      A                      A
 Frequencies --   1051.4454              1074.9661              1102.5690
 Red. masses --      1.9832                 1.7584                 2.0154
 Frc consts  --      1.2918                 1.1972                 1.4435
 IR Inten    --      6.9446                 4.2411                 2.3041

                     25                     26                     27
                      A                      A                      A
 Frequencies --   1138.8871              1225.1120              1251.1287
 Red. masses --      6.1201                 1.2341                 2.0212
 Frc consts  --      4.6770                 1.0913                 1.8641
 IR Inten    --     64.7699                10.2002                69.5927

                     28                     29                     30
                      A                      A                      A
 Frequencies --   1270.6825              1317.8986              1335.3896
 Red. masses --      1.5753                 1.2867                 1.3642
 Frc consts  --      1.4986                 1.3167                 1.4334
 IR Inten    --    119.9559                 5.8752                 0.3754

                     31                     32                     33
                      A                      A                      A
 Frequencies --   1365.1892              1382.4521              1395.1790
 Red. masses --      1.5770                 1.3320                 1.4476
 Frc consts  --      1.7317                 1.4998                 1.6602
 IR Inten    --      2.7120                38.7120                 1.2793

                     34                     35                     36
                      A                      A                      A
 Frequencies --   1421.8153              1458.8883              1462.2280
 Red. masses --      1.3887                 1.0919                 1.0586
 Frc consts  --      1.6540                 1.3692                 1.3335
 IR Inten    --      8.1990                 7.6703                10.3981

                     37                     38                     39
                      A                      A                      A
 Frequencies --   1477.7005              1487.8206              1502.1568
 Red. masses --      1.0501                 1.0792                 1.0970
 Frc consts  --      1.3510                 1.4075                 1.4585
 IR Inten    --      8.9167                 2.3145                 2.2622

                     40                     41                     42
                      A                      A                      A
 Frequencies --   1684.8138              1781.5198              2929.2404
 Red. masses --      7.6440                10.3871                 1.0728
 Frc consts  --     12.7842                19.4234                 5.4235
 IR Inten    --    119.6507               105.6542                52.9920

                     43                     44                     45
                      A                      A                      A
 Frequencies --   2971.4663              3013.4974              3034.2690
 Red. masses --      1.0713                 1.0627                 1.0384
 Frc consts  --      5.5729                 5.6861                 5.6330
 IR Inten    --     54.3185                20.4367                 3.1967

                     46                     47                     48
                      A                      A                      A
 Frequencies --   3049.8698              3062.7554              3094.0889
 Red. masses --      1.0966                 1.0859                 1.0968
 Frc consts  --      6.0099                 6.0016                 6.1866
 IR Inten    --     25.6501                22.7103                14.2135

                     49                     50                     51
                      A                      A                      A
 Frequencies --   3094.2758              3154.9863              3178.1683
 Red. masses --      1.0947                 1.1009                 1.0892
 Frc consts  --      6.1753                 6.4562                 6.4823
 IR Inten    --     32.3540                 9.8625                 1.5080

 - Thermochemistry -
 -------------------
 Temperature   298.150 Kelvin.  Pressure   1.00000 Atm.
 Atom     1 has atomic number  6 and mass  12.00000

 Molecular mass:   126.06808 amu.
 Principal axes and moments of inertia in atomic units:
                           1         2         3
     Eigenvalues --   545.132681580.026302051.69937
           X            0.99841  -0.05622  -0.00501
           Y            0.05616   0.99835  -0.01183
           Z            0.00566   0.01153   0.99992
 This molecule is an asymmetric top.
 Rotational symmetry number  1.
 Warning -- assumption of classical behavior for rotation
           may cause significant error
 Rotational temperatures (Kelvin)      0.15889     0.05482     0.04222
 Rotational constants (GHZ):           3.31065     1.14222     0.87963
 Zero-point vibrational energy     417633.2 (Joules/Mol)
                                   99.81674 (Kcal/Mol)
 Warning -- explicit consideration of  12 degrees of freedom as
           vibrations may cause significant error
 Vibrational temperatures:     79.30   162.59   227.57   297.34   326.87
          (Kelvin)            441.55   508.10   578.42   628.22   721.02
                              809.30   858.14   908.42  1138.78  1270.65
                             1287.68  1331.74  1379.73  1412.67  1469.24
                             1503.31  1512.79  1546.63  1586.35  1638.60
                             1762.66  1800.09  1828.23  1896.16  1921.33
                             1964.20  1989.04  2007.35  2045.67  2099.01
                             2103.82  2126.08  2140.64  2161.27  2424.07
                             2563.21  4214.52  4275.27  4335.75  4365.63
                             4388.08  4406.62  4451.70  4451.97  4539.32
                             4572.67

 Zero-point correction=                           0.159068 (Hartree/Particle)
 Thermal correction to Energy=                    0.167814
 Thermal correction to Enthalpy=                  0.168758
 Thermal correction to Gibbs Free Energy=         0.125201
 Sum of electronic and zero-point Energies=           -423.055508
 Sum of electronic and thermal Energies=              -423.046763
 Sum of electronic and thermal Enthalpies=            -423.045819
 Sum of electronic and thermal Free Energies=         -423.089376

                     E (Thermal)             CV                S
                      KCal/Mol        Cal/Mol-Kelvin    Cal/Mol-Kelvin
 Total                  105.305             32.378             91.673
 Electronic               0.000              0.000              0.000
 Translational            0.889              2.981             40.409
 Rotational               0.889              2.981             28.959
 Vibrational            103.527             26.416             22.306
 Vibration     1          0.596              1.976              4.625
 Vibration     2          0.607              1.939              3.217
 Vibration     3          0.621              1.893              2.572
 Vibration     4          0.641              1.830              2.073
 Vibration     5          0.651              1.800              1.901
 Vibration     6          0.697              1.661              1.379
 Vibration     7          0.729              1.569              1.152
 Vibration     8          0.768              1.466              0.955
 Vibration     9          0.797              1.390              0.837
 Vibration    10          0.857              1.247              0.655
 Vibration    11          0.918              1.112              0.519
 Vibration    12          0.954              1.039              0.456

 Optimization completed.
    -- Stationary point found.
 Normal termination of Gaussian 09 at Mon Jan 27 12:02:44 2020.
