 Gaussian 09, Revision D.01,
 Gaussian 09:  ES64L-G09RevD.01 24-Apr-2013

 -----------------------------
 # b3lyp 6-31G(2df,p) opt Freq
 -----------------------------

 -----
 titel
 -----
 Symbolic Z-matrix:
 Charge =  0 Multiplicity = 1

 SCF Done:  E(RB3LYP) =  -423.251267845     A.U. after   14 cycles
 Optimization completed.
    -- Stationary point found.
 Normal termination of Gaussian 09 at Tue Jan 28 00:05:22 2020.

 ----------------------------------------------------------------------
 #N Geom=AllCheck Guess=TCheck SCRF=Check GenChk RB3LYP/6-31G(2df,p) Fr
 eq
 ----------------------------------------------------------------------

 Structure from the checkpoint file:  "/scratch/puck/g09_ba20c40d-0e52-4dd8-abf2-3ae3eea62ebd/Gau-82510.chk"
 -----
 titel
 -----
 Charge =  0 Multiplicity = 1

                         Standard orientation:
 ---------------------------------------------------------------------
 Center     Atomic      Atomic             Coordinates (Angstroms)
 Number     Number       Type             X           Y           Z
 ---------------------------------------------------------------------
      1          6           0        2.257024   -0.702549    0.208739
      2          6           0        0.758934   -0.951186    0.353697
      3          6           0       -0.080145   -0.839403   -0.935938
      4          6           0       -1.513198   -1.117332   -0.452225
      5          6           0       -1.514048   -0.419290    0.945782
      6          6           0       -0.070394    0.162195    1.036444
      7          6           0       -0.010012    1.242550   -0.038977
      8          8           0        0.000567    2.434810    0.049234
      9          8           0       -0.010891    0.581394   -1.241227
     10          1           0        2.739703   -0.661023    1.190151
     11          1           0        2.730528   -1.509015   -0.360445
     12          1           0        2.465268    0.238484   -0.308296
     13          1           0        0.584263   -1.918471    0.837715
     14          1           0        0.256869   -1.385705   -1.816021
     15          1           0       -2.243070   -0.689989   -1.142546
     16          1           0       -1.703382   -2.191489   -0.378099
     17          1           0       -2.276396    0.357452    1.034650
     18          1           0       -1.674807   -1.136379    1.754925
     19          1           0        0.234653    0.516602    2.018780
 ---------------------------------------------------------------------

 SCF Done:  E(RB3LYP) =  -423.251267845     A.U. after    1 cycles

 The electronic state is 1-A.
 Alpha  occ. eigenvalues --  -19.17339 -19.11928 -10.29602 -10.24983 -10.20713
 Alpha  occ. eigenvalues --  -10.20566 -10.20217 -10.19709 -10.18649  -1.09463
 Alpha  occ. eigenvalues --   -1.01755  -0.85542  -0.76379  -0.74188  -0.67515
 Alpha  occ. eigenvalues --   -0.61351  -0.59684  -0.54083  -0.50977  -0.49212
 Alpha  occ. eigenvalues --   -0.47920  -0.43750  -0.42782  -0.41682  -0.39853
 Alpha  occ. eigenvalues --   -0.39554  -0.37697  -0.36899  -0.36451  -0.34664
 Alpha  occ. eigenvalues --   -0.34059  -0.32721  -0.28555  -0.25733
 Alpha virt. eigenvalues --    0.01755   0.07042   0.10479   0.11494   0.12353
 Alpha virt. eigenvalues --    0.13184   0.14055   0.14643   0.15537   0.16262
 Alpha virt. eigenvalues --    0.16974   0.18316   0.19258   0.20712   0.21687

 Mulliken charges:
               1
     1  C   -0.433661
     2  C    0.012943
     3  C    0.095610
     4  C   -0.225897
     5  C   -0.237356
     6  C   -0.163346
     7  C    0.442044
     8  O   -0.354015
     9  O   -0.245370
    10  H    0.122833
    11  H    0.119774
    12  H    0.144563
    13  H    0.078848
    14  H    0.087452
    15  H    0.121937
    16  H    0.107433
    17  H    0.125596
    18  H    0.110262
    19  H    0.090351
 Sum of Mulliken charges =   0.00000

 Dipole moment (field-independent basis, Debye):
    X=             -0.1894    Y=             -4.2688    Z=              1.0471  Tot=              4.3995
 Quadrupole moment (field-independent basis, Debye-Ang):
   XX=            -50.5598   YY=            -60.5904   ZZ=            -52.7761
   XY=             -0.1135   XZ=              0.0308   YZ=              1.6006

  Exact polarizability:  74.925   0.698  78.630  -0.262   2.907  67.719
 Approx polarizability:  99.304   1.245 123.826  -0.576   4.580 104.376

                      1                      2                      3
                      A                      A                      A
 Frequencies --    138.7670               198.8164               229.5183
 Red. masses --      5.6031                 1.0373                 2.5005
 Frc consts  --      0.0636                 0.0242                 0.0776
 IR Inten    --      1.7428                 0.1494                 0.9593

                      4                      5                      6
                      A                      A                      A
 Frequencies --    242.9030               283.4695               404.9064
 Red. masses --      2.2592                 2.5714                 3.3674
 Frc consts  --      0.0785                 0.1217                 0.3253
 IR Inten    --      0.1892                 0.9391                 2.5237

                      7                      8                      9
                      A                      A                      A
 Frequencies --    473.6137               528.1504               601.3661
 Red. masses --      5.5735                 3.6736                 5.3755
 Frc consts  --      0.7366                 0.6038                 1.1454
 IR Inten    --      2.7524                 1.0800                 1.8393

                     10                     11                     12
                      A                      A                      A
 Frequencies --    706.9070               730.6016               784.6859
 Red. masses --      3.9632                 4.7475                 2.2998
 Frc consts  --      1.1669                 1.4930                 0.8343
 IR Inten    --      1.7867                 1.3422                 3.7235

                     13                     14                     15
                      A                      A                      A
 Frequencies --    810.9958               858.6605               894.6354
 Red. masses --      2.2992                 1.9584                 2.8732
 Frc consts  --      0.8910                 0.8507                 1.3549
 IR Inten    --      3.7995                 6.6581                 1.0066

                     16                     17                     18
                      A                      A                      A
 Frequencies --    899.5455               918.6146               954.1148
 Red. masses --      2.2533                 4.1318                 1.8626
 Frc consts  --      1.0743                 2.0543                 0.9990
 IR Inten    --      6.6689                21.5843                 6.2519

                     19                     20                     21
                      A                      A                      A
 Frequencies --    976.6889               990.7493              1030.8877
 Red. masses --      3.8104                 2.7102                 1.7337
 Frc consts  --      2.1416                 1.5674                 1.0855
 IR Inten    --     57.2439                 7.0801                12.1276

                     22                     23                     24
                      A                      A                      A
 Frequencies --   1052.1248              1086.4974              1102.7166
 Red. masses --      1.4613                 1.8927                 1.5306
 Frc consts  --      0.9530                 1.3164                 1.0966
 IR Inten    --      6.1017                51.7268                 1.3593

                     25                     26                     27
                      A                      A                      A
 Frequencies --   1137.8060              1179.6185              1201.5976
 Red. masses --      1.7659                 1.6048                 1.9242
 Frc consts  --      1.3470                 1.3157                 1.6369
 IR Inten    --     21.1658                18.5967                25.6102

                     28                     29                     30
                      A                      A                      A
 Frequencies --   1213.6024              1252.6766              1260.7184
 Red. masses --      1.6195                 1.2911                 1.4517
 Frc consts  --      1.4054                 1.1937                 1.3594
 IR Inten    --      1.1953                 1.4595                 2.1632

                     31                     32                     33
                      A                      A                      A
 Frequencies --   1306.9381              1324.8089              1327.0202
 Red. masses --      1.5865                 1.4478                 1.4726
 Frc consts  --      1.5966                 1.4971                 1.5278
 IR Inten    --      3.1621                 0.2836                 1.1267

                     34                     35                     36
                      A                      A                      A
 Frequencies --   1363.3998              1394.5667              1418.2774
 Red. masses --      1.5134                 1.5581                 1.2524
 Frc consts  --      1.6575                 1.7853                 1.4842
 IR Inten    --     21.9536                 5.0593                 2.5059

                     37                     38                     39
                      A                      A                      A
 Frequencies --   1484.4125              1495.8064              1501.7736
 Red. masses --      1.0806                 1.0476                 1.0523
 Frc consts  --      1.4029                 1.3810                 1.3982
 IR Inten    --      1.2915                 2.6031                 3.7810

                     40                     41                     42
                      A                      A                      A
 Frequencies --   1506.5580              1891.6651              3039.3687
 Red. masses --      1.0944                12.5532                 1.0371
 Frc consts  --      1.4635                26.4663                 5.6444
 IR Inten    --      4.2961               376.6158                22.3410

                     43                     44                     45
                      A                      A                      A
 Frequencies --   3047.5470              3063.0225              3072.2826
 Red. masses --      1.0834                 1.0614                 1.0617
 Frc consts  --      5.9283                 5.8670                 5.9042
 IR Inten    --     16.2261                19.4556                34.0038

                     46                     47                     48
                      A                      A                      A
 Frequencies --   3103.7746              3107.9546              3117.5501
 Red. masses --      1.1013                 1.1051                 1.1011
 Frc consts  --      6.2510                 6.2893                 6.3054
 IR Inten    --     16.6888                 1.9594                14.6924

                     49                     50                     51
                      A                      A                      A
 Frequencies --   3126.1619              3131.3625              3146.1685
 Red. masses --      1.1051                 1.0900                 1.0899
 Frc consts  --      6.3630                 6.2974                 6.3560
 IR Inten    --     28.8288                33.8505                 9.6977

 - Thermochemistry -
 -------------------
 Temperature   298.150 Kelvin.  Pressure   1.00000 Atm.
 Atom     1 has atomic number  6 and mass  12.00000

 Molecular mass:   126.06808 amu.
 Principal axes and moments of inertia in atomic units:
                           1         2         3
     Eigenvalues --   855.36627 910.639881204.16420
           X            0.02575   0.99967  -0.00067
           Y            0.99956  -0.02573   0.01463
           Z           -0.01461   0.00105   0.99989
 This molecule is an asymmetric top.
 Rotational symmetry number  1.
 Warning -- assumption of classical behavior for rotation
           may cause significant error
 Rotational temperatures (Kelvin)      0.10126     0.09511     0.07193
 Rotational constants (GHZ):           2.10990     1.98184     1.49875
 Zero-point vibrational energy     425370.4 (Joules/Mol)
                                  101.66596 (Kcal/Mol)
 Warning -- explicit consideration of   9 degrees of freedom as
           vibrations may cause significant error
 Vibrational temperatures:    199.65   286.05   330.23   349.48   407.85
          (Kelvin)            582.57   681.42   759.89   865.23  1017.08
                             1051.17  1128.99  1166.84  1235.42  1287.18
                             1294.24  1321.68  1372.76  1405.24  1425.47
                             1483.22  1513.77  1563.23  1586.56  1637.05
                             1697.21  1728.83  1746.10  1802.32  1813.89
                             1880.39  1906.10  1909.28  1961.63  2006.47
                             2040.58  2135.74  2152.13  2160.71  2167.60
                             2721.68  4372.97  4384.73  4407.00  4420.32
                             4465.63  4471.65  4485.45  4497.84  4505.33
                             4526.63

 Zero-point correction=                           0.162015 (Hartree/Particle)
 Thermal correction to Energy=                    0.169441
 Thermal correction to Enthalpy=                  0.170385
 Thermal correction to Gibbs Free Energy=         0.130388
 Sum of electronic and zero-point Energies=           -423.089253
 Sum of electronic and thermal Energies=              -423.081827
 Sum of electronic and thermal Enthalpies=            -423.080883
 Sum of electronic and thermal Free Energies=         -423.120879

                     E (Thermal)             CV                S
                      KCal/Mol        Cal/Mol-Kelvin    Cal/Mol-Kelvin
 Total                  106.326             29.650             84.180
 Electronic               0.000              0.000              0.000
 Translational            0.889              2.981             40.409
 Rotational               0.889              2.981             28.330
 Vibrational            104.548             23.688             15.442
 Vibration     1          0.614              1.915              2.821
 Vibration     2          0.637              1.842              2.144
 Vibration     3          0.652              1.796              1.883
 Vibration     4          0.659              1.774              1.782
 Vibration     5          0.682              1.704              1.513
 Vibration     6          0.770              1.460              0.945
 Vibration     7          0.830              1.309              0.727
 Vibration     8          0.883              1.188              0.591
 Vibration     9          0.960              1.029              0.447

 Optimization completed.
    -- Stationary point found.
 Normal termination of Gaussian 09 at Tue Jan 28 00:49:16 2020.
