 Gaussian 09, Revision D.01,
 Gaussian 09:  ES64L-G09RevD.01 24-Apr-2013

 -----------------------------
 # b3lyp 6-31G(2df,p) opt Freq
 -----------------------------

 -----
 titel
 -----
 Symbolic Z-matrix:
 Charge =  0 Multiplicity = 1

 SCF Done:  E(RB3LYP) =  -423.228233656     A.U. after   14 cycles
 Optimization completed.
    -- Stationary point found.
 Normal termination of Gaussian 09 at Tue Jan 28 03:54:36 2020.

 ----------------------------------------------------------------------
 #N Geom=AllCheck Guess=TCheck SCRF=Check GenChk RB3LYP/6-31G(2df,p) Fr
 eq
 ----------------------------------------------------------------------

 Structure from the checkpoint file:  "/scratch/puck/g09_8189532a-841c-433e-ae86-cf5fe3998dff/Gau-116266.chk"
 -----
 titel
 -----
 Charge =  0 Multiplicity = 1

                         Standard orientation:
 ---------------------------------------------------------------------
 Center     Atomic      Atomic             Coordinates (Angstroms)
 Number     Number       Type             X           Y           Z
 ---------------------------------------------------------------------
      1          6           0        2.174601   -1.466738   -0.015001
      2          6           0        0.894247   -0.683155   -0.091053
      3          6           0       -0.306682   -1.244326   -0.310342
      4          6           0       -1.607940   -0.486267   -0.382214
      5          8           0       -2.368811   -0.706470    0.812437
      6          6           0       -1.388548    1.001612   -0.678034
      7          6           0       -0.277064    1.589839    0.195943
      8          6           0        1.017088    0.794717    0.096502
      9          8           0        2.106256    1.321467    0.207087
     10          1           0        2.669232   -1.313573    0.949799
     11          1           0        1.995634   -2.535101   -0.157208
     12          1           0        2.881851   -1.120065   -0.775070
     13          1           0       -0.382922   -2.326599   -0.400285
     14          1           0       -2.230456   -0.916703   -1.174548
     15          1           0       -1.776161   -0.594643    1.563292
     16          1           0       -1.116556    1.110034   -1.735078
     17          1           0       -2.331157    1.535461   -0.526799
     18          1           0       -0.058391    2.632319   -0.046779
     19          1           0       -0.584848    1.574793    1.251672
 ---------------------------------------------------------------------

 SCF Done:  E(RB3LYP) =  -423.228233656     A.U. after    1 cycles

 The electronic state is 1-A.
 Alpha  occ. eigenvalues --  -19.14528 -19.12781 -10.26670 -10.24561 -10.20599
 Alpha  occ. eigenvalues --  -10.20474 -10.19400 -10.19192 -10.18456  -1.03723
 Alpha  occ. eigenvalues --   -1.02554  -0.83760  -0.78190  -0.72740  -0.68850
 Alpha  occ. eigenvalues --   -0.61298  -0.60332  -0.52345  -0.49693  -0.47545
 Alpha  occ. eigenvalues --   -0.45756  -0.45310  -0.42781  -0.42073  -0.40619
 Alpha  occ. eigenvalues --   -0.39172  -0.38775  -0.38215  -0.35607  -0.34645
 Alpha  occ. eigenvalues --   -0.33051  -0.28484  -0.26548  -0.24381
 Alpha virt. eigenvalues --   -0.05618   0.05309   0.07010   0.09797   0.11438
 Alpha virt. eigenvalues --    0.12880   0.14068   0.16410   0.16550   0.17018
 Alpha virt. eigenvalues --    0.17716   0.18442   0.20169   0.22244   0.22330

 Mulliken charges:
               1
     1  C   -0.475347
     2  C    0.211337
     3  C   -0.187238
     4  C    0.096398
     5  O   -0.435400
     6  C   -0.240292
     7  C   -0.325856
     8  C    0.327589
     9  O   -0.315949
    10  H    0.139700
    11  H    0.116569
    12  H    0.145735
    13  H    0.103049
    14  H    0.093383
    15  H    0.280841
    16  H    0.107704
    17  H    0.112426
    18  H    0.126289
    19  H    0.119062
 Sum of Mulliken charges =   0.00000

 Dipole moment (field-independent basis, Debye):
    X=             -1.0010    Y=             -1.0739    Z=             -0.2779  Tot=              1.4941
 Quadrupole moment (field-independent basis, Debye-Ang):
   XX=            -63.3015   YY=            -53.1383   ZZ=            -50.1073
   XY=             -6.6107   XZ=              0.9668   YZ=              0.1242

  Exact polarizability:  97.381   3.824  80.828   3.196   2.218  59.124
 Approx polarizability: 152.416  24.037 118.084   5.119   5.069  93.282

                      1                      2                      3
                      A                      A                      A
 Frequencies --     72.6958               131.9393               161.4685
 Red. masses --      5.4759                 1.5825                 1.5740
 Frc consts  --      0.0171                 0.0162                 0.0242
 IR Inten    --      6.0930                 0.1581                 0.4676

                      4                      5                      6
                      A                      A                      A
 Frequencies --    179.3166               280.3006               295.4878
 Red. masses --      2.8961                 1.1266                 2.8155
 Frc consts  --      0.0549                 0.0522                 0.1448
 IR Inten    --      9.0430                59.1209                 9.5316

                      7                      8                      9
                      A                      A                      A
 Frequencies --    326.7538               368.9330               434.8726
 Red. masses --      3.1008                 2.8064                 3.2908
 Frc consts  --      0.1951                 0.2251                 0.3667
 IR Inten    --     10.0277                 8.0246                 4.9605

                     10                     11                     12
                      A                      A                      A
 Frequencies --    472.8292               486.6639               546.9879
 Red. masses --      3.2689                 3.5479                 4.0477
 Frc consts  --      0.4306                 0.4951                 0.7135
 IR Inten    --      5.4718                 1.3774                 3.5340

                     13                     14                     15
                      A                      A                      A
 Frequencies --    665.4968               686.4964               743.2117
 Red. masses --      2.3736                 4.1384                 2.6258
 Frc consts  --      0.6194                 1.1491                 0.8546
 IR Inten    --      0.6889                 4.4433                 2.1964

                     16                     17                     18
                      A                      A                      A
 Frequencies --    824.2373               884.9030               908.2003
 Red. masses --      2.8696                 2.2911                 1.5244
 Frc consts  --      1.1486                 1.0570                 0.7408
 IR Inten    --      6.3989                12.3647                 6.0938

                     19                     20                     21
                      A                      A                      A
 Frequencies --    961.9037               973.1364              1041.3155
 Red. masses --      2.3350                 2.1595                 1.6743
 Frc consts  --      1.2729                 1.2049                 1.0697
 IR Inten    --     33.3321                24.1140                 6.0255

                     22                     23                     24
                      A                      A                      A
 Frequencies --   1059.9486              1075.4501              1100.1830
 Red. masses --      1.8346                 1.9999                 2.0579
 Frc consts  --      1.2144                 1.3628                 1.4676
 IR Inten    --     22.2170                41.0467                12.6473

                     25                     26                     27
                      A                      A                      A
 Frequencies --   1134.3336              1179.4712              1187.3407
 Red. masses --      1.8416                 1.3236                 2.0431
 Frc consts  --      1.3961                 1.0849                 1.6970
 IR Inten    --     18.6772                28.9197                16.4446

                     28                     29                     30
                      A                      A                      A
 Frequencies --   1259.5168              1271.0225              1340.0280
 Red. masses --      1.3993                 1.5514                 1.3916
 Frc consts  --      1.3079                 1.4766                 1.4723
 IR Inten    --     14.2972                 8.7885                 1.7566

                     31                     32                     33
                      A                      A                      A
 Frequencies --   1365.7086              1377.6431              1388.1449
 Red. masses --      1.9726                 1.8094                 1.4724
 Frc consts  --      2.1678                 2.0233                 1.6716
 IR Inten    --      8.8691                24.2498                 7.2749

                     34                     35                     36
                      A                      A                      A
 Frequencies --   1413.4551              1419.8634              1466.1870
 Red. masses --      1.2672                 1.2144                 1.0802
 Frc consts  --      1.4917                 1.4425                 1.3682
 IR Inten    --      1.6357                66.6779                10.1741

                     37                     38                     39
                      A                      A                      A
 Frequencies --   1470.0135              1481.2778              1484.3787
 Red. masses --      1.0453                 1.0794                 1.0791
 Frc consts  --      1.3308                 1.3954                 1.4009
 IR Inten    --      4.6701                 2.4524                15.8441

                     40                     41                     42
                      A                      A                      A
 Frequencies --   1698.0792              1774.8004              3013.8689
 Red. masses --      7.2440                12.1035                 1.0698
 Frc consts  --     12.3068                22.4625                 5.7254
 IR Inten    --      5.0083               191.1721                 7.9974

                     43                     44                     45
                      A                      A                      A
 Frequencies --   3034.4288              3041.8610              3050.3993
 Red. masses --      1.0670                 1.0355                 1.0806
 Frc consts  --      5.7885                 5.6452                 5.9242
 IR Inten    --     10.7166                15.0073                47.3181

                     46                     47                     48
                      A                      A                      A
 Frequencies --   3091.9087              3098.7903              3104.4349
 Red. masses --      1.1000                 1.0984                 1.0921
 Frc consts  --      6.1961                 6.2146                 6.2013
 IR Inten    --     22.2782                 9.1713                12.8482

                     49                     50                     51
                      A                      A                      A
 Frequencies --   3126.3434              3144.4510              3811.5403
 Red. masses --      1.1031                 1.0897                 1.0663
 Frc consts  --      6.3526                 6.3481                 9.1269
 IR Inten    --     10.8906                19.7029                13.2179

 - Thermochemistry -
 -------------------
 Temperature   298.150 Kelvin.  Pressure   1.00000 Atm.
 Atom     1 has atomic number  6 and mass  12.00000

 Molecular mass:   126.06808 amu.
 Principal axes and moments of inertia in atomic units:
                           1         2         3
     Eigenvalues --   705.469741294.739021780.48057
           X            0.99657  -0.08241   0.00797
           Y            0.08241   0.99660   0.00084
           Z           -0.00801  -0.00018   0.99997
 This molecule is an asymmetric top.
 Rotational symmetry number  1.
 Warning -- assumption of classical behavior for rotation
           may cause significant error
 Rotational temperatures (Kelvin)      0.12277     0.06690     0.04865
 Rotational constants (GHZ):           2.55821     1.39390     1.01363
 Zero-point vibrational energy     418166.8 (Joules/Mol)
                                   99.94425 (Kcal/Mol)
 Warning -- explicit consideration of  12 degrees of freedom as
           vibrations may cause significant error
 Vibrational temperatures:    104.59   189.83   232.32   258.00   403.29
          (Kelvin)            425.14   470.13   530.81   625.68   680.29
                              700.20   786.99   957.50   987.71  1069.31
                             1185.89  1273.18  1306.70  1383.96  1400.12
                             1498.22  1525.03  1547.33  1582.92  1632.05
                             1696.99  1708.32  1812.16  1828.72  1928.00
                             1964.95  1982.12  1997.23  2033.64  2042.86
                             2109.51  2115.02  2131.23  2135.69  2443.15
                             2553.54  4336.28  4365.86  4376.55  4388.84
                             4448.56  4458.46  4466.58  4498.11  4524.16
                             5483.95

 Zero-point correction=                           0.159271 (Hartree/Particle)
 Thermal correction to Energy=                    0.168209
 Thermal correction to Enthalpy=                  0.169153
 Thermal correction to Gibbs Free Energy=         0.125639
 Sum of electronic and zero-point Energies=           -423.068962
 Sum of electronic and thermal Energies=              -423.060025
 Sum of electronic and thermal Enthalpies=            -423.059081
 Sum of electronic and thermal Free Energies=         -423.102595

                     E (Thermal)             CV                S
                      KCal/Mol        Cal/Mol-Kelvin    Cal/Mol-Kelvin
 Total                  105.553             33.552             91.583
 Electronic               0.000              0.000              0.000
 Translational            0.889              2.981             40.409
 Rotational               0.889              2.981             28.877
 Vibrational            103.775             27.590             22.297
 Vibration     1          0.599              1.967              4.079
 Vibration     2          0.612              1.921              2.918
 Vibration     3          0.622              1.890              2.533
 Vibration     4          0.629              1.868              2.336
 Vibration     5          0.680              1.710              1.532
 Vibration     6          0.690              1.682              1.442
 Vibration     7          0.710              1.622              1.276
 Vibration     8          0.741              1.536              1.084
 Vibration     9          0.795              1.394              0.843
 Vibration    10          0.830              1.310              0.730
 Vibration    11          0.843              1.280              0.692
 Vibration    12          0.902              1.146              0.550

 Normal termination of Gaussian 09 at Tue Jan 28 04:35:08 2020.
