 Gaussian 09, Revision D.01,
 Gaussian 09:  ES64L-G09RevD.01 24-Apr-2013

 -----------------------------
 # b3lyp 6-31G(2df,p) opt Freq
 -----------------------------

 -----
 titel
 -----
 Symbolic Z-matrix:
 Charge =  0 Multiplicity = 1

 SCF Done:  E(RB3LYP) =  -423.229771155     A.U. after   14 cycles
 Optimization completed.
    -- Stationary point found.
 Normal termination of Gaussian 09 at Mon Jan 27 16:38:04 2020.

 ----------------------------------------------------------------------
 #N Geom=AllCheck Guess=TCheck SCRF=Check GenChk RB3LYP/6-31G(2df,p) Fr
 eq
 ----------------------------------------------------------------------

 Structure from the checkpoint file:  "/scratch/puck/g09_1c092cb1-3ae6-41d7-bf17-67aa1ccca7c4/Gau-84589.chk"
 -----
 titel
 -----
 Charge =  0 Multiplicity = 1

                         Standard orientation:
 ---------------------------------------------------------------------
 Center     Atomic      Atomic             Coordinates (Angstroms)
 Number     Number       Type             X           Y           Z
 ---------------------------------------------------------------------
      1          6           0       -0.528451    2.248966   -0.141661
      2          6           0       -0.180410    0.767986   -0.013690
      3          6           0       -0.698195   -0.094215   -1.198319
      4          6           0       -1.348715   -1.354353   -0.577923
      5          6           0       -1.434257   -1.017920    0.886983
      6          6           0       -0.792144    0.105580    1.196158
      7          8           0        1.295771    0.805039    0.097293
      8          6           0        2.024657   -0.311846    0.094020
      9          8           0        1.648223   -1.444391   -0.046927
     10          1           0       -0.091440    2.669784   -1.052368
     11          1           0       -1.613806    2.372380   -0.183126
     12          1           0       -0.145011    2.811600    0.714195
     13          1           0       -1.446867    0.488191   -1.743543
     14          1           0        0.100927   -0.331799   -1.900900
     15          1           0       -2.331469   -1.567916   -1.013464
     16          1           0       -0.728065   -2.244957   -0.722784
     17          1           0       -1.944482   -1.655717    1.601098
     18          1           0       -0.687609    0.535054    2.186299
     19          1           0        3.080958   -0.026994    0.238261
 ---------------------------------------------------------------------

 SCF Done:  E(RB3LYP) =  -423.229771155     A.U. after    1 cycles

 The electronic state is 1-A.
 Alpha  occ. eigenvalues --  -19.17861 -19.12619 -10.30180 -10.25351 -10.18757
 Alpha  occ. eigenvalues --  -10.18355 -10.18139 -10.18114 -10.17867  -1.09244
 Alpha  occ. eigenvalues --   -1.01369  -0.84816  -0.75992  -0.71427  -0.66204
 Alpha  occ. eigenvalues --   -0.63372  -0.56046  -0.52761  -0.51627  -0.47271
 Alpha  occ. eigenvalues --   -0.46513  -0.45087  -0.44138  -0.41456  -0.39359
 Alpha  occ. eigenvalues --   -0.38742  -0.37176  -0.35418  -0.34751  -0.34568
 Alpha  occ. eigenvalues --   -0.32888  -0.29441  -0.27451  -0.25000
 Alpha virt. eigenvalues --    0.01214   0.01641   0.09706   0.10886   0.12491
 Alpha virt. eigenvalues --    0.13260   0.14190   0.15679   0.16253   0.17343
 Alpha virt. eigenvalues --    0.17826   0.18796   0.20635   0.21369   0.21505

 Mulliken charges:
               1
     1  C   -0.430061
     2  C    0.374370
     3  C   -0.262958
     4  C   -0.251325
     5  C   -0.046040
     6  C   -0.113786
     7  O   -0.261727
     8  C    0.181784
     9  O   -0.313254
    10  H    0.123855
    11  H    0.122659
    12  H    0.123333
    13  H    0.101706
    14  H    0.119828
    15  H    0.098988
    16  H    0.136879
    17  H    0.100082
    18  H    0.094585
    19  H    0.101083
 Sum of Mulliken charges =   0.00000

 Dipole moment (field-independent basis, Debye):
    X=             -1.0810    Y=              1.4110    Z=              0.0007  Tot=              1.7775
 Quadrupole moment (field-independent basis, Debye-Ang):
   XX=            -51.0952   YY=            -55.7033   ZZ=            -51.0547
   XY=              2.9929   XZ=              0.2224   YZ=             -0.1991

  Exact polarizability:  79.038   6.679  83.832   1.114   2.375  67.299
 Approx polarizability: 110.933  14.401 133.635   2.821   7.665  98.785

                      1                      2                      3
                      A                      A                      A
 Frequencies --     95.3652               130.9537               192.5948
 Red. masses --      6.3056                 2.7855                 3.4521
 Frc consts  --      0.0338                 0.0281                 0.0754
 IR Inten    --      1.4709                 0.4717                 3.7806

                      4                      5                      6
                      A                      A                      A
 Frequencies --    221.9712               250.6026               287.8190
 Red. masses --      2.7439                 1.0678                 2.3029
 Frc consts  --      0.0797                 0.0395                 0.1124
 IR Inten    --      4.7770                 0.2185                 6.7056

                      7                      8                      9
                      A                      A                      A
 Frequencies --    322.4261               350.1720               446.3380
 Red. masses --      3.7434                 2.0662                 3.2242
 Frc consts  --      0.2293                 0.1493                 0.3784
 IR Inten    --      4.8640                 0.6013                 6.3179

                     10                     11                     12
                      A                      A                      A
 Frequencies --    500.7991               580.8348               689.6101
 Red. masses --      2.4609                 4.2237                 1.9945
 Frc consts  --      0.3636                 0.8396                 0.5588
 IR Inten    --      4.9230                 2.0815                 5.0782

                     13                     14                     15
                      A                      A                      A
 Frequencies --    774.3910               777.3850               820.2459
 Red. masses --      2.8571                 2.2857                 7.1880
 Frc consts  --      1.0095                 0.8138                 2.8494
 IR Inten    --     19.9046                16.7609                18.7281

                     16                     17                     18
                      A                      A                      A
 Frequencies --    837.2888               854.2393               923.3994
 Red. masses --      1.8240                 2.3058                 2.4233
 Frc consts  --      0.7534                 0.9914                 1.2174
 IR Inten    --      3.0067                21.1308                 3.7679

                     19                     20                     21
                      A                      A                      A
 Frequencies --    960.2580               973.4179              1000.8178
 Red. masses --      1.9591                 1.2568                 1.7505
 Frc consts  --      1.0644                 0.7016                 1.0330
 IR Inten    --      1.7343                 0.2923                 5.6551

                     22                     23                     24
                      A                      A                      A
 Frequencies --   1021.7877              1045.2818              1095.4113
 Red. masses --      1.8306                 1.6573                 1.7753
 Frc consts  --      1.1261                 1.0669                 1.2551
 IR Inten    --      0.7469                 0.2121                79.2344

                     25                     26                     27
                      A                      A                      A
 Frequencies --   1117.4951              1181.8608              1211.4783
 Red. masses --      1.1825                 1.8208                 2.4030
 Frc consts  --      0.8700                 1.4985                 2.0779
 IR Inten    --      4.3712                67.0655               114.4923

                     28                     29                     30
                      A                      A                      A
 Frequencies --   1221.8753              1230.9644              1252.7424
 Red. masses --      2.2554                 3.0887                 1.4470
 Frc consts  --      1.9839                 2.7575                 1.3380
 IR Inten    --    101.9638                52.1084                 6.4013

                     31                     32                     33
                      A                      A                      A
 Frequencies --   1313.3845              1329.8658              1387.0002
 Red. masses --      1.3761                 1.5899                 1.7568
 Frc consts  --      1.3985                 1.6566                 1.9913
 IR Inten    --      2.7018                 0.7930                12.2185

                     34                     35                     36
                      A                      A                      A
 Frequencies --   1407.5280              1418.3399              1467.5473
 Red. masses --      1.2570                 1.1377                 1.0843
 Frc consts  --      1.4673                 1.3485                 1.3759
 IR Inten    --      3.2373                 1.1653                 2.1742

                     37                     38                     39
                      A                      A                      A
 Frequencies --   1483.8753              1487.4059              1494.3734
 Red. masses --      1.0560                 1.0887                 1.0547
 Frc consts  --      1.3699                 1.4191                 1.3877
 IR Inten    --      6.0755                 5.9774                 3.0536

                     40                     41                     42
                      A                      A                      A
 Frequencies --   1688.8962              1812.4628              2999.2429
 Red. masses --      6.5449                 9.8813                 1.0881
 Frc consts  --     10.9991                19.1250                 5.7667
 IR Inten    --      4.1165               226.3773                92.1275

                     43                     44                     45
                      A                      A                      A
 Frequencies --   3039.7171              3041.9425              3061.9302
 Red. masses --      1.0610                 1.0358                 1.0709
 Frc consts  --      5.7760                 5.6470                 5.9152
 IR Inten    --     24.5192                20.0633                17.6131

                     46                     47                     48
                      A                      A                      A
 Frequencies --   3078.9843              3115.8238              3124.4714
 Red. masses --      1.0962                 1.1020                 1.1012
 Frc consts  --      6.1229                 6.3037                 6.3341
 IR Inten    --     17.5309                17.9275                11.6947

                     49                     50                     51
                      A                      A                      A
 Frequencies --   3130.4599              3181.6801              3207.0236
 Red. masses --      1.0985                 1.0845                 1.1043
 Frc consts  --      6.3424                 6.4681                 6.6920
 IR Inten    --     21.6894                 6.4903                16.8190

 - Thermochemistry -
 -------------------
 Temperature   298.150 Kelvin.  Pressure   1.00000 Atm.
 Atom     1 has atomic number  6 and mass  12.00000

 Molecular mass:   126.06808 amu.
 Principal axes and moments of inertia in atomic units:
                           1         2         3
     Eigenvalues --   873.30158 976.712991380.58738
           X            0.99564   0.09252   0.01202
           Y           -0.09255   0.99571   0.00224
           Z           -0.01176  -0.00334   0.99993
 This molecule is an asymmetric top.
 Rotational symmetry number  1.
 Warning -- assumption of classical behavior for rotation
           may cause significant error
 Rotational temperatures (Kelvin)      0.09918     0.08868     0.06274
 Rotational constants (GHZ):           2.06657     1.84777     1.30723
 Zero-point vibrational energy     416550.4 (Joules/Mol)
                                   99.55792 (Kcal/Mol)
 Warning -- explicit consideration of  11 degrees of freedom as
           vibrations may cause significant error
 Vibrational temperatures:    137.21   188.41   277.10   319.37   360.56
          (Kelvin)            414.11   463.90   503.82   642.18   720.54
                              835.69   992.19  1114.17  1118.48  1180.15
                             1204.67  1229.06  1328.56  1381.60  1400.53
                             1439.95  1470.12  1503.93  1576.05  1607.82
                             1700.43  1743.04  1758.00  1771.08  1802.41
                             1889.66  1913.38  1995.58  2025.12  2040.67
                             2111.47  2134.96  2140.04  2150.07  2429.94
                             2607.73  4315.24  4373.47  4376.67  4405.43
                             4429.97  4482.97  4495.41  4504.03  4577.72
                             4614.19

 Zero-point correction=                           0.158656 (Hartree/Particle)
 Thermal correction to Energy=                    0.167266
 Thermal correction to Enthalpy=                  0.168211
 Thermal correction to Gibbs Free Energy=         0.125640
 Sum of electronic and zero-point Energies=           -423.071116
 Sum of electronic and thermal Energies=              -423.062505
 Sum of electronic and thermal Enthalpies=            -423.061561
 Sum of electronic and thermal Free Energies=         -423.104131

                     E (Thermal)             CV                S
                      KCal/Mol        Cal/Mol-Kelvin    Cal/Mol-Kelvin
 Total                  104.961             32.697             89.597
 Electronic               0.000              0.000              0.000
 Translational            0.889              2.981             40.409
 Rotational               0.889              2.981             28.556
 Vibrational            103.184             26.736             20.633
 Vibration     1          0.603              1.953              3.547
 Vibration     2          0.612              1.922              2.932
 Vibration     3          0.635              1.850              2.203
 Vibration     4          0.648              1.808              1.943
 Vibration     5          0.663              1.762              1.726
 Vibration     6          0.685              1.696              1.487
 Vibration     7          0.707              1.631              1.298
 Vibration     8          0.727              1.575              1.165
 Vibration     9          0.806              1.369              0.807
 Vibration    10          0.856              1.248              0.656
 Vibration    11          0.938              1.073              0.484

 Optimization completed.
    -- Stationary point found.
 Normal termination of Gaussian 09 at Mon Jan 27 17:19:54 2020.
