 Gaussian 09, Revision D.01,
 Gaussian 09:  ES64L-G09RevD.01 24-Apr-2013

 -----------------------------
 # b3lyp 6-31G(2df,p) opt Freq
 -----------------------------

 -----
 titel
 -----
 Symbolic Z-matrix:
 Charge =  0 Multiplicity = 1

 SCF Done:  E(RB3LYP) =  -423.203984817     A.U. after   14 cycles
 Optimization completed.
    -- Stationary point found.
 Normal termination of Gaussian 09 at Mon Jan 27 23:10:18 2020.

 ----------------------------------------------------------------------
 #N Geom=AllCheck Guess=TCheck SCRF=Check GenChk RB3LYP/6-31G(2df,p) Fr
 eq
 ----------------------------------------------------------------------

 Structure from the checkpoint file:  "/scratch/puck/g09_a074857e-f3f8-434c-a757-705c40f04269/Gau-79882.chk"
 -----
 titel
 -----
 Charge =  0 Multiplicity = 1

                         Standard orientation:
 ---------------------------------------------------------------------
 Center     Atomic      Atomic             Coordinates (Angstroms)
 Number     Number       Type             X           Y           Z
 ---------------------------------------------------------------------
      1          6           0       -1.657777   -1.382218    0.908571
      2          6           0       -0.812906   -0.811079   -0.248171
      3          6           0        0.633251   -1.250787   -0.149143
      4          8           0        1.514157   -0.688743   -1.122856
      5          6           0        1.708528   -0.322512    0.249632
      6          6           0        1.441417    1.133304    0.581020
      7          6           0       -0.059401    1.475398    0.695141
      8          6           0       -0.933827    0.716056   -0.292113
      9          8           0       -1.722738    1.266025   -1.022194
     10          1           0       -1.627255   -2.476256    0.898186
     11          1           0       -1.290113   -1.049111    1.884525
     12          1           0       -2.701236   -1.071963    0.810015
     13          1           0       -1.225751   -1.178729   -1.194149
     14          1           0        0.780970   -2.318944    0.023898
     15          1           0        2.611582   -0.749540    0.686904
     16          1           0        1.945447    1.391431    1.517971
     17          1           0        1.906426    1.741289   -0.202816
     18          1           0       -0.406784    1.200406    1.700245
     19          1           0       -0.240355    2.544183    0.565994
 ---------------------------------------------------------------------

 SCF Done:  E(RB3LYP) =  -423.203984817     A.U. after    1 cycles

 The electronic state is 1-A.
 Alpha  occ. eigenvalues --  -19.15415 -19.12805 -10.26744 -10.24544 -10.24492
 Alpha  occ. eigenvalues --  -10.20216 -10.20134 -10.19639 -10.19489  -1.07737
 Alpha  occ. eigenvalues --   -1.03878  -0.81655  -0.78666  -0.69749  -0.67755
 Alpha  occ. eigenvalues --   -0.62432  -0.60139  -0.52509  -0.49595  -0.48629
 Alpha  occ. eigenvalues --   -0.47635  -0.44467  -0.42651  -0.42079  -0.41546
 Alpha  occ. eigenvalues --   -0.40145  -0.38988  -0.36986  -0.36607  -0.34583
 Alpha  occ. eigenvalues --   -0.33770  -0.29958  -0.27233  -0.23960
 Alpha virt. eigenvalues --   -0.01463   0.07289   0.08411   0.10460   0.11661
 Alpha virt. eigenvalues --    0.11928   0.13359   0.15316   0.15902   0.17119
 Alpha virt. eigenvalues --    0.17750   0.17945   0.19016   0.20579   0.21579

 Mulliken charges:
               1
     1  C   -0.419033
     2  C   -0.107788
     3  C    0.050708
     4  O   -0.257964
     5  C    0.035533
     6  C   -0.237020
     7  C   -0.307398
     8  C    0.386800
     9  O   -0.316169
    10  H    0.126684
    11  H    0.121913
    12  H    0.140486
    13  H    0.109196
    14  H    0.089769
    15  H    0.096045
    16  H    0.108336
    17  H    0.133193
    18  H    0.121908
    19  H    0.124801
 Sum of Mulliken charges =   0.00000

 Dipole moment (field-independent basis, Debye):
    X=              1.1018    Y=             -1.2086    Z=              3.3085  Tot=              3.6906
 Quadrupole moment (field-independent basis, Debye-Ang):
   XX=            -55.7028   YY=            -51.6706   ZZ=            -56.0049
   XY=              4.9838   XZ=              0.0839   YZ=              1.7078

  Exact polarizability:  79.530   2.912  78.563   4.897  -0.090  65.278
 Approx polarizability: 111.280   1.042 109.800   9.667  -3.049 107.893

                      1                      2                      3
                      A                      A                      A
 Frequencies --     61.6340               116.1740               187.5914
 Red. masses --      3.5805                 3.2580                 2.2732
 Frc consts  --      0.0080                 0.0259                 0.0471
 IR Inten    --      2.0466                 1.4803                 1.2686

                      4                      5                      6
                      A                      A                      A
 Frequencies --    225.4213               246.6956               359.4237
 Red. masses --      1.2219                 2.6577                 3.1243
 Frc consts  --      0.0366                 0.0953                 0.2378
 IR Inten    --      0.4742                 0.1357                 5.9869

                      7                      8                      9
                      A                      A                      A
 Frequencies --    402.7870               455.3027               473.5302
 Red. masses --      3.3400                 5.3212                 4.0213
 Frc consts  --      0.3193                 0.6499                 0.5313
 IR Inten    --      4.9797                 4.6518                 8.8376

                     10                     11                     12
                      A                      A                      A
 Frequencies --    526.6266               626.6328               696.0328
 Red. masses --      3.7455                 2.9538                 3.9513
 Frc consts  --      0.6120                 0.6834                 1.1279
 IR Inten    --      6.0687                 0.2211                 2.5042

                     13                     14                     15
                      A                      A                      A
 Frequencies --    779.6850               792.5330               805.7465
 Red. masses --      2.0728                 3.8310                 2.5650
 Frc consts  --      0.7424                 1.4177                 0.9812
 IR Inten    --      0.3809                 4.2593                12.9724

                     16                     17                     18
                      A                      A                      A
 Frequencies --    898.3936               923.5861               950.5367
 Red. masses --      2.0810                 2.7656                 2.8069
 Frc consts  --      0.9896                 1.3900                 1.4942
 IR Inten    --     19.2545                10.9322                15.4852

                     19                     20                     21
                      A                      A                      A
 Frequencies --    983.9058              1020.6154              1048.7219
 Red. masses --      1.8230                 2.3310                 1.6187
 Frc consts  --      1.0398                 1.4306                 1.0489
 IR Inten    --      8.9920                 1.2856                 6.5494

                     22                     23                     24
                      A                      A                      A
 Frequencies --   1066.8831              1084.6036              1114.1571
 Red. masses --      1.4055                 1.9269                 1.8530
 Frc consts  --      0.9426                 1.3356                 1.3552
 IR Inten    --      5.8761                 2.3454                 7.0631

                     25                     26                     27
                      A                      A                      A
 Frequencies --   1173.4603              1199.0133              1225.6273
 Red. masses --      1.5482                 1.6500                 1.6270
 Frc consts  --      1.2561                 1.3976                 1.4400
 IR Inten    --      5.0629                11.9266                29.6628

                     28                     29                     30
                      A                      A                      A
 Frequencies --   1256.0981              1289.1520              1315.7249
 Red. masses --      1.4809                 1.2943                 1.4532
 Frc consts  --      1.3766                 1.2673                 1.4822
 IR Inten    --      4.4945                 3.5082                 1.7160

                     31                     32                     33
                      A                      A                      A
 Frequencies --   1324.2409              1334.4118              1374.9897
 Red. masses --      1.3102                 1.6456                 1.4489
 Frc consts  --      1.3537                 1.7265                 1.6140
 IR Inten    --      4.6158                 2.8455                 8.9596

                     34                     35                     36
                      A                      A                      A
 Frequencies --   1385.2841              1408.5207              1465.0471
 Red. masses --      1.4605                 1.2407                 1.5395
 Frc consts  --      1.6513                 1.4503                 1.9469
 IR Inten    --      1.6436                 3.8882                 1.5946

                     37                     38                     39
                      A                      A                      A
 Frequencies --   1476.1226              1487.1188              1499.6968
 Red. masses --      1.6073                 1.1114                 1.0612
 Frc consts  --      2.0634                 1.4482                 1.4062
 IR Inten    --     17.1938                 4.2407                 7.6650

                     40                     41                     42
                      A                      A                      A
 Frequencies --   1500.4494              1821.6929              3024.6282
 Red. masses --      1.0530                11.3934                 1.0670
 Frc consts  --      1.3967                22.2768                 5.7513
 IR Inten    --      5.3466               171.5570                 7.6243

                     43                     44                     45
                      A                      A                      A
 Frequencies --   3039.0345              3044.2443              3052.8007
 Red. masses --      1.0360                 1.0601                 1.0831
 Frc consts  --      5.6372                 5.7884                 5.9472
 IR Inten    --     19.8382                21.5609                 8.1824

                     46                     47                     48
                      A                      A                      A
 Frequencies --   3082.7891              3084.5365              3105.9155
 Red. masses --      1.0972                 1.0901                 1.0991
 Frc consts  --      6.1437                 6.1106                 6.2470
 IR Inten    --     12.1992                26.3691                32.1439

                     49                     50                     51
                      A                      A                      A
 Frequencies --   3107.5235              3115.5530              3121.9910
 Red. masses --      1.0925                 1.0958                 1.1019
 Frc consts  --      6.2160                 6.2667                 6.3278
 IR Inten    --     48.9049                11.4383                17.2575

 - Thermochemistry -
 -------------------
 Temperature   298.150 Kelvin.  Pressure   1.00000 Atm.
 Atom     1 has atomic number  6 and mass  12.00000

 Molecular mass:   126.06808 amu.
 Principal axes and moments of inertia in atomic units:
                           1         2         3
     Eigenvalues --   823.119651078.545971390.17378
           X            0.98825   0.15269  -0.00617
           Y           -0.15263   0.98824   0.00931
           Z            0.00752  -0.00826   0.99994
 This molecule is an asymmetric top.
 Rotational symmetry number  1.
 Warning -- assumption of classical behavior for rotation
           may cause significant error
 Rotational temperatures (Kelvin)      0.10523     0.08031     0.06230
 Rotational constants (GHZ):           2.19256     1.67331     1.29821
 Zero-point vibrational energy     419667.3 (Joules/Mol)
                                  100.30288 (Kcal/Mol)
 Warning -- explicit consideration of  10 degrees of freedom as
           vibrations may cause significant error
 Vibrational temperatures:     88.68   167.15   269.90   324.33   354.94
          (Kelvin)            517.13   579.52   655.08   681.30   757.70
                              901.58  1001.43  1121.79  1140.28  1159.29
                             1292.59  1328.83  1367.61  1415.62  1468.44
                             1508.88  1535.00  1560.50  1603.02  1688.35
                             1725.11  1763.40  1807.24  1854.80  1893.03
                             1905.28  1919.92  1978.30  1993.11  2026.54
                             2107.87  2123.81  2139.63  2157.73  2158.81
                             2621.01  4351.76  4372.49  4379.98  4392.29
                             4435.44  4437.95  4468.71  4471.03  4482.58
                             4491.84

 Zero-point correction=                           0.159843 (Hartree/Particle)
 Thermal correction to Energy=                    0.168139
 Thermal correction to Enthalpy=                  0.169084
 Thermal correction to Gibbs Free Energy=         0.126674
 Sum of electronic and zero-point Energies=           -423.044142
 Sum of electronic and thermal Energies=              -423.035845
 Sum of electronic and thermal Enthalpies=            -423.034901
 Sum of electronic and thermal Free Energies=         -423.077311

                     E (Thermal)             CV                S
                      KCal/Mol        Cal/Mol-Kelvin    Cal/Mol-Kelvin
 Total                  105.509             31.421             89.259
 Electronic               0.000              0.000              0.000
 Translational            0.889              2.981             40.409
 Rotational               0.889              2.981             28.603
 Vibrational            103.732             25.460             20.248
 Vibration     1          0.597              1.973              4.404
 Vibration     2          0.608              1.936              3.163
 Vibration     3          0.632              1.857              2.252
 Vibration     4          0.650              1.802              1.915
 Vibration     5          0.661              1.768              1.754
 Vibration     6          0.734              1.556              1.125
 Vibration     7          0.768              1.464              0.952
 Vibration     8          0.814              1.349              0.780
 Vibration     9          0.830              1.309              0.728
 Vibration    10          0.882              1.191              0.595

 Optimization completed.
    -- Stationary point found.
 Normal termination of Gaussian 09 at Mon Jan 27 23:56:43 2020.
