 Gaussian 09, Revision D.01,
 Gaussian 09:  ES64L-G09RevD.01 24-Apr-2013

 -----------------------------
 # b3lyp 6-31G(2df,p) opt Freq
 -----------------------------

 -----
 titel
 -----
 Symbolic Z-matrix:
 Charge =  0 Multiplicity = 1

 SCF Done:  E(RB3LYP) =  -423.190740158     A.U. after   14 cycles
 Optimization completed.
    -- Stationary point found.
 Normal termination of Gaussian 09 at Tue Jan 28 08:13:32 2020.

 ----------------------------------------------------------------------
 #N Geom=AllCheck Guess=TCheck SCRF=Check GenChk RB3LYP/6-31G(2df,p) Fr
 eq
 ----------------------------------------------------------------------

 Structure from the checkpoint file:  "/scratch/puck/g09_e768a227-0f56-4c8c-92d0-fa69fc4ee3ae/Gau-92077.chk"
 -----
 titel
 -----
 Charge =  0 Multiplicity = 1

                         Standard orientation:
 ---------------------------------------------------------------------
 Center     Atomic      Atomic             Coordinates (Angstroms)
 Number     Number       Type             X           Y           Z
 ---------------------------------------------------------------------
      1          6           0        2.991773   -0.842846    0.000131
      2          8           0        1.567033   -0.707415   -0.000088
      3          6           0        1.110045    0.568193   -0.000186
      4          8           0        1.838465    1.530425    0.000012
      5          6           0       -0.372839    0.635250   -0.000181
      6          6           0       -1.148020   -0.428131    0.757612
      7          6           0       -2.632388   -0.045135    0.783853
      8          6           0       -2.632472   -0.045313   -0.783716
      9          6           0       -1.148112   -0.428341   -0.757545
     10          1           0        3.424874   -0.374641    0.887766
     11          1           0        3.188297   -1.915281    0.000022
     12          1           0        3.425167   -0.374393   -0.887227
     13          1           0       -0.728474    1.661403   -0.000280
     14          1           0       -0.636588   -1.093985    1.439946
     15          1           0       -3.265797   -0.834025    1.194850
     16          1           0       -2.878276    0.896880    1.283615
     17          1           0       -3.265931   -0.834292   -1.194460
     18          1           0       -2.878403    0.896589   -1.283671
     19          1           0       -0.636776   -1.094392   -1.439758
 ---------------------------------------------------------------------

 SCF Done:  E(RB3LYP) =  -423.190740158     A.U. after    1 cycles

 The electronic state is 1-A.
 Alpha  occ. eigenvalues --  -19.17857 -19.11624 -10.29913 -10.23468 -10.20134
 Alpha  occ. eigenvalues --  -10.20104 -10.20080 -10.19120 -10.19103  -1.09539
 Alpha  occ. eigenvalues --   -1.00569  -0.90470  -0.75914  -0.70930  -0.65889
 Alpha  occ. eigenvalues --   -0.62582  -0.56083  -0.53938  -0.52577  -0.47411
 Alpha  occ. eigenvalues --   -0.47346  -0.46543  -0.43824  -0.43741  -0.39747
 Alpha  occ. eigenvalues --   -0.39618  -0.37411  -0.35354  -0.34345  -0.33269
 Alpha  occ. eigenvalues --   -0.29620  -0.28342  -0.28111  -0.25781
 Alpha virt. eigenvalues --    0.01650   0.09399   0.10878   0.11251   0.11263
 Alpha virt. eigenvalues --    0.12013   0.14634   0.14860   0.15905   0.16200
 Alpha virt. eigenvalues --    0.17186   0.17675   0.19026   0.20389   0.23292

 Mulliken charges:
               1
     1  C   -0.237669
     2  O   -0.237617
     3  C    0.430406
     4  O   -0.381937
     5  C   -0.135933
     6  C   -0.045630
     7  C   -0.242680
     8  C   -0.242683
     9  C   -0.045643
    10  H    0.139882
    11  H    0.129615
    12  H    0.139889
    13  H    0.101927
    14  H    0.100889
    15  H    0.109824
    16  H    0.103325
    17  H    0.109820
    18  H    0.103325
    19  H    0.100889
 Sum of Mulliken charges =   0.00000

 Dipole moment (field-independent basis, Debye):
    X=             -1.0288    Y=             -2.1091    Z=              0.0000  Tot=              2.3467
 Quadrupole moment (field-independent basis, Debye-Ang):
   XX=            -48.6875   YY=            -56.0725   ZZ=            -52.0544
   XY=             -5.6716   XZ=              0.0000   YZ=             -0.0006

  Exact polarizability:  98.345   0.753  70.978   0.000   0.000  63.704
 Approx polarizability: 119.659   8.287 115.139   0.001   0.001  97.441

                      1                      2                      3
                      A                      A                      A
 Frequencies --     73.1414               108.2699               119.7075
 Red. masses --      3.2081                 1.9332                 1.4507
 Frc consts  --      0.0101                 0.0134                 0.0122
 IR Inten    --      0.4080                 1.1307                 0.0982

                      4                      5                      6
                      A                      A                      A
 Frequencies --    138.8858               231.8017               281.4812
 Red. masses --      3.6431                 4.1176                 1.7193
 Frc consts  --      0.0414                 0.1304                 0.0803
 IR Inten    --      0.4263                 2.7554                 1.4348

                      7                      8                      9
                      A                      A                      A
 Frequencies --    289.6430               334.6522               447.0644
 Red. masses --      3.7640                 3.8706                 7.0578
 Frc consts  --      0.1860                 0.2554                 0.8311
 IR Inten    --      5.5959                 7.4471                12.0156

                     10                     11                     12
                      A                      A                      A
 Frequencies --    708.8840               709.8654               745.7013
 Red. masses --      3.6915                 2.9394                 6.7905
 Frc consts  --      1.0929                 0.8727                 2.2248
 IR Inten    --      1.9704                 7.0359                10.8790

                     13                     14                     15
                      A                      A                      A
 Frequencies --    779.9002               824.8075               866.8814
 Red. masses --      1.3778                 2.7823                 1.8891
 Frc consts  --      0.4937                 1.1152                 0.8364
 IR Inten    --      2.6711                 5.8135                18.0416

                     16                     17                     18
                      A                      A                      A
 Frequencies --    893.3387               941.6265               956.5551
 Red. masses --      3.4028                 2.5659                 2.0044
 Frc consts  --      1.6000                 1.3404                 1.0806
 IR Inten    --      0.0772                 2.2550                 0.0007

                     19                     20                     21
                      A                      A                      A
 Frequencies --    966.0972              1020.1971              1022.0257
 Red. masses --      2.1064                 2.0434                 1.5336
 Frc consts  --      1.1583                 1.2531                 0.9438
 IR Inten    --     21.8271                 4.8874                 0.1772

                     22                     23                     24
                      A                      A                      A
 Frequencies --   1070.9946              1073.0013              1115.9827
 Red. masses --      1.2214                 4.5692                 1.5125
 Frc consts  --      0.8254                 3.0995                 1.1098
 IR Inten    --      3.7762                31.2781                69.7727

                     25                     26                     27
                      A                      A                      A
 Frequencies --   1119.7697              1181.1087              1190.3320
 Red. masses --      1.6850                 1.2810                 1.7954
 Frc consts  --      1.2448                 1.0529                 1.4989
 IR Inten    --      0.6996                 1.2168                 9.7399

                     28                     29                     30
                      A                      A                      A
 Frequencies --   1209.9823              1221.5729              1233.3939
 Red. masses --      1.4952                 1.1526                 1.5504
 Frc consts  --      1.2897                 1.0134                 1.3896
 IR Inten    --      8.5737                 0.0000                 0.8299

                     31                     32                     33
                      A                      A                      A
 Frequencies --   1250.4911              1282.3946              1289.2262
 Red. masses --      1.3599                 1.9042                 1.7379
 Frc consts  --      1.2529                 1.8450                 1.7019
 IR Inten    --      0.1229               232.7832                 2.9910

                     34                     35                     36
                      A                      A                      A
 Frequencies --   1306.0303              1396.6909              1472.8595
 Red. masses --      2.3856                 2.8376                 1.1936
 Frc consts  --      2.3975                 3.2614                 1.5256
 IR Inten    --    144.1142                10.9806                18.4509

                     37                     38                     39
                      A                      A                      A
 Frequencies --   1479.9172              1480.6969              1498.8834
 Red. masses --      1.0843                 1.0472                 1.1165
 Frc consts  --      1.3991                 1.3527                 1.4779
 IR Inten    --      0.1531                 5.5458                 0.0012

                     40                     41                     42
                      A                      A                      A
 Frequencies --   1500.2416              1813.2116              3050.5135
 Red. masses --      1.0655                11.3268                 1.0297
 Frc consts  --      1.4129                21.9410                 5.6455
 IR Inten    --      6.5112               292.9550                39.2490

                     43                     44                     45
                      A                      A                      A
 Frequencies --   3050.5889              3057.9253              3101.8022
 Red. masses --      1.0598                 1.0624                 1.1054
 Frc consts  --      5.8111                 5.8531                 6.2661
 IR Inten    --     40.7791                52.2189                 0.3729

                     46                     47                     48
                      A                      A                      A
 Frequencies --   3119.6668              3124.3322              3154.8162
 Red. masses --      1.1045                 1.1055                 1.0912
 Frc consts  --      6.3334                 6.3578                 6.3989
 IR Inten    --     36.3986                18.8286                 1.6918

                     49                     50                     51
                      A                      A                      A
 Frequencies --   3155.5052              3198.9581              3209.5016
 Red. masses --      1.1041                 1.0880                 1.0970
 Frc consts  --      6.4775                 6.5599                 6.6577
 IR Inten    --     21.4210                11.9610                 7.9491

 - Thermochemistry -
 -------------------
 Temperature   298.150 Kelvin.  Pressure   1.00000 Atm.
 Atom     1 has atomic number  6 and mass  12.00000

 Molecular mass:   126.06808 amu.
 Principal axes and moments of inertia in atomic units:
                           1         2         3
     Eigenvalues --   427.132021889.405312027.40790
           X            0.99981  -0.01961   0.00000
           Y            0.01961   0.99981  -0.00001
           Z            0.00000   0.00001   1.00000
 This molecule is an asymmetric top.
 Rotational symmetry number  1.
 Rotational temperatures (Kelvin)      0.20278     0.04584     0.04272
 Rotational constants (GHZ):           4.22525     0.95519     0.89017
 Zero-point vibrational energy     417920.9 (Joules/Mol)
                                   99.88549 (Kcal/Mol)
 Warning -- explicit consideration of   9 degrees of freedom as
           vibrations may cause significant error
 Vibrational temperatures:    105.23   155.78   172.23   199.83   333.51
          (Kelvin)            404.99   416.73   481.49   643.23  1019.92
                             1021.34  1072.90  1122.10  1186.71  1247.25
                             1285.31  1354.79  1376.27  1390.00  1467.83
                             1470.47  1540.92  1543.81  1605.65  1611.10
                             1699.35  1712.62  1740.89  1757.57  1774.58
                             1799.18  1845.08  1854.91  1879.08  2009.52
                             2119.11  2129.27  2130.39  2156.56  2158.51
                             2608.80  4389.00  4389.11  4399.67  4462.80
                             4488.50  4495.21  4539.07  4540.06  4602.58
                             4617.75

 Zero-point correction=                           0.159178 (Hartree/Particle)
 Thermal correction to Energy=                    0.167964
 Thermal correction to Enthalpy=                  0.168908
 Thermal correction to Gibbs Free Energy=         0.125092
 Sum of electronic and zero-point Energies=           -423.031562
 Sum of electronic and thermal Energies=              -423.022776
 Sum of electronic and thermal Enthalpies=            -423.021832
 Sum of electronic and thermal Free Energies=         -423.065648

                     E (Thermal)             CV                S
                      KCal/Mol        Cal/Mol-Kelvin    Cal/Mol-Kelvin
 Total                  105.399             31.899             92.219
 Electronic               0.000              0.000              0.000
 Translational            0.889              2.981             40.409
 Rotational               0.889              2.981             28.883
 Vibrational            103.622             25.937             22.928
 Vibration     1          0.599              1.967              4.067
 Vibration     2          0.606              1.943              3.300
 Vibration     3          0.609              1.933              3.105
 Vibration     4          0.614              1.914              2.819
 Vibration     5          0.653              1.792              1.865
 Vibration     6          0.681              1.708              1.525
 Vibration     7          0.686              1.693              1.476
 Vibration     8          0.716              1.606              1.238
 Vibration     9          0.806              1.367              0.805

 Optimization completed.
    -- Stationary point found.
 Normal termination of Gaussian 09 at Tue Jan 28 08:52:56 2020.
