 Gaussian 09, Revision D.01,
 Gaussian 09:  ES64L-G09RevD.01 24-Apr-2013

 -----------------------------
 # b3lyp 6-31G(2df,p) opt Freq
 -----------------------------

 -----
 titel
 -----
 Symbolic Z-matrix:
 Charge =  0 Multiplicity = 1

 SCF Done:  E(RB3LYP) =  -423.138710683     A.U. after   14 cycles
 SCF Done:  E(RB3LYP) =  -423.138710514     A.U. after    7 cycles
 SCF Done:  E(RB3LYP) =  -423.138710720     A.U. after    7 cycles
 Optimization completed.
    -- Stationary point found.
 Normal termination of Gaussian 09 at Mon Jan 27 16:01:16 2020.

 ----------------------------------------------------------------------
 #N Geom=AllCheck Guess=TCheck SCRF=Check GenChk RB3LYP/6-31G(2df,p) Fr
 eq
 ----------------------------------------------------------------------

 Structure from the checkpoint file:  "/scratch/puck/g09_1e184593-479c-41c0-9d35-1bc808970a5b/Gau-82118.chk"
 -----
 titel
 -----
 Charge =  0 Multiplicity = 1

                         Standard orientation:
 ---------------------------------------------------------------------
 Center     Atomic      Atomic             Coordinates (Angstroms)
 Number     Number       Type             X           Y           Z
 ---------------------------------------------------------------------
      1          6           0       -1.439624    1.770799   -0.419159
      2          6           0       -0.429697    0.771185    0.084784
      3          8           0        0.263189    1.220604    1.224269
      4          6           0        0.398594   -0.080409   -0.897245
      5          6           0        1.802117   -0.176667   -0.661991
      6          6           0        2.979739   -0.190552   -0.404384
      7          6           0       -0.626334   -0.724031    0.079320
      8          6           0       -1.840965   -1.400985   -0.503237
      9          8           0       -0.145627   -1.406037    1.185782
     10          1           0       -0.937153    2.693356   -0.728369
     11          1           0       -1.999076    1.383924   -1.273924
     12          1           0       -2.151509    2.022012    0.373615
     13          1           0        1.193460    1.341841    0.984788
     14          1           0        0.091805   -0.030510   -1.938126
     15          1           0        4.020909   -0.257483   -0.206295
     16          1           0       -2.173759   -0.924595   -1.427861
     17          1           0       -1.604452   -2.446436   -0.723947
     18          1           0       -2.665391   -1.385760    0.216634
     19          1           0        0.221684   -0.728935    1.774556
 ---------------------------------------------------------------------

 SCF Done:  E(RB3LYP) =  -423.138710720     A.U. after    1 cycles

 The electronic state is 1-A.
 Alpha  occ. eigenvalues --  -19.15851 -19.13605 -10.25205 -10.24855 -10.20850
 Alpha  occ. eigenvalues --  -10.19058 -10.18713 -10.18271 -10.17933  -1.05618
 Alpha  occ. eigenvalues --   -1.01709  -0.85253  -0.76060  -0.73099  -0.71062
 Alpha  occ. eigenvalues --   -0.62818  -0.57043  -0.55362  -0.51957  -0.48915
 Alpha  occ. eigenvalues --   -0.48085  -0.44619  -0.41911  -0.41027  -0.40056
 Alpha  occ. eigenvalues --   -0.39330  -0.38969  -0.37807  -0.34773  -0.31328
 Alpha  occ. eigenvalues --   -0.30628  -0.28344  -0.25494  -0.22944
 Alpha virt. eigenvalues --    0.03612   0.04074   0.07690   0.10362   0.11397
 Alpha virt. eigenvalues --    0.12549   0.14366   0.14776   0.15299   0.15907
 Alpha virt. eigenvalues --    0.16535   0.17767   0.20075   0.20932   0.22387

 Mulliken charges:
               1
     1  C   -0.448500
     2  C    0.304609
     3  O   -0.474030
     4  C   -0.406265
     5  C    0.304774
     6  C   -0.414760
     7  C    0.392372
     8  C   -0.446498
     9  O   -0.464731
    10  H    0.125178
    11  H    0.120760
    12  H    0.133153
    13  H    0.293435
    14  H    0.110576
    15  H    0.199141
    16  H    0.116115
    17  H    0.137309
    18  H    0.128571
    19  H    0.288790
 Sum of Mulliken charges =   0.00000

 Dipole moment (field-independent basis, Debye):
    X=             -0.0942    Y=              1.3061    Z=             -1.0995  Tot=              1.7099
 Quadrupole moment (field-independent basis, Debye-Ang):
   XX=            -46.5945   YY=            -56.5183   ZZ=            -53.7258
   XY=              0.9891   XZ=              3.3532   YZ=              0.7275

  Exact polarizability: 104.406  -0.465  70.170   2.106   0.613  64.321
 Approx polarizability: 154.654   0.131  99.035   5.315   1.341 100.979

                      1                      2                      3
                      A                      A                      A
 Frequencies --    115.4656               132.3615               183.2040
 Red. masses --      4.2469                 4.1834                 1.3339
 Frc consts  --      0.0334                 0.0432                 0.0264
 IR Inten    --      0.5009                 1.5970                 2.3083

                      4                      5                      6
                      A                      A                      A
 Frequencies --    187.4173               203.8024               237.2599
 Red. masses --      1.3892                 1.8832                 1.7059
 Frc consts  --      0.0287                 0.0461                 0.0566
 IR Inten    --      0.2027                 2.7471                 0.1852

                      7                      8                      9
                      A                      A                      A
 Frequencies --    297.9795               309.2667               346.7059
 Red. masses --      1.5343                 2.3251                 3.5887
 Frc consts  --      0.0803                 0.1310                 0.2542
 IR Inten    --     12.5549                37.7339                 0.7224

                     10                     11                     12
                      A                      A                      A
 Frequencies --    363.3347               400.7883               415.6124
 Red. masses --      3.2821                 4.2843                 4.6611
 Frc consts  --      0.2553                 0.4055                 0.4744
 IR Inten    --     12.3388                 7.9990                 5.5688

                     13                     14                     15
                      A                      A                      A
 Frequencies --    530.7572               556.1104               576.4941
 Red. masses --      3.2649                 1.1264                 1.3323
 Frc consts  --      0.5419                 0.2052                 0.2609
 IR Inten    --      2.5477                71.9281                52.0951

                     16                     17                     18
                      A                      A                      A
 Frequencies --    584.9500               654.7155               665.7510
 Red. masses --      3.9200                 3.0233                 1.2406
 Frc consts  --      0.7903                 0.7635                 0.3240
 IR Inten    --     14.7587                12.3536                32.1713

                     19                     20                     21
                      A                      A                      A
 Frequencies --    691.5210               722.2516               829.8948
 Red. masses --      3.9763                 3.7177                 4.2001
 Frc consts  --      1.1203                 1.1426                 1.7043
 IR Inten    --     23.3315                13.9446                14.1068

                     22                     23                     24
                      A                      A                      A
 Frequencies --    939.8392               972.0577               989.0876
 Red. masses --      1.5165                 1.7962                 1.5991
 Frc consts  --      0.7892                 1.0000                 0.9217
 IR Inten    --      1.5922                16.6944                11.2810

                     25                     26                     27
                      A                      A                      A
 Frequencies --   1069.2846              1094.5382              1100.8072
 Red. masses --      2.6091                 1.7048                 1.5860
 Frc consts  --      1.7576                 1.2033                 1.1324
 IR Inten    --     17.0030                40.4392                12.0594

                     28                     29                     30
                      A                      A                      A
 Frequencies --   1135.4981              1178.0839              1260.5741
 Red. masses --      2.3704                 2.6885                 2.3840
 Frc consts  --      1.8007                 2.1984                 2.2320
 IR Inten    --     21.9562                93.7693                43.0237

                     31                     32                     33
                      A                      A                      A
 Frequencies --   1307.4991              1355.0524              1364.4767
 Red. masses --      1.8939                 1.7345                 1.5070
 Frc consts  --      1.9076                 1.8765                 1.6531
 IR Inten    --     52.4162                10.8755                60.2119

                     34                     35                     36
                      A                      A                      A
 Frequencies --   1412.3624              1417.8348              1458.5686
 Red. masses --      1.4659                 1.2501                 1.7156
 Frc consts  --      1.7228                 1.4806                 2.1504
 IR Inten    --      8.6352                12.8166                50.2417

                     37                     38                     39
                      A                      A                      A
 Frequencies --   1475.4121              1487.3945              1489.5475
 Red. masses --      1.0856                 1.0832                 1.0512
 Frc consts  --      1.3924                 1.4119                 1.3742
 IR Inten    --      4.0089                10.3556                 0.9138

                     40                     41                     42
                      A                      A                      A
 Frequencies --   1510.5935              2218.9240              3037.8754
 Red. masses --      1.2146                 6.0796                 1.0357
 Frc consts  --      1.6330                17.6365                 5.6314
 IR Inten    --      7.3518                25.6498                20.4709

                     43                     44                     45
                      A                      A                      A
 Frequencies --   3043.3002              3102.8048              3108.4535
 Red. masses --      1.0360                 1.1015                 1.1015
 Frc consts  --      5.6531                 6.2480                 6.2706
 IR Inten    --     23.1928                15.8873                15.9612

                     46                     47                     48
                      A                      A                      A
 Frequencies --   3122.5181              3130.9097              3148.0352
 Red. masses --      1.1011                 1.0993                 1.0872
 Frc consts  --      6.3256                 6.3489                 6.3483
 IR Inten    --     17.7255                15.6980                10.6539

                     49                     50                     51
                      A                      A                      A
 Frequencies --   3501.1500              3705.3998              3722.0097
 Red. masses --      1.1578                 1.0644                 1.0661
 Frc consts  --      8.3622                 8.6105                 8.7020
 IR Inten    --     90.6080                64.3668                69.2941

 - Thermochemistry -
 -------------------
 Temperature   298.150 Kelvin.  Pressure   1.00000 Atm.
 Atom     1 has atomic number  6 and mass  12.00000

 Molecular mass:   126.06808 amu.
 Principal axes and moments of inertia in atomic units:
                           1         2         3
     Eigenvalues --   845.595151230.033091495.28395
           X            0.99930   0.00294   0.03719
           Y           -0.00291   1.00000  -0.00088
           Z           -0.03719   0.00077   0.99931
 This molecule is an asymmetric top.
 Rotational symmetry number  1.
 Warning -- assumption of classical behavior for rotation
           may cause significant error
 Rotational temperatures (Kelvin)      0.10243     0.07042     0.05792
 Rotational constants (GHZ):           2.13429     1.46723     1.20696
 Zero-point vibrational energy     405926.0 (Joules/Mol)
                                   97.01865 (Kcal/Mol)
 Warning -- explicit consideration of  16 degrees of freedom as
           vibrations may cause significant error
 Vibrational temperatures:    166.13   190.44   263.59   269.65   293.23
          (Kelvin)            341.36   428.73   444.97   498.83   522.76
                              576.64   597.97   763.64   800.12   829.45
                              841.61   941.99   957.87   994.94  1039.16
                             1194.03  1352.22  1398.57  1423.07  1538.46
                             1574.79  1583.81  1633.73  1695.00  1813.68
                             1881.20  1949.62  1963.18  2032.07  2039.95
                             2098.55  2122.79  2140.03  2143.12  2173.40
                             3192.53  4370.82  4378.62  4464.24  4472.37
                             4492.60  4504.68  4529.31  5037.37  5331.24
                             5355.14

 Zero-point correction=                           0.154609 (Hartree/Particle)
 Thermal correction to Energy=                    0.164802
 Thermal correction to Enthalpy=                  0.165746
 Thermal correction to Gibbs Free Energy=         0.120539
 Sum of electronic and zero-point Energies=           -422.984102
 Sum of electronic and thermal Energies=              -422.973909
 Sum of electronic and thermal Enthalpies=            -422.972965
 Sum of electronic and thermal Free Energies=         -423.018171

                     E (Thermal)             CV                S
                      KCal/Mol        Cal/Mol-Kelvin    Cal/Mol-Kelvin
 Total                  103.415             38.776             95.145
 Electronic               0.000              0.000              0.000
 Translational            0.889              2.981             40.409
 Rotational               0.889              2.981             28.832
 Vibrational            101.637             32.815             25.904
 Vibration     1          0.608              1.937              3.175
 Vibration     2          0.612              1.921              2.911
 Vibration     3          0.631              1.863              2.296
 Vibration     4          0.632              1.857              2.253
 Vibration     5          0.639              1.834              2.099
 Vibration     6          0.656              1.784              1.823
 Vibration     7          0.691              1.677              1.428
 Vibration     8          0.699              1.656              1.366
 Vibration     9          0.725              1.582              1.181
 Vibration    10          0.737              1.548              1.108
 Vibration    11          0.767              1.468              0.960
 Vibration    12          0.779              1.436              0.907
 Vibration    13          0.886              1.182              0.586
 Vibration    14          0.912              1.126              0.532
 Vibration    15          0.933              1.082              0.492
 Vibration    16          0.942              1.064              0.476

 Optimization completed.
    -- Stationary point found.
 Normal termination of Gaussian 09 at Mon Jan 27 16:40:47 2020.
