 Gaussian 09, Revision D.01,
 Gaussian 09:  ES64L-G09RevD.01 24-Apr-2013

 -----------------------------
 # b3lyp 6-31G(2df,p) opt Freq
 -----------------------------

 -----
 titel
 -----
 Symbolic Z-matrix:
 Charge =  0 Multiplicity = 1

 SCF Done:  E(RB3LYP) =  -423.195144186     A.U. after   13 cycles
 Optimization completed.
    -- Stationary point found.
 Normal termination of Gaussian 09 at Mon Jan 27 11:19:32 2020.

 ----------------------------------------------------------------------
 #N Geom=AllCheck Guess=TCheck SCRF=Check GenChk RB3LYP/6-31G(2df,p) Fr
 eq
 ----------------------------------------------------------------------

 Structure from the checkpoint file:  "/scratch/puck/g09_13c8fa61-dda7-4da1-a5f6-df4a7950e6a6/Gau-32324.chk"
 -----
 titel
 -----
 Charge =  0 Multiplicity = 1

                         Standard orientation:
 ---------------------------------------------------------------------
 Center     Atomic      Atomic             Coordinates (Angstroms)
 Number     Number       Type             X           Y           Z
 ---------------------------------------------------------------------
      1          6           0       -1.699083    0.520576   -0.599916
      2          6           0       -1.722911   -0.908966   -0.003725
      3          6           0       -0.311914   -1.120429    0.552298
      4          8           0        0.570200   -1.396511   -0.545054
      5          6           0        1.770154   -0.654358   -0.391969
      6          6           0        1.367002    0.635358    0.305148
      7          8           0        0.605579    1.522337   -0.543643
      8          6           0       -0.619921    1.276149    0.201276
      9          6           0        0.107388    0.255732    1.106275
     10          1           0       -1.393084    0.504049   -1.648582
     11          1           0       -2.676782    1.006257   -0.542017
     12          1           0       -2.443168   -0.968243    0.821002
     13          1           0       -1.987582   -1.680254   -0.731225
     14          1           0       -0.250460   -1.928632    1.292982
     15          1           0        2.505964   -1.196110    0.227007
     16          1           0        2.197365   -0.486776   -1.384914
     17          1           0        2.191674    1.151863    0.806263
     18          1           0       -0.976926    2.201502    0.664314
     19          1           0        0.082470    0.365358    2.188423
 ---------------------------------------------------------------------

 SCF Done:  E(RB3LYP) =  -423.195144186     A.U. after    1 cycles

 The electronic state is 1-A.
 Alpha  occ. eigenvalues --  -19.13465 -19.12950 -10.23316 -10.23109 -10.23025
 Alpha  occ. eigenvalues --  -10.22364 -10.18944 -10.18150 -10.17745  -1.05013
 Alpha  occ. eigenvalues --   -1.01571  -0.81684  -0.75149  -0.71097  -0.69075
 Alpha  occ. eigenvalues --   -0.59524  -0.57197  -0.54302  -0.52419  -0.48706
 Alpha  occ. eigenvalues --   -0.46798  -0.44782  -0.44037  -0.42784  -0.39575
 Alpha  occ. eigenvalues --   -0.39034  -0.35288  -0.34355  -0.33834  -0.31645
 Alpha  occ. eigenvalues --   -0.31112  -0.29469  -0.25362  -0.24747
 Alpha virt. eigenvalues --    0.07592   0.08398   0.10811   0.12648   0.13784
 Alpha virt. eigenvalues --    0.13914   0.14548   0.15824   0.16454   0.17473
 Alpha virt. eigenvalues --    0.17968   0.18165   0.18728   0.20056   0.21882

 Mulliken charges:
               1
     1  C   -0.233717
     2  C   -0.223489
     3  C    0.116037
     4  O   -0.276114
     5  C   -0.101494
     6  C    0.116286
     7  O   -0.313742
     8  C    0.134240
     9  C   -0.146927
    10  H    0.127217
    11  H    0.095647
    12  H    0.095839
    13  H    0.113296
    14  H    0.065109
    15  H    0.084380
    16  H    0.118502
    17  H    0.076740
    18  H    0.074557
    19  H    0.077634
 Sum of Mulliken charges =   0.00000

 Dipole moment (field-independent basis, Debye):
    X=             -0.3745    Y=             -0.0854    Z=              2.0255  Tot=              2.0616
 Quadrupole moment (field-independent basis, Debye-Ang):
   XX=            -48.8500   YY=            -57.0956   ZZ=            -52.5218
   XY=             -0.8137   XZ=              0.6374   YZ=              0.5256

  Exact polarizability:  84.145  -1.046  70.362   0.068  -0.281  65.618
 Approx polarizability: 113.412  -0.644 101.983  -1.797  -1.104 102.481

                      1                      2                      3
                      A                      A                      A
 Frequencies --    131.9674               193.5242               343.2521
 Red. masses --      2.4856                 3.7994                 2.3364
 Frc consts  --      0.0255                 0.0838                 0.1622
 IR Inten    --      1.3951                 3.5633                 0.8212

                      4                      5                      6
                      A                      A                      A
 Frequencies --    366.9310               403.0589               587.0818
 Red. masses --      2.2368                 3.3772                 4.6296
 Frc consts  --      0.1774                 0.3233                 0.9401
 IR Inten    --      5.1276                 4.4152                 0.7944

                      7                      8                      9
                      A                      A                      A
 Frequencies --    627.4162               654.2571               768.0493
 Red. masses --      4.6892                 2.3010                 5.2505
 Frc consts  --      1.0876                 0.5803                 1.8248
 IR Inten    --      4.2104                 0.4520                 9.9290

                     10                     11                     12
                      A                      A                      A
 Frequencies --    818.4295               831.1313               842.2719
 Red. masses --      2.1215                 2.9165                 2.5138
 Frc consts  --      0.8373                 1.1870                 1.0507
 IR Inten    --      2.1082                 3.6936                 5.7698

                     13                     14                     15
                      A                      A                      A
 Frequencies --    875.9107               890.0732               904.7860
 Red. masses --      3.3927                 2.0489                 2.1177
 Frc consts  --      1.5336                 0.9564                 1.0214
 IR Inten    --      9.1806                12.8399                 8.2229

                     16                     17                     18
                      A                      A                      A
 Frequencies --    937.6524               956.4535               964.3570
 Red. masses --      2.8940                 2.3256                 2.8556
 Frc consts  --      1.4991                 1.2535                 1.5647
 IR Inten    --     24.2371                 4.9316                16.7109

                     19                     20                     21
                      A                      A                      A
 Frequencies --    999.4213              1023.3697              1049.8494
 Red. masses --      2.2784                 1.6229                 2.3137
 Frc consts  --      1.3409                 1.0014                 1.5025
 IR Inten    --     12.1729                 7.7085                21.9652

                     22                     23                     24
                      A                      A                      A
 Frequencies --   1080.8612              1089.6578              1110.8420
 Red. masses --      2.3813                 2.2101                 4.1143
 Frc consts  --      1.6391                 1.5461                 2.9912
 IR Inten    --      9.4357                36.4422                85.5242

                     25                     26                     27
                      A                      A                      A
 Frequencies --   1171.8035              1201.1686              1220.7383
 Red. masses --      1.3486                 2.0452                 1.4676
 Frc consts  --      1.0910                 1.7385                 1.2885
 IR Inten    --     12.5846                13.2935                 2.2026

                     28                     29                     30
                      A                      A                      A
 Frequencies --   1229.6723              1244.1325              1257.3578
 Red. masses --      1.3112                 1.5844                 1.7094
 Frc consts  --      1.1681                 1.4450                 1.5922
 IR Inten    --      5.9655                 4.2452                 8.0656

                     31                     32                     33
                      A                      A                      A
 Frequencies --   1292.8092              1299.8738              1312.5172
 Red. masses --      1.4093                 1.3168                 1.1902
 Frc consts  --      1.3878                 1.3109                 1.2081
 IR Inten    --      0.4289                 0.9910                 3.3628

                     34                     35                     36
                      A                      A                      A
 Frequencies --   1338.0586              1344.8917              1358.1600
 Red. masses --      1.4763                 1.3720                 1.5008
 Frc consts  --      1.5573                 1.4621                 1.6311
 IR Inten    --      0.4621                 8.1581                 5.4333

                     37                     38                     39
                      A                      A                      A
 Frequencies --   1367.5820              1391.6391              1474.1447
 Red. masses --      1.5054                 1.3829                 1.0785
 Frc consts  --      1.6588                 1.5780                 1.3809
 IR Inten    --      6.6920                 2.4957                 2.5716

                     40                     41                     42
                      A                      A                      A
 Frequencies --   1487.6754              1495.1703              2960.8460
 Red. masses --      1.1014                 1.0974                 1.0705
 Frc consts  --      1.4362                 1.4454                 5.5295
 IR Inten    --      5.5050                 1.4425                70.7965

                     43                     44                     45
                      A                      A                      A
 Frequencies --   3012.9878              3042.9489              3048.8718
 Red. masses --      1.0840                 1.0681                 1.0842
 Frc consts  --      5.7981                 5.8271                 5.9381
 IR Inten    --     48.8353                46.6661                34.6006

                     46                     47                     48
                      A                      A                      A
 Frequencies --   3061.9228              3069.1604              3090.6142
 Red. masses --      1.0873                 1.0654                 1.0917
 Frc consts  --      6.0060                 5.9127                 6.1437
 IR Inten    --     69.8443                33.7441                21.3676

                     49                     50                     51
                      A                      A                      A
 Frequencies --   3102.7866              3119.3982              3136.0251
 Red. masses --      1.0979                 1.1039                 1.0904
 Frc consts  --      6.2275                 6.3287                 6.3184
 IR Inten    --     12.6190                23.0967                24.6115

 - Thermochemistry -
 -------------------
 Temperature   298.150 Kelvin.  Pressure   1.00000 Atm.
 Atom     1 has atomic number  6 and mass  12.00000

 Molecular mass:   126.06808 amu.
 Principal axes and moments of inertia in atomic units:
                           1         2         3
     Eigenvalues --   689.31740 831.677821168.18130
           X            0.99970  -0.02116   0.01224
           Y            0.02114   0.99978   0.00140
           Z           -0.01227  -0.00114   0.99992
 This molecule is an asymmetric top.
 Rotational symmetry number  1.
 Warning -- assumption of classical behavior for rotation
           may cause significant error
 Rotational temperatures (Kelvin)      0.12565     0.10414     0.07414
 Rotational constants (GHZ):           2.61816     2.17000     1.54492
 Zero-point vibrational energy     428164.8 (Joules/Mol)
                                  102.33384 (Kcal/Mol)
 Warning -- explicit consideration of   6 degrees of freedom as
           vibrations may cause significant error
 Vibrational temperatures:    189.87   278.44   493.86   527.93   579.91
          (Kelvin)            844.68   902.71   941.33  1105.05  1177.54
                             1195.81  1211.84  1260.24  1280.62  1301.78
                             1349.07  1376.12  1387.49  1437.94  1472.40
                             1510.50  1555.12  1567.77  1598.25  1685.96
                             1728.21  1756.37  1769.22  1790.03  1809.06
                             1860.06  1870.23  1888.42  1925.17  1935.00
                             1954.09  1967.64  2002.26  2120.96  2140.43
                             2151.21  4259.99  4335.01  4378.12  4386.64
                             4405.42  4415.83  4446.70  4464.21  4488.11
                             4512.04

 Zero-point correction=                           0.163079 (Hartree/Particle)
 Thermal correction to Energy=                    0.169584
 Thermal correction to Enthalpy=                  0.170528
 Thermal correction to Gibbs Free Energy=         0.132298
 Sum of electronic and zero-point Energies=           -423.032065
 Sum of electronic and thermal Energies=              -423.025560
 Sum of electronic and thermal Enthalpies=            -423.024616
 Sum of electronic and thermal Free Energies=         -423.062846

                     E (Thermal)             CV                S
                      KCal/Mol        Cal/Mol-Kelvin    Cal/Mol-Kelvin
 Total                  106.416             26.978             80.463
 Electronic               0.000              0.000              0.000
 Translational            0.889              2.981             40.409
 Rotational               0.889              2.981             27.995
 Vibrational            104.638             21.016             12.059
 Vibration     1          0.612              1.921              2.917
 Vibration     2          0.635              1.849              2.194
 Vibration     3          0.722              1.589              1.197
 Vibration     4          0.740              1.540              1.093
 Vibration     5          0.768              1.464              0.951
 Vibration     6          0.944              1.059              0.472

 Optimization completed.
    -- Stationary point found.
 Normal termination of Gaussian 09 at Mon Jan 27 12:09:21 2020.
