 Gaussian 09, Revision D.01,
 Gaussian 09:  ES64L-G09RevD.01 24-Apr-2013

 -----------------------------
 # b3lyp 6-31G(2df,p) opt Freq
 -----------------------------

 -----
 titel
 -----
 Symbolic Z-matrix:
 Charge =  0 Multiplicity = 1

 SCF Done:  E(RB3LYP) =  -423.192265404     A.U. after   13 cycles
 SCF Done:  E(RB3LYP) =  -423.192265929     A.U. after    6 cycles
 Optimization completed.
    -- Stationary point found.
 Normal termination of Gaussian 09 at Thu Jan 30 15:37:01 2020.

 ----------------------------------------------------------------------
 #N Geom=AllCheck Guess=TCheck SCRF=Check GenChk RB3LYP/6-31G(2df,p) Fr
 eq
 ----------------------------------------------------------------------

 Structure from the checkpoint file:  "/scratch/puck/g09_6ece1ae9-04eb-4bfd-b461-62fae2e395a3/Gau-41638.chk"
 -----
 titel
 -----
 Charge =  0 Multiplicity = 1

                         Standard orientation:
 ---------------------------------------------------------------------
 Center     Atomic      Atomic             Coordinates (Angstroms)
 Number     Number       Type             X           Y           Z
 ---------------------------------------------------------------------
      1          6           0       -0.152260    1.561299   -0.415253
      2          6           0        0.300357    0.875946    0.902652
      3          6           0        1.656380    0.249801    0.551823
      4          8           0        1.525654   -0.397422   -0.722086
      5          6           0        0.191231   -0.879445   -0.902381
      6          6           0       -0.264722   -1.549000    0.410595
      7          6           0       -0.807356   -0.260361    1.052621
      8          8           0       -1.786520    0.069584    0.055381
      9          6           0       -0.847414    0.328720   -1.002296
     10          1           0       -0.887289    2.353716   -0.264996
     11          1           0        0.688837    1.941827   -0.996638
     12          1           0        0.361458    1.532044    1.771523
     13          1           0        2.428242    1.017561    0.436089
     14          1           0        2.003197   -0.458018    1.318140
     15          1           0        0.210640   -1.517051   -1.785641
     16          1           0       -1.088099   -2.252333    0.274916
     17          1           0        0.561796   -2.053775    0.913245
     18          1           0       -1.278052   -0.339381    2.031943
     19          1           0       -1.371099    0.436357   -1.951506
 ---------------------------------------------------------------------

 SCF Done:  E(RB3LYP) =  -423.192265929     A.U. after    1 cycles

 The electronic state is 1-A.
 Alpha  occ. eigenvalues --  -19.13617 -19.13382 -10.23337 -10.23226 -10.22784
 Alpha  occ. eigenvalues --  -10.22681 -10.19304 -10.17943 -10.17942  -1.05349
 Alpha  occ. eigenvalues --   -1.02113  -0.79272  -0.76518  -0.74603  -0.65381
 Alpha  occ. eigenvalues --   -0.61115  -0.57048  -0.53997  -0.53388  -0.49513
 Alpha  occ. eigenvalues --   -0.46981  -0.44225  -0.42714  -0.40698  -0.38996
 Alpha  occ. eigenvalues --   -0.38453  -0.37681  -0.35369  -0.34284  -0.33011
 Alpha  occ. eigenvalues --   -0.32151  -0.29278  -0.25811  -0.23729
 Alpha virt. eigenvalues --    0.08814   0.10130   0.11347   0.12591   0.13356
 Alpha virt. eigenvalues --    0.14324   0.14947   0.15887   0.16607   0.17548
 Alpha virt. eigenvalues --    0.18476   0.18631   0.20076   0.20132   0.21788

 Mulliken charges:
               1
     1  C   -0.193563
     2  C   -0.078820
     3  C   -0.093635
     4  O   -0.275402
     5  C    0.082642
     6  C   -0.221967
     7  C    0.066043
     8  O   -0.267273
     9  C    0.052860
    10  H    0.102601
    11  H    0.107225
    12  H    0.073289
    13  H    0.106810
    14  H    0.091942
    15  H    0.082211
    16  H    0.107265
    17  H    0.105473
    18  H    0.076723
    19  H    0.075575
 Sum of Mulliken charges =   0.00000

 Dipole moment (field-independent basis, Debye):
    X=              0.4247    Y=              0.2021    Z=              0.8542  Tot=              0.9751
 Quadrupole moment (field-independent basis, Debye-Ang):
   XX=            -58.8173   YY=            -51.1439   ZZ=            -50.1159
   XY=              1.6390   XZ=              2.7914   YZ=             -0.1504

  Exact polarizability:  70.850   1.854  73.233   2.858  -0.665  71.336
 Approx polarizability: 108.052   1.899 103.555   1.890  -0.581 109.047

                      1                      2                      3
                      A                      A                      A
 Frequencies --    319.5406               356.4673               433.3110
 Red. masses --      2.7560                 3.3304                 2.2793
 Frc consts  --      0.1658                 0.2493                 0.2521
 IR Inten    --      1.9235                 7.3503                 1.6572

                      4                      5                      6
                      A                      A                      A
 Frequencies --    482.5500               524.3944               577.0883
 Red. masses --      1.9825                 6.3665                 4.7789
 Frc consts  --      0.2720                 1.0315                 0.9377
 IR Inten    --      3.4692                 0.0396                 8.1570

                      7                      8                      9
                      A                      A                      A
 Frequencies --    611.7804               654.8773               756.6870
 Red. masses --      3.1691                 4.6362                 4.2287
 Frc consts  --      0.6988                 1.1715                 1.4266
 IR Inten    --      3.1642                 3.1182                 2.8138

                     10                     11                     12
                      A                      A                      A
 Frequencies --    771.0454               849.2063               861.0642
 Red. masses --      3.3655                 3.7620                 2.5713
 Frc consts  --      1.1789                 1.5984                 1.1232
 IR Inten    --      1.7272                15.7327                 4.6379

                     13                     14                     15
                      A                      A                      A
 Frequencies --    894.8185               899.8875               926.2341
 Red. masses --      3.1121                 2.5784                 2.1687
 Frc consts  --      1.4682                 1.2302                 1.0962
 IR Inten    --      9.9364                10.1314                 0.4522

                     16                     17                     18
                      A                      A                      A
 Frequencies --    940.5579               959.8659               975.9252
 Red. masses --      1.8077                 2.9736                 2.0243
 Frc consts  --      0.9422                 1.6142                 1.1360
 IR Inten    --      4.2755                23.8729                11.9525

                     19                     20                     21
                      A                      A                      A
 Frequencies --    985.1198              1004.3341              1042.4355
 Red. masses --      2.3892                 2.0023                 2.8060
 Frc consts  --      1.3661                 1.1900                 1.7965
 IR Inten    --     22.6325                 5.2850                20.1539

                     22                     23                     24
                      A                      A                      A
 Frequencies --   1066.9266              1076.2342              1082.5969
 Red. masses --      2.3607                 1.6373                 2.3802
 Frc consts  --      1.5833                 1.1174                 1.6436
 IR Inten    --     52.6586                14.4444                 5.6544

                     25                     26                     27
                      A                      A                      A
 Frequencies --   1137.8617              1159.7093              1182.4538
 Red. masses --      1.2991                 1.6353                 1.4354
 Frc consts  --      0.9910                 1.2958                 1.1824
 IR Inten    --      3.0569                 6.7203                26.0361

                     28                     29                     30
                      A                      A                      A
 Frequencies --   1229.8265              1241.9326              1256.9571
 Red. masses --      1.2856                 1.6011                 1.2283
 Frc consts  --      1.1456                 1.4550                 1.1434
 IR Inten    --      3.0532                 1.6360                 0.5994

                     31                     32                     33
                      A                      A                      A
 Frequencies --   1280.8872              1289.9516              1313.6606
 Red. masses --      1.4889                 1.4859                 1.3771
 Frc consts  --      1.4393                 1.4568                 1.4002
 IR Inten    --      0.4618                 2.1507                 2.1547

                     34                     35                     36
                      A                      A                      A
 Frequencies --   1314.5597              1321.4750              1337.8515
 Red. masses --      1.7192                 1.4828                 1.4157
 Frc consts  --      1.7504                 1.5257                 1.4930
 IR Inten    --      4.3657                 4.1099                10.7750

                     37                     38                     39
                      A                      A                      A
 Frequencies --   1354.9680              1397.0938              1483.6176
 Red. masses --      1.3674                 1.3556                 1.1047
 Frc consts  --      1.4791                 1.5590                 1.4326
 IR Inten    --      1.7950                 2.8071                 4.5808

                     40                     41                     42
                      A                      A                      A
 Frequencies --   1487.0107              1531.6301              2998.3827
 Red. masses --      1.1062                 1.0841                 1.0688
 Frc consts  --      1.4411                 1.4984                 5.6612
 IR Inten    --      3.5262                 0.8237                64.4881

                     43                     44                     45
                      A                      A                      A
 Frequencies --   3067.6405              3079.2609              3080.5038
 Red. masses --      1.0950                 1.0592                 1.0594
 Frc consts  --      6.0713                 5.9171                 5.9233
 IR Inten    --     28.5894                22.5287                20.7910

                     46                     47                     48
                      A                      A                      A
 Frequencies --   3105.1712              3116.6764              3126.2216
 Red. masses --      1.0877                 1.0900                 1.0880
 Frc consts  --      6.1793                 6.2380                 6.2651
 IR Inten    --     28.5358                20.0025                71.0710

                     49                     50                     51
                      A                      A                      A
 Frequencies --   3132.4275              3132.9871              3136.0483
 Red. masses --      1.0941                 1.1058                 1.1079
 Frc consts  --      6.3248                 6.3951                 6.4197
 IR Inten    --      6.7089                22.9850                22.3437

 - Thermochemistry -
 -------------------
 Temperature   298.150 Kelvin.  Pressure   1.00000 Atm.
 Atom     1 has atomic number  6 and mass  12.00000

 Molecular mass:   126.06808 amu.
 Principal axes and moments of inertia in atomic units:
                           1         2         3
     Eigenvalues --   664.29900 843.17943 942.66889
           X            0.99780   0.04634   0.04751
           Y           -0.04430   0.99808  -0.04321
           Z           -0.04942   0.04101   0.99794
 This molecule is an asymmetric top.
 Rotational symmetry number  1.
 Warning -- assumption of classical behavior for rotation
           may cause significant error
 Rotational temperatures (Kelvin)      0.13038     0.10272     0.09188
 Rotational constants (GHZ):           2.71676     2.14040     1.91450
 Zero-point vibrational energy     432747.4 (Joules/Mol)
                                  103.42911 (Kcal/Mol)
 Warning -- explicit consideration of   7 degrees of freedom as
           vibrations may cause significant error
 Vibrational temperatures:    459.75   512.88   623.44   694.28   754.49
          (Kelvin)            830.30   880.21   942.22  1088.70  1109.36
                             1221.82  1238.88  1287.44  1294.74  1332.64
                             1353.25  1381.03  1404.14  1417.37  1445.01
                             1499.83  1535.07  1548.46  1557.61  1637.13
                             1668.56  1701.29  1769.44  1786.86  1808.48
                             1842.91  1855.95  1890.06  1891.36  1901.31
                             1924.87  1949.49  2010.10  2134.59  2139.47
                             2203.67  4314.00  4413.65  4430.36  4432.15
                             4467.64  4484.20  4497.93  4506.86  4507.66
                             4512.07

 Zero-point correction=                           0.164825 (Hartree/Particle)
 Thermal correction to Energy=                    0.170570
 Thermal correction to Enthalpy=                  0.171514
 Thermal correction to Gibbs Free Energy=         0.135135
 Sum of electronic and zero-point Energies=           -423.027441
 Sum of electronic and thermal Energies=              -423.021696
 Sum of electronic and thermal Enthalpies=            -423.020752
 Sum of electronic and thermal Free Energies=         -423.057131

                     E (Thermal)             CV                S
                      KCal/Mol        Cal/Mol-Kelvin    Cal/Mol-Kelvin
 Total                  107.034             25.905             76.566
 Electronic               0.000              0.000              0.000
 Translational            0.889              2.981             40.409
 Rotational               0.889              2.981             27.759
 Vibrational            105.257             19.943              8.398
 Vibration     1          0.705              1.636              1.312
 Vibration     2          0.732              1.562              1.137
 Vibration     3          0.794              1.398              0.848
 Vibration     4          0.839              1.289              0.703
 Vibration     5          0.879              1.196              0.600
 Vibration     6          0.934              1.081              0.491
 Vibration     7          0.971              1.007              0.430

 Optimization completed.
    -- Stationary point found.
 Normal termination of Gaussian 09 at Thu Jan 30 16:24:43 2020.
