 Gaussian 09, Revision D.01,
 Gaussian 09:  ES64L-G09RevD.01 24-Apr-2013

 -----------------------------
 # b3lyp 6-31G(2df,p) opt Freq
 -----------------------------

 -----
 titel
 -----
 Symbolic Z-matrix:
 Charge =  0 Multiplicity = 1

 SCF Done:  E(RB3LYP) =  -423.184939407     A.U. after   14 cycles
 SCF Done:  E(RB3LYP) =  -423.184938311     A.U. after    7 cycles
 SCF Done:  E(RB3LYP) =  -423.184939536     A.U. after    7 cycles
 Optimization completed.
    -- Stationary point found.
 Normal termination of Gaussian 09 at Mon Jan 27 14:13:49 2020.

 ----------------------------------------------------------------------
 #N Geom=AllCheck Guess=TCheck SCRF=Check GenChk RB3LYP/6-31G(2df,p) Fr
 eq
 ----------------------------------------------------------------------

 Structure from the checkpoint file:  "/scratch/puck/g09_522dce12-eb44-49e6-aa20-bc9d73eb4cda/Gau-23705.chk"
 -----
 titel
 -----
 Charge =  0 Multiplicity = 1

                         Standard orientation:
 ---------------------------------------------------------------------
 Center     Atomic      Atomic             Coordinates (Angstroms)
 Number     Number       Type             X           Y           Z
 ---------------------------------------------------------------------
      1          6           0       -2.312917    1.127686    0.000149
      2          6           0       -1.547855   -0.174514   -0.000064
      3          8           0       -2.083204   -1.261218   -0.000200
      4          6           0       -0.039927   -0.099594   -0.000038
      5          6           0        0.837247   -0.817336   -1.066142
      6          6           0        1.936328   -0.521319    0.000210
      7          6           0        0.837125   -0.816729    1.066602
      8          6           0        1.904529    1.013095   -0.000228
      9          8           0        0.473865    1.243392   -0.000371
     10          1           0       -2.032455    1.725268   -0.873644
     11          1           0       -3.384651    0.926510    0.000018
     12          1           0       -2.032641    1.724854    0.874291
     13          1           0        0.595247   -1.875298   -1.160315
     14          1           0        0.913446   -0.334137   -2.043337
     15          1           0        2.910616   -1.008046    0.000410
     16          1           0        0.595130   -1.874642    1.161349
     17          1           0        0.913203   -0.332971    2.043530
     18          1           0        2.354766    1.461927    0.892546
     19          1           0        2.354860    1.461415   -0.893212
 ---------------------------------------------------------------------

 SCF Done:  E(RB3LYP) =  -423.184939536     A.U. after    1 cycles

 The electronic state is 1-A.
 Alpha  occ. eigenvalues --  -19.14271 -19.12713 -10.26856 -10.24551 -10.23301
 Alpha  occ. eigenvalues --  -10.20671 -10.19349 -10.19348 -10.18225  -1.05164
 Alpha  occ. eigenvalues --   -1.03464  -0.84254  -0.76044  -0.71839  -0.67444
 Alpha  occ. eigenvalues --   -0.61411  -0.57613  -0.54068  -0.48947  -0.48411
 Alpha  occ. eigenvalues --   -0.46947  -0.44105  -0.43650  -0.42069  -0.39549
 Alpha  occ. eigenvalues --   -0.39042  -0.37385  -0.36744  -0.34708  -0.34382
 Alpha  occ. eigenvalues --   -0.32543  -0.31772  -0.24839  -0.24431
 Alpha virt. eigenvalues --   -0.01828   0.09099   0.09605   0.11280   0.13631
 Alpha virt. eigenvalues --    0.13668   0.14749   0.15173   0.15565   0.17223
 Alpha virt. eigenvalues --    0.17515   0.17916   0.19818   0.19872   0.21322

 Mulliken charges:
               1
     1  C   -0.479951
     2  C    0.269641
     3  O   -0.311243
     4  C    0.368712
     5  C   -0.257757
     6  C   -0.093712
     7  C   -0.257761
     8  C   -0.080239
     9  O   -0.330466
    10  H    0.149700
    11  H    0.133886
    12  H    0.149683
    13  H    0.124527
    14  H    0.101490
    15  H    0.079551
    16  H    0.124524
    17  H    0.101491
    18  H    0.103962
    19  H    0.103964
 Sum of Mulliken charges =   0.00000

 Dipole moment (field-independent basis, Debye):
    X=              2.2303    Y=              0.9210    Z=              0.0008  Tot=              2.4129
 Quadrupole moment (field-independent basis, Debye-Ang):
   XX=            -52.8880   YY=            -56.2267   ZZ=            -51.2546
   XY=             -5.0744   XZ=             -0.0009   YZ=              0.0001

  Exact polarizability:  86.247   1.601  75.134   0.000   0.002  65.590
 Approx polarizability: 114.464   7.377 118.039   0.002   0.003  99.317

                      1                      2                      3
                      A                      A                      A
 Frequencies --     25.4410               141.4381               179.1727
 Red. masses --      3.8917                 1.0560                 3.9087
 Frc consts  --      0.0015                 0.0124                 0.0739
 IR Inten    --      5.2416                 0.1970                 8.0378

                      4                      5                      6
                      A                      A                      A
 Frequencies --    182.3012               343.5577               359.6206
 Red. masses --      3.4199                 3.4312                 2.2724
 Frc consts  --      0.0670                 0.2386                 0.1731
 IR Inten    --      0.0039                 1.4760                 5.0309

                      7                      8                      9
                      A                      A                      A
 Frequencies --    433.3614               467.8385               545.2574
 Red. masses --      4.2467                 2.3942                 2.0919
 Frc consts  --      0.4699                 0.3087                 0.3664
 IR Inten    --      1.3795                 1.9158                 0.5533

                     10                     11                     12
                      A                      A                      A
 Frequencies --    587.3175               614.0077               667.6395
 Red. masses --      2.4270                 3.4664                 3.8867
 Frc consts  --      0.4932                 0.7700                 1.0207
 IR Inten    --      0.3813                17.8495                 1.8217

                     13                     14                     15
                      A                      A                      A
 Frequencies --    825.7118               863.8479               880.5125
 Red. masses --      2.6867                 4.6857                 1.9304
 Frc consts  --      1.0793                 2.0602                 0.8818
 IR Inten    --      0.0014                 5.1594                 0.7787

                     16                     17                     18
                      A                      A                      A
 Frequencies --    892.4178               937.9774               948.6443
 Red. masses --      2.5001                 2.3343                 2.2856
 Frc consts  --      1.1731                 1.2100                 1.2118
 IR Inten    --      1.3791                36.6909                26.4222

                     19                     20                     21
                      A                      A                      A
 Frequencies --    958.5216               981.9048               989.8259
 Red. masses --      1.3377                 2.9808                 3.2077
 Frc consts  --      0.7241                 1.6933                 1.8517
 IR Inten    --      1.6366                 9.4993                52.4542

                     22                     23                     24
                      A                      A                      A
 Frequencies --   1017.1997              1066.4402              1087.5389
 Red. masses --      1.3999                 1.6456                 1.7039
 Frc consts  --      0.8534                 1.1027                 1.1874
 IR Inten    --      3.9542                 0.1083                16.7810

                     25                     26                     27
                      A                      A                      A
 Frequencies --   1100.4128              1113.5321              1151.6540
 Red. masses --      1.6001                 2.4476                 1.4747
 Frc consts  --      1.1416                 1.7881                 1.1524
 IR Inten    --      1.2226                23.3730                 2.6913

                     28                     29                     30
                      A                      A                      A
 Frequencies --   1169.8834              1185.7322              1233.0957
 Red. masses --      1.8979                 1.2147                 1.6375
 Frc consts  --      1.5304                 1.0062                 1.4670
 IR Inten    --     47.9284                 0.6837                25.3023

                     31                     32                     33
                      A                      A                      A
 Frequencies --   1247.0035              1289.3316              1333.9958
 Red. masses --      1.5165                 1.7973                 3.3146
 Frc consts  --      1.3894                 1.7603                 3.4753
 IR Inten    --      0.0016                 1.9541                20.7454

                     34                     35                     36
                      A                      A                      A
 Frequencies --   1359.5740              1386.7605              1453.0302
 Red. masses --      1.4167                 1.5143                 1.0582
 Frc consts  --      1.5429                 1.7158                 1.3163
 IR Inten    --      2.9813                51.6849                16.5842

                     37                     38                     39
                      A                      A                      A
 Frequencies --   1462.8372              1475.2956              1506.4414
 Red. masses --      1.0496                 1.0976                 1.1182
 Frc consts  --      1.3233                 1.4075                 1.4952
 IR Inten    --      8.0755                 2.9031                 1.8344

                     40                     41                     42
                      A                      A                      A
 Frequencies --   1530.9921              1802.1246              3027.0617
 Red. masses --      1.1134                11.1546                 1.0558
 Frc consts  --      1.5376                21.3438                 5.7000
 IR Inten    --      1.3848               130.0666                66.7529

                     43                     44                     45
                      A                      A                      A
 Frequencies --   3043.9237              3068.0237              3072.2777
 Red. masses --      1.0352                 1.0944                 1.0739
 Frc consts  --      5.6512                 6.0692                 5.9724
 IR Inten    --      0.8612                 0.6214                83.2234

                     46                     47                     48
                      A                      A                      A
 Frequencies --   3074.9748              3104.9665              3128.5495
 Red. masses --      1.0610                 1.0970                 1.0908
 Frc consts  --      5.9110                 6.2309                 6.2906
 IR Inten    --      0.0269                 3.6616                41.2600

                     49                     50                     51
                      A                      A                      A
 Frequencies --   3152.1636              3156.9782              3159.1396
 Red. masses --      1.1081                 1.1046                 1.1053
 Frc consts  --      6.4870                 6.4862                 6.4995
 IR Inten    --      7.1527                12.3364                19.1360

 - Thermochemistry -
 -------------------
 Temperature   298.150 Kelvin.  Pressure   1.00000 Atm.
 Atom     1 has atomic number  6 and mass  12.00000

 Molecular mass:   126.06808 amu.
 Principal axes and moments of inertia in atomic units:
                           1         2         3
     Eigenvalues --   564.794691268.401321536.29154
           X            0.99898  -0.04525  -0.00001
           Y            0.04525   0.99898   0.00001
           Z            0.00001  -0.00001   1.00000
 This molecule is an asymmetric top.
 Rotational symmetry number  1.
 Warning -- assumption of classical behavior for rotation
           may cause significant error
 Rotational temperatures (Kelvin)      0.15335     0.06829     0.05638
 Rotational constants (GHZ):           3.19539     1.42285     1.17474
 Zero-point vibrational energy     417420.5 (Joules/Mol)
                                   99.76588 (Kcal/Mol)
 Warning -- explicit consideration of  11 degrees of freedom as
           vibrations may cause significant error
 Vibrational temperatures:     36.60   203.50   257.79   262.29   494.30
          (Kelvin)            517.41   623.51   673.11   784.50   845.02
                              883.42   960.58  1188.01  1242.88  1266.86
                             1283.99  1349.54  1364.89  1379.10  1412.74
                             1424.14  1463.52  1534.37  1564.72  1583.25
                             1602.12  1656.97  1683.20  1706.00  1774.15
                             1794.16  1855.06  1919.32  1956.12  1995.24
                             2090.58  2104.69  2122.62  2167.43  2202.75
                             2592.85  4355.26  4379.52  4414.20  4420.32
                             4424.20  4467.35  4501.28  4535.25  4542.18
                             4545.29

 Zero-point correction=                           0.158987 (Hartree/Particle)
 Thermal correction to Energy=                    0.167182
 Thermal correction to Enthalpy=                  0.168126
 Thermal correction to Gibbs Free Energy=         0.125320
 Sum of electronic and zero-point Energies=           -423.025952
 Sum of electronic and thermal Energies=              -423.017758
 Sum of electronic and thermal Enthalpies=            -423.016813
 Sum of electronic and thermal Free Energies=         -423.059619

                     E (Thermal)             CV                S
                      KCal/Mol        Cal/Mol-Kelvin    Cal/Mol-Kelvin
 Total                  104.908             31.339             90.092
 Electronic               0.000              0.000              0.000
 Translational            0.889              2.981             40.409
 Rotational               0.889              2.981             28.489
 Vibrational            103.131             25.377             21.195
 Vibration     1          0.593              1.985              6.157
 Vibration     2          0.615              1.912              2.784
 Vibration     3          0.629              1.868              2.337
 Vibration     4          0.630              1.864              2.305
 Vibration     5          0.722              1.588              1.196
 Vibration     6          0.734              1.555              1.124
 Vibration     7          0.794              1.398              0.848
 Vibration     8          0.825              1.321              0.744
 Vibration     9          0.900              1.150              0.554
 Vibration    10          0.944              1.059              0.472
 Vibration    11          0.973              1.002              0.426

 Optimization completed.
    -- Stationary point found.
 Normal termination of Gaussian 09 at Mon Jan 27 14:59:44 2020.
