 Gaussian 09, Revision D.01,
 Gaussian 09:  ES64L-G09RevD.01 24-Apr-2013

 -----------------------------
 # b3lyp 6-31G(2df,p) opt Freq
 -----------------------------

 -----
 titel
 -----
 Symbolic Z-matrix:
 Charge =  0 Multiplicity = 1

 SCF Done:  E(RB3LYP) =  -423.166183487     A.U. after   14 cycles
 Optimization completed.
    -- Stationary point found.
 Normal termination of Gaussian 09 at Tue Jan 28 02:23:06 2020.

 ----------------------------------------------------------------------
 #N Geom=AllCheck Guess=TCheck SCRF=Check GenChk RB3LYP/6-31G(2df,p) Fr
 eq
 ----------------------------------------------------------------------

 Structure from the checkpoint file:  "/scratch/puck/g09_fe5e2f50-c9f2-44d9-b5ac-10f055df6263/Gau-5013.chk"
 -----
 titel
 -----
 Charge =  0 Multiplicity = 1

                         Standard orientation:
 ---------------------------------------------------------------------
 Center     Atomic      Atomic             Coordinates (Angstroms)
 Number     Number       Type             X           Y           Z
 ---------------------------------------------------------------------
      1          6           0       -0.769655    1.906905   -0.400431
      2          6           0       -0.042724    0.726859    0.176379
      3          6           0        1.351461    0.785549    0.830923
      4          6           0        1.681079   -0.620680    0.219751
      5          8           0        2.741874   -0.648102   -0.704489
      6          6           0        0.271761   -0.642034   -0.387391
      7          6           0       -0.743953   -0.515833    0.744128
      8          6           0       -2.160096   -0.763347    0.388688
      9          8           0       -2.646804   -0.584997   -0.705735
     10          1           0       -1.664281    1.595522   -0.942324
     11          1           0       -1.066940    2.607860    0.388457
     12          1           0       -0.119632    2.450941   -1.095140
     13          1           0        1.993505    1.549077    0.381121
     14          1           0        1.384088    0.896335    1.919623
     15          1           0        1.899548   -1.418744    0.935700
     16          1           0        2.567949    0.013828   -1.383313
     17          1           0       -0.032791   -1.096050   -1.323783
     18          1           0       -0.466822   -0.851529    1.741852
     19          1           0       -2.782426   -1.146964    1.227309
 ---------------------------------------------------------------------

 SCF Done:  E(RB3LYP) =  -423.166183488     A.U. after    1 cycles

 The electronic state is 1-A.
 Alpha  occ. eigenvalues --  -19.14463 -19.13624 -10.27181 -10.24367 -10.21941
 Alpha  occ. eigenvalues --  -10.20678 -10.20277 -10.19195 -10.18265  -1.04340
 Alpha  occ. eigenvalues --   -1.02943  -0.90807  -0.74420  -0.73206  -0.66262
 Alpha  occ. eigenvalues --   -0.63883  -0.56468  -0.53264  -0.52502  -0.47590
 Alpha  occ. eigenvalues --   -0.46907  -0.44678  -0.43598  -0.42517  -0.40539
 Alpha  occ. eigenvalues --   -0.40012  -0.38397  -0.37564  -0.37394  -0.31895
 Alpha  occ. eigenvalues --   -0.29969  -0.27626  -0.26585  -0.25054
 Alpha virt. eigenvalues --   -0.02927   0.07333   0.09114   0.10367   0.11608
 Alpha virt. eigenvalues --    0.12482   0.13060   0.14633   0.15359   0.16693
 Alpha virt. eigenvalues --    0.17710   0.18158   0.19118   0.21594   0.22515

 Mulliken charges:
               1
     1  C   -0.509917
     2  C    0.339557
     3  C   -0.331789
     4  C    0.149092
     5  O   -0.434561
     6  C   -0.141628
     7  C   -0.169213
     8  C    0.121361
     9  O   -0.271891
    10  H    0.159836
    11  H    0.120395
    12  H    0.113612
    13  H    0.105310
    14  H    0.100282
    15  H    0.092623
    16  H    0.279796
    17  H    0.110257
    18  H    0.085655
    19  H    0.081221
 Sum of Mulliken charges =   0.00000

 Dipole moment (field-independent basis, Debye):
    X=              0.7012    Y=              1.1663    Z=              1.4151  Tot=              1.9632
 Quadrupole moment (field-independent basis, Debye-Ang):
   XX=            -63.8037   YY=            -52.4355   ZZ=            -50.7851
   XY=              2.7616   XZ=             -4.9640   YZ=             -2.8692

  Exact polarizability:  89.742   3.855  72.275  -1.089  -3.452  70.954
 Approx polarizability: 122.821   4.907 105.808   1.029  -4.048 115.701

                      1                      2                      3
                      A                      A                      A
 Frequencies --    111.6175               126.5844               171.2426
 Red. masses --      4.4568                 3.8192                 3.5080
 Frc consts  --      0.0327                 0.0361                 0.0606
 IR Inten    --      9.5674                 3.8703                 9.7981

                      4                      5                      6
                      A                      A                      A
 Frequencies --    205.2428               222.2144               299.5910
 Red. masses --      2.0245                 1.2102                 1.9258
 Frc consts  --      0.0502                 0.0352                 0.1018
 IR Inten    --      1.4306                 0.5971                18.4447

                      7                      8                      9
                      A                      A                      A
 Frequencies --    320.8042               334.4656               361.2529
 Red. masses --      1.7867                 2.2820                 2.3961
 Frc consts  --      0.1083                 0.1504                 0.1842
 IR Inten    --     17.2225                27.3048                13.4762

                     10                     11                     12
                      A                      A                      A
 Frequencies --    410.4055               467.4290               629.0201
 Red. masses --      3.8112                 2.4737                 3.6188
 Frc consts  --      0.3782                 0.3184                 0.8436
 IR Inten    --     19.9405                 3.5956                 4.8041

                     13                     14                     15
                      A                      A                      A
 Frequencies --    691.5191               725.2584               819.0107
 Red. masses --      4.1456                 2.8052                 2.8270
 Frc consts  --      1.1680                 0.8694                 1.1173
 IR Inten    --      1.0085                 9.7770                12.1617

                     16                     17                     18
                      A                      A                      A
 Frequencies --    869.2369               918.7876               942.1731
 Red. masses --      3.3577                 2.1760                 1.7677
 Frc consts  --      1.4947                 1.0823                 0.9245
 IR Inten    --     25.0605                 6.4414                10.2265

                     19                     20                     21
                      A                      A                      A
 Frequencies --    951.6695              1001.8984              1022.6071
 Red. masses --      1.8752                 2.1084                 1.6631
 Frc consts  --      1.0006                 1.2470                 1.0247
 IR Inten    --     24.0180                 7.9150                 2.0713

                     22                     23                     24
                      A                      A                      A
 Frequencies --   1025.8145              1054.7897              1073.7912
 Red. masses --      1.7962                 1.6856                 1.3325
 Frc consts  --      1.1137                 1.1050                 0.9052
 IR Inten    --     21.4101                23.5952                21.6374

                     25                     26                     27
                      A                      A                      A
 Frequencies --   1089.7087              1115.8058              1150.0711
 Red. masses --      1.9128                 2.0860                 1.4324
 Frc consts  --      1.3383                 1.5302                 1.1163
 IR Inten    --     33.9418               109.2364                 3.5326

                     28                     29                     30
                      A                      A                      A
 Frequencies --   1215.8495              1218.7782              1234.5622
 Red. masses --      1.5330                 2.0019                 1.5661
 Frc consts  --      1.3352                 1.7520                 1.4064
 IR Inten    --     17.4717                 2.9060                26.0969

                     31                     32                     33
                      A                      A                      A
 Frequencies --   1271.2825              1300.9413              1353.8457
 Red. masses --      1.7561                 1.6058                 1.7455
 Frc consts  --      1.6722                 1.6012                 1.8850
 IR Inten    --      6.5752                 4.1985                19.2426

                     34                     35                     36
                      A                      A                      A
 Frequencies --   1401.0414              1423.1178              1430.7186
 Red. masses --      1.7690                 1.8141                 1.2315
 Frc consts  --      2.0459                 2.1647                 1.4852
 IR Inten    --     36.4158                15.8389                53.9367

                     37                     38                     39
                      A                      A                      A
 Frequencies --   1438.4595              1481.8887              1496.2266
 Red. masses --      1.3292                 1.1284                 1.0766
 Frc consts  --      1.6204                 1.4600                 1.4201
 IR Inten    --     39.7065                 2.6887                 1.5240

                     40                     41                     42
                      A                      A                      A
 Frequencies --   1500.6482              1796.6719              2884.0955
 Red. masses --      1.0488                 9.2987                 1.0829
 Frc consts  --      1.3915                17.6852                 5.3071
 IR Inten    --      7.3299               152.9527               147.6599

                     43                     44                     45
                      A                      A                      A
 Frequencies --   3028.4857              3043.4088              3066.0986
 Red. masses --      1.0392                 1.0590                 1.0867
 Frc consts  --      5.6159                 5.7790                 6.0192
 IR Inten    --     29.0398                39.0010                37.0166

                     46                     47                     48
                      A                      A                      A
 Frequencies --   3082.0147              3099.6216              3120.4967
 Red. masses --      1.1005                 1.1064                 1.0889
 Frc consts  --      6.1588                 6.2631                 6.2470
 IR Inten    --     19.3836                24.9156                22.5315

                     49                     50                     51
                      A                      A                      A
 Frequencies --   3138.6698              3185.0085              3794.7120
 Red. masses --      1.0970                 1.0925                 1.0658
 Frc consts  --      6.3671                 6.5300                 9.0422
 IR Inten    --      2.8622                 4.7859                12.9911

 - Thermochemistry -
 -------------------
 Temperature   298.150 Kelvin.  Pressure   1.00000 Atm.
 Atom     1 has atomic number  6 and mass  12.00000

 Molecular mass:   126.06808 amu.
 Principal axes and moments of inertia in atomic units:
                           1         2         3
     Eigenvalues --   591.809231568.819301786.69497
           X            0.99999  -0.00162  -0.00359
           Y            0.00141   0.99830  -0.05828
           Z            0.00367   0.05828   0.99829
 This molecule is an asymmetric top.
 Rotational symmetry number  1.
 Warning -- assumption of classical behavior for rotation
           may cause significant error
 Rotational temperatures (Kelvin)      0.14635     0.05521     0.04848
 Rotational constants (GHZ):           3.04953     1.15038     1.01010
 Zero-point vibrational energy     413421.4 (Joules/Mol)
                                   98.81008 (Kcal/Mol)
 Warning -- explicit consideration of  11 degrees of freedom as
           vibrations may cause significant error
 Vibrational temperatures:    160.59   182.13   246.38   295.30   319.72
          (Kelvin)            431.04   461.57   481.22   519.76   590.48
                              672.53   905.02   994.94  1043.48  1178.37
                             1250.64  1321.93  1355.58  1369.24  1441.51
                             1471.30  1475.92  1517.61  1544.94  1567.85
                             1605.39  1654.69  1749.33  1753.55  1776.26
                             1829.09  1871.76  1947.88  2015.78  2047.55
                             2058.48  2069.62  2132.10  2152.73  2159.10
                             2585.01  4149.56  4357.31  4378.78  4411.43
                             4434.33  4459.66  4489.69  4515.84  4582.51
                             5459.74

 Zero-point correction=                           0.157464 (Hartree/Particle)
 Thermal correction to Energy=                    0.166464
 Thermal correction to Enthalpy=                  0.167408
 Thermal correction to Gibbs Free Energy=         0.124015
 Sum of electronic and zero-point Energies=           -423.008720
 Sum of electronic and thermal Energies=              -422.999720
 Sum of electronic and thermal Enthalpies=            -422.998776
 Sum of electronic and thermal Free Energies=         -423.042168

                     E (Thermal)             CV                S
                      KCal/Mol        Cal/Mol-Kelvin    Cal/Mol-Kelvin
 Total                  104.458             33.848             91.328
 Electronic               0.000              0.000              0.000
 Translational            0.889              2.981             40.409
 Rotational               0.889              2.981             28.896
 Vibrational            102.680             27.887             22.023
 Vibration     1          0.607              1.940              3.241
 Vibration     2          0.611              1.927              2.997
 Vibration     3          0.626              1.878              2.422
 Vibration     4          0.640              1.832              2.086
 Vibration     5          0.648              1.807              1.941
 Vibration     6          0.692              1.674              1.419
 Vibration     7          0.706              1.634              1.306
 Vibration     8          0.716              1.607              1.238
 Vibration     9          0.735              1.552              1.117
 Vibration    10          0.775              1.448              0.925
 Vibration    11          0.825              1.322              0.745

 Normal termination of Gaussian 09 at Tue Jan 28 03:04:37 2020.
