 Gaussian 09, Revision D.01,
 Gaussian 09:  ES64L-G09RevD.01 24-Apr-2013

 -----------------------------
 # b3lyp 6-31G(2df,p) opt Freq
 -----------------------------

 -----
 titel
 -----
 Symbolic Z-matrix:
 Charge =  0 Multiplicity = 1

 SCF Done:  E(RB3LYP) =  -423.167618791     A.U. after   13 cycles
 Optimization completed.
    -- Stationary point found.
 Normal termination of Gaussian 09 at Tue Jan 28 03:13:33 2020.

 ----------------------------------------------------------------------
 #N Geom=AllCheck Guess=TCheck SCRF=Check GenChk RB3LYP/6-31G(2df,p) Fr
 eq
 ----------------------------------------------------------------------

 Structure from the checkpoint file:  "/scratch/puck/g09_641f7a2b-3380-4aff-b49d-26c7cbea5f05/Gau-115145.chk"
 -----
 titel
 -----
 Charge =  0 Multiplicity = 1

                         Standard orientation:
 ---------------------------------------------------------------------
 Center     Atomic      Atomic             Coordinates (Angstroms)
 Number     Number       Type             X           Y           Z
 ---------------------------------------------------------------------
      1          6           0       -2.923963   -0.115319    0.052391
      2          6           0       -1.495490    0.094803   -0.437481
      3          8           0       -0.788251   -1.110101   -0.134884
      4          6           0        0.595773   -1.066035   -0.317429
      5          6           0        1.451383   -1.046020    0.931359
      6          6           0        1.324228    0.186041    0.050128
      7          8           0        2.418166    0.506655   -0.771861
      8          6           0        0.464265    1.331525    0.450153
      9          6           0       -0.840489    1.305747    0.192878
     10          1           0       -2.938220   -0.241819    1.138906
     11          1           0       -3.548670    0.743929   -0.209701
     12          1           0       -3.350355   -1.011011   -0.406132
     13          1           0       -1.514519    0.238044   -1.532821
     14          1           0        0.961071   -1.619839   -1.179798
     15          1           0        0.926085   -1.054331    1.879414
     16          1           0        2.397939   -1.575427    0.900141
     17          1           0        3.115461    0.861090   -0.208746
     18          1           0        0.940758    2.192562    0.913084
     19          1           0       -1.483108    2.149915    0.427614
 ---------------------------------------------------------------------

 SCF Done:  E(RB3LYP) =  -423.167618791     A.U. after    1 cycles

 The electronic state is 1-A.
 Alpha  occ. eigenvalues --  -19.14460 -19.13883 -10.24008 -10.23683 -10.22903
 Alpha  occ. eigenvalues --  -10.18587 -10.18460 -10.18213 -10.17529  -1.04129
 Alpha  occ. eigenvalues --   -1.02445  -0.84194  -0.79740  -0.73197  -0.63317
 Alpha  occ. eigenvalues --   -0.61480  -0.60177  -0.52861  -0.51843  -0.50172
 Alpha  occ. eigenvalues --   -0.47013  -0.44773  -0.43009  -0.40824  -0.39927
 Alpha  occ. eigenvalues --   -0.38275  -0.37216  -0.36230  -0.34803  -0.33797
 Alpha  occ. eigenvalues --   -0.28508  -0.27278  -0.24599  -0.23519
 Alpha virt. eigenvalues --    0.00778   0.08479   0.09676   0.11778   0.12132
 Alpha virt. eigenvalues --    0.13438   0.14978   0.15527   0.16296   0.16848
 Alpha virt. eigenvalues --    0.18032   0.19705   0.20318   0.21327   0.24480

 Mulliken charges:
               1
     1  C   -0.396090
     2  C    0.090283
     3  O   -0.273604
     4  C    0.056533
     5  C   -0.363305
     6  C    0.322064
     7  O   -0.462620
     8  C   -0.160052
     9  C   -0.062131
    10  H    0.125605
    11  H    0.113759
    12  H    0.126071
    13  H    0.084216
    14  H    0.100494
    15  H    0.121333
    16  H    0.110862
    17  H    0.282743
    18  H    0.088318
    19  H    0.095521
 Sum of Mulliken charges =   0.00000

 Dipole moment (field-independent basis, Debye):
    X=              0.3825    Y=              1.2255    Z=              0.9842  Tot=              1.6177
 Quadrupole moment (field-independent basis, Debye-Ang):
   XX=            -47.1167   YY=            -53.1816   ZZ=            -54.2543
   XY=             -1.0023   XZ=              3.9246   YZ=              1.7405

  Exact polarizability:  98.948  -3.289  72.098   4.964   1.757  61.941
 Approx polarizability: 136.918  -2.105 104.880   8.470   1.751  96.349

                      1                      2                      3
                      A                      A                      A
 Frequencies --     80.9351               177.6395               226.2694
 Red. masses --      3.5142                 2.6581                 1.8621
 Frc consts  --      0.0136                 0.0494                 0.0562
 IR Inten    --      1.2276                 3.2207                29.6762

                      4                      5                      6
                      A                      A                      A
 Frequencies --    239.6471               281.9167               306.0325
 Red. masses --      1.1333                 1.7654                 2.4782
 Frc consts  --      0.0383                 0.0827                 0.1367
 IR Inten    --      1.4418                48.4709                15.1289

                      7                      8                      9
                      A                      A                      A
 Frequencies --    377.6889               411.8089               427.1472
 Red. masses --      3.4037                 3.3232                 2.5262
 Frc consts  --      0.2861                 0.3320                 0.2716
 IR Inten    --      7.5475                 3.9645                 1.9119

                     10                     11                     12
                      A                      A                      A
 Frequencies --    486.5973               538.2761               594.0685
 Red. masses --      2.7161                 5.2502                 3.0397
 Frc consts  --      0.3789                 0.8963                 0.6321
 IR Inten    --      1.7799                 3.0323                 3.9729

                     13                     14                     15
                      A                      A                      A
 Frequencies --    688.2808               728.1707               792.8133
 Red. masses --      4.8044                 1.8615                 1.9001
 Frc consts  --      1.3410                 0.5815                 0.7037
 IR Inten    --      2.6511                15.1685                14.3078

                     16                     17                     18
                      A                      A                      A
 Frequencies --    831.8942               886.7490               924.7597
 Red. masses --      2.4268                 2.3006                 1.6484
 Frc consts  --      0.9895                 1.0658                 0.8306
 IR Inten    --      5.9693                 8.9467                 0.9027

                     19                     20                     21
                      A                      A                      A
 Frequencies --    937.7985               950.5747               981.0653
 Red. masses --      2.7849                 1.8725                 1.2906
 Frc consts  --      1.4431                 0.9969                 0.7319
 IR Inten    --     28.1482                 5.7588                 1.9741

                     22                     23                     24
                      A                      A                      A
 Frequencies --   1022.7670              1029.5750              1054.0056
 Red. masses --      1.6367                 1.9107                 1.9908
 Frc consts  --      1.0087                 1.1933                 1.3031
 IR Inten    --      8.1988                 1.6546                19.7958

                     25                     26                     27
                      A                      A                      A
 Frequencies --   1089.2509              1120.0187              1161.0029
 Red. masses --      1.7296                 1.8521                 2.2636
 Frc consts  --      1.2091                 1.3689                 1.7977
 IR Inten    --     24.9053                33.4597                20.2012

                     28                     29                     30
                      A                      A                      A
 Frequencies --   1170.7695              1195.2635              1226.6116
 Red. masses --      2.6309                 1.3407                 2.3531
 Frc consts  --      2.1247                 1.1285                 2.0860
 IR Inten    --    138.3093                26.4137                58.5587

                     31                     32                     33
                      A                      A                      A
 Frequencies --   1280.6190              1322.5565              1344.2046
 Red. masses --      1.6807                 1.2340                 1.4281
 Frc consts  --      1.6240                 1.2717                 1.5203
 IR Inten    --     13.6841                15.0783                 8.3141

                     34                     35                     36
                      A                      A                      A
 Frequencies --   1364.2038              1400.4602              1405.1777
 Red. masses --      1.3658                 1.5679                 1.3026
 Frc consts  --      1.4976                 1.8118                 1.5154
 IR Inten    --     13.2875                17.7314                 4.0659

                     37                     38                     39
                      A                      A                      A
 Frequencies --   1420.8906              1473.5378              1484.0760
 Red. masses --      1.7022                 1.7770                 1.0605
 Frc consts  --      2.0248                 2.2733                 1.3762
 IR Inten    --      6.9330                10.3878                 4.1342

                     40                     41                     42
                      A                      A                      A
 Frequencies --   1498.8057              1711.8397              2938.4412
 Red. masses --      1.0530                 7.6604                 1.0807
 Frc consts  --      1.3937                13.2259                 5.4977
 IR Inten    --      2.4320                 0.7331                47.5531

                     43                     44                     45
                      A                      A                      A
 Frequencies --   3043.7816              3118.4649              3126.7710
 Red. masses --      1.0346                 1.1019                 1.1023
 Frc consts  --      5.6473                 6.3135                 6.3494
 IR Inten    --     17.9370                20.9313                17.8375

                     46                     47                     48
                      A                      A                      A
 Frequencies --   3127.5303              3133.3233              3146.1299
 Red. masses --      1.0801                 1.0619                 1.0844
 Frc consts  --      6.2245                 6.1423                 6.3237
 IR Inten    --     21.1026                13.6911                10.6203

                     49                     50                     51
                      A                      A                      A
 Frequencies --   3173.0328              3233.3051              3792.7483
 Red. masses --      1.0975                 1.1180                 1.0662
 Frc consts  --      6.5102                 6.8861                 9.0362
 IR Inten    --     22.1504                 5.3438                21.8127

 - Thermochemistry -
 -------------------
 Temperature   298.150 Kelvin.  Pressure   1.00000 Atm.
 Atom     1 has atomic number  6 and mass  12.00000

 Molecular mass:   126.06808 amu.
 Principal axes and moments of inertia in atomic units:
                           1         2         3
     Eigenvalues --   530.354801383.143831646.79608
           X            0.99983  -0.01541   0.01050
           Y            0.01529   0.99982   0.01124
           Z           -0.01067  -0.01107   0.99988
 This molecule is an asymmetric top.
 Rotational symmetry number  1.
 Warning -- assumption of classical behavior for rotation
           may cause significant error
 Rotational temperatures (Kelvin)      0.16331     0.06262     0.05260
 Rotational constants (GHZ):           3.40289     1.30481     1.09591
 Zero-point vibrational energy     415578.5 (Joules/Mol)
                                   99.32564 (Kcal/Mol)
 Warning -- explicit consideration of  12 degrees of freedom as
           vibrations may cause significant error
 Vibrational temperatures:    116.45   255.58   325.55   344.80   405.61
          (Kelvin)            440.31   543.41   592.50   614.57   700.10
                              774.46   854.73   990.28  1047.67  1140.68
                             1196.91  1275.83  1330.52  1349.28  1367.66
                             1411.53  1471.53  1481.33  1516.48  1567.19
                             1611.46  1670.42  1684.47  1719.72  1764.82
                             1842.52  1902.86  1934.01  1962.78  2014.95
                             2021.73  2044.34  2120.09  2135.25  2156.44
                             2462.95  4227.76  4379.32  4486.77  4498.72
                             4499.81  4508.15  4526.57  4565.28  4652.00
                             5456.91

 Zero-point correction=                           0.158285 (Hartree/Particle)
 Thermal correction to Energy=                    0.166775
 Thermal correction to Enthalpy=                  0.167719
 Thermal correction to Gibbs Free Energy=         0.125564
 Sum of electronic and zero-point Energies=           -423.009333
 Sum of electronic and thermal Energies=              -423.000844
 Sum of electronic and thermal Enthalpies=            -422.999900
 Sum of electronic and thermal Free Energies=         -423.042054

                     E (Thermal)             CV                S
                      KCal/Mol        Cal/Mol-Kelvin    Cal/Mol-Kelvin
 Total                  104.653             33.315             88.721
 Electronic               0.000              0.000              0.000
 Translational            0.889              2.981             40.409
 Rotational               0.889              2.981             28.581
 Vibrational            102.875             27.354             19.731
 Vibration     1          0.600              1.962              3.868
 Vibration     2          0.628              1.870              2.353
 Vibration     3          0.650              1.801              1.908
 Vibration     4          0.657              1.780              1.806
 Vibration     5          0.681              1.707              1.522
 Vibration     6          0.696              1.662              1.384
 Vibration     7          0.748              1.518              1.048
 Vibration     8          0.776              1.445              0.920
 Vibration     9          0.789              1.411              0.868
 Vibration    10          0.843              1.280              0.692
 Vibration    11          0.893              1.165              0.569
 Vibration    12          0.952              1.044              0.460

 Normal termination of Gaussian 09 at Tue Jan 28 03:56:04 2020.
