 Gaussian 09, Revision D.01,
 Gaussian 09:  ES64L-G09RevD.01 24-Apr-2013

 -----------------------------
 # b3lyp 6-31G(2df,p) opt Freq
 -----------------------------

 -----
 titel
 -----
 Symbolic Z-matrix:
 Charge =  0 Multiplicity = 1

 SCF Done:  E(RB3LYP) =  -423.139235397     A.U. after   13 cycles
 Optimization completed.
    -- Stationary point found.
 Normal termination of Gaussian 09 at Mon Jan 27 12:20:57 2020.

 ----------------------------------------------------------------------
 #N Geom=AllCheck Guess=TCheck SCRF=Check GenChk RB3LYP/6-31G(2df,p) Fr
 eq
 ----------------------------------------------------------------------

 Structure from the checkpoint file:  "/scratch/puck/g09_b3334a8e-ae78-463b-80e9-fa859456ead4/Gau-45378.chk"
 -----
 titel
 -----
 Charge =  0 Multiplicity = 1

                         Standard orientation:
 ---------------------------------------------------------------------
 Center     Atomic      Atomic             Coordinates (Angstroms)
 Number     Number       Type             X           Y           Z
 ---------------------------------------------------------------------
      1          6           0       -2.263879   -0.294191   -0.586380
      2          8           0       -1.970475   -0.600784    0.803146
      3          6           0       -1.040574    0.471776    0.863452
      4          6           0       -1.231745    0.832233   -0.617039
      5          6           0        0.079331    0.309634   -0.129703
      6          6           0        1.297928    1.225616   -0.001043
      7          6           0        2.478203    0.217534    0.051323
      8          6           0        1.770412   -1.149287    0.128662
      9          8           0        0.525137   -0.956113   -0.532790
     10          1           0       -2.088955   -1.148897   -1.246713
     11          1           0       -3.295301    0.060709   -0.685783
     12          1           0       -1.001267    1.066404    1.771603
     13          1           0       -1.346645    1.783149   -1.122922
     14          1           0        1.387797    1.895941   -0.860821
     15          1           0        1.241642    1.849166    0.895971
     16          1           0        3.076334    0.283995   -0.860842
     17          1           0        3.144783    0.387357    0.899978
     18          1           0        2.301287   -1.954664   -0.383851
     19          1           0        1.604970   -1.447872    1.174905
 ---------------------------------------------------------------------

 SCF Done:  E(RB3LYP) =  -423.139235397     A.U. after    1 cycles

 The electronic state is 1-A.
 Alpha  occ. eigenvalues --  -19.13939 -19.13313 -10.23644 -10.23359 -10.23058
 Alpha  occ. eigenvalues --  -10.22598 -10.19270 -10.19172 -10.18822  -1.05814
 Alpha  occ. eigenvalues --   -1.03041  -0.83106  -0.77815  -0.70344  -0.68289
 Alpha  occ. eigenvalues --   -0.60036  -0.55845  -0.55191  -0.51482  -0.48867
 Alpha  occ. eigenvalues --   -0.47957  -0.46758  -0.44141  -0.41573  -0.40632
 Alpha  occ. eigenvalues --   -0.38105  -0.36027  -0.35581  -0.33287  -0.32664
 Alpha  occ. eigenvalues --   -0.31367  -0.27923  -0.26328  -0.21651
 Alpha virt. eigenvalues --    0.07379   0.08566   0.10201   0.10845   0.11975
 Alpha virt. eigenvalues --    0.14192   0.14466   0.15307   0.16152   0.17177
 Alpha virt. eigenvalues --    0.17897   0.18155   0.20243   0.20781   0.22773

 Mulliken charges:
               1
     1  C   -0.090932
     2  O   -0.282986
     3  C    0.009538
     4  C   -0.258116
     5  C    0.464489
     6  C   -0.317042
     7  C   -0.215056
     8  C   -0.091956
     9  O   -0.281446
    10  H    0.121101
    11  H    0.106496
    12  H    0.097050
    13  H    0.095709
    14  H    0.110690
    15  H    0.109066
    16  H    0.112207
    17  H    0.105165
    18  H    0.107690
    19  H    0.098334
 Sum of Mulliken charges =   0.00000

 Dipole moment (field-independent basis, Debye):
    X=              1.4401    Y=              1.8478    Z=             -0.3394  Tot=              2.3672
 Quadrupole moment (field-independent basis, Debye-Ang):
   XX=            -50.5546   YY=            -53.0585   ZZ=            -52.8759
   XY=             -2.6002   XZ=              3.6655   YZ=              0.7078

  Exact polarizability:  89.371  -0.829  69.626   3.232   0.422  66.564
 Approx polarizability: 112.138   0.054 102.006   2.747  -0.379 107.844

                      1                      2                      3
                      A                      A                      A
 Frequencies --     38.7230               158.0973               181.8083
 Red. masses --      2.3198                 2.9382                 2.5756
 Frc consts  --      0.0020                 0.0433                 0.0502
 IR Inten    --      1.0741                 0.8352                 3.7816

                      4                      5                      6
                      A                      A                      A
 Frequencies --    229.8786               317.3512               402.6345
 Red. masses --      2.9931                 3.2116                 3.8407
 Frc consts  --      0.0932                 0.1906                 0.3668
 IR Inten    --      2.9083                 1.8742                 0.5859

                      7                      8                      9
                      A                      A                      A
 Frequencies --    526.6314               604.0360               647.0327
 Red. masses --      2.8636                 4.6383                 2.2126
 Frc consts  --      0.4679                 0.9971                 0.5458
 IR Inten    --      1.2382                10.7587                 2.4300

                     10                     11                     12
                      A                      A                      A
 Frequencies --    737.8017               797.9749               815.7078
 Red. masses --      2.5372                 4.2537                 1.6173
 Frc consts  --      0.8137                 1.5958                 0.6340
 IR Inten    --     13.9875                 3.8790                 2.3279

                     13                     14                     15
                      A                      A                      A
 Frequencies --    826.8147               876.9306               920.5916
 Red. masses --      1.7545                 2.3779                 2.8328
 Frc consts  --      0.7067                 1.0774                 1.4145
 IR Inten    --      0.8257                 9.3681                 4.1150

                     16                     17                     18
                      A                      A                      A
 Frequencies --    923.6008               955.6988               965.9738
 Red. masses --      1.8678                 3.3127                 1.6137
 Frc consts  --      0.9388                 1.7827                 0.8872
 IR Inten    --      7.5418                34.8347                 3.2063

                     19                     20                     21
                      A                      A                      A
 Frequencies --    990.3839              1014.2731              1029.3025
 Red. masses --      1.9080                 2.2161                 2.8994
 Frc consts  --      1.1027                 1.3432                 1.8099
 IR Inten    --     12.7837                 7.0117                 9.6938

                     22                     23                     24
                      A                      A                      A
 Frequencies --   1057.6029              1075.8024              1102.0561
 Red. masses --      3.6665                 2.1798                 3.0997
 Frc consts  --      2.4163                 1.4864                 2.2181
 IR Inten    --     96.3436                40.4633                23.2537

                     25                     26                     27
                      A                      A                      A
 Frequencies --   1134.4694              1157.8953              1172.5148
 Red. masses --      2.4066                 1.5306                 1.4780
 Frc consts  --      1.8249                 1.2091                 1.1972
 IR Inten    --      7.5309                 8.3733                 2.6391

                     28                     29                     30
                      A                      A                      A
 Frequencies --   1203.3174              1236.4110              1242.1208
 Red. masses --      1.6374                 1.8513                 1.2862
 Frc consts  --      1.3969                 1.6675                 1.1692
 IR Inten    --     20.9279                23.9072                 5.8512

                     31                     32                     33
                      A                      A                      A
 Frequencies --   1247.6705              1256.8418              1302.0056
 Red. masses --      1.4106                 1.1856                 1.3064
 Frc consts  --      1.2937                 1.1034                 1.3048
 IR Inten    --     16.8527                 2.4731                 2.9087

                     34                     35                     36
                      A                      A                      A
 Frequencies --   1329.2159              1336.1398              1384.8389
 Red. masses --      1.4687                 1.5648                 1.3597
 Frc consts  --      1.5289                 1.6460                 1.5364
 IR Inten    --     15.8122                 1.9240                 3.6190

                     37                     38                     39
                      A                      A                      A
 Frequencies --   1432.6170              1486.8966              1504.5210
 Red. masses --      3.4221                 1.0825                 1.0925
 Frc consts  --      4.1381                 1.4100                 1.4570
 IR Inten    --     12.9955                 0.3650                 2.0780

                     40                     41                     42
                      A                      A                      A
 Frequencies --   1507.8290              1519.9970              2991.1976
 Red. masses --      1.1039                 1.1194                 1.0706
 Frc consts  --      1.4787                 1.5237                 5.6436
 IR Inten    --      0.2375                 0.4799                56.5233

                     43                     44                     45
                      A                      A                      A
 Frequencies --   3036.8035              3050.2889              3068.2071
 Red. masses --      1.0564                 1.0592                 1.0621
 Frc consts  --      5.7399                 5.8065                 5.8909
 IR Inten    --     73.5176                21.8129                30.8886

                     46                     47                     48
                      A                      A                      A
 Frequencies --   3086.3759              3093.4436              3101.6276
 Red. masses --      1.1043                 1.1100                 1.0937
 Frc consts  --      6.1977                 6.2583                 6.1994
 IR Inten    --     10.9566                28.7110                27.1035

                     49                     50                     51
                      A                      A                      A
 Frequencies --   3118.6194              3150.7719              3182.7948
 Red. masses --      1.1062                 1.0908                 1.0954
 Frc consts  --      6.3389                 6.3803                 6.5378
 IR Inten    --     40.2693                25.7185                12.2834

 - Thermochemistry -
 -------------------
 Temperature   298.150 Kelvin.  Pressure   1.00000 Atm.
 Atom     1 has atomic number  6 and mass  12.00000

 Molecular mass:   126.06808 amu.
 Principal axes and moments of inertia in atomic units:
                           1         2         3
     Eigenvalues --   467.280561370.565221523.93717
           X            0.99981  -0.00398   0.01901
           Y            0.00380   0.99994   0.00990
           Z           -0.01905  -0.00982   0.99977
 This molecule is an asymmetric top.
 Rotational symmetry number  1.
 Warning -- assumption of classical behavior for rotation
           may cause significant error
 Rotational temperatures (Kelvin)      0.18536     0.06320     0.05684
 Rotational constants (GHZ):           3.86222     1.31679     1.18426
 Zero-point vibrational energy     421875.9 (Joules/Mol)
                                  100.83076 (Kcal/Mol)
 Warning -- explicit consideration of   8 degrees of freedom as
           vibrations may cause significant error
 Vibrational temperatures:     55.71   227.47   261.58   330.74   456.60
          (Kelvin)            579.30   757.70   869.07   930.93  1061.53
                             1148.11  1173.62  1189.60  1261.71  1324.52
                             1328.85  1375.04  1389.82  1424.94  1459.31
                             1480.93  1521.65  1547.84  1585.61  1632.25
                             1665.95  1686.99  1731.30  1778.92  1787.13
                             1795.12  1808.31  1873.29  1912.44  1922.40
                             1992.47  2061.21  2139.31  2164.67  2169.43
                             2186.93  4303.66  4369.28  4388.68  4414.46
                             4440.60  4450.77  4462.54  4486.99  4533.25
                             4579.33

 Zero-point correction=                           0.160684 (Hartree/Particle)
 Thermal correction to Energy=                    0.168265
 Thermal correction to Enthalpy=                  0.169209
 Thermal correction to Gibbs Free Energy=         0.127877
 Sum of electronic and zero-point Energies=           -422.978551
 Sum of electronic and thermal Energies=              -422.970970
 Sum of electronic and thermal Enthalpies=            -422.970026
 Sum of electronic and thermal Free Energies=         -423.011359

                     E (Thermal)             CV                S
                      KCal/Mol        Cal/Mol-Kelvin    Cal/Mol-Kelvin
 Total                  105.588             29.241             86.992
 Electronic               0.000              0.000              0.000
 Translational            0.889              2.981             40.409
 Rotational               0.889              2.981             28.369
 Vibrational            103.811             23.280             18.214
 Vibration     1          0.594              1.981              5.323
 Vibration     2          0.621              1.894              2.572
 Vibration     3          0.630              1.864              2.310
 Vibration     4          0.652              1.795              1.880
 Vibration     5          0.704              1.640              1.324
 Vibration     6          0.768              1.464              0.953
 Vibration     7          0.882              1.191              0.595
 Vibration     8          0.963              1.023              0.443

 Optimization completed.
    -- Stationary point found.
 Normal termination of Gaussian 09 at Mon Jan 27 13:03:57 2020.
