 Gaussian 09, Revision D.01,
 Gaussian 09:  ES64L-G09RevD.01 24-Apr-2013

 -----------------------------
 # b3lyp 6-31G(2df,p) opt Freq
 -----------------------------

 -----
 titel
 -----
 Symbolic Z-matrix:
 Charge =  0 Multiplicity = 1

 SCF Done:  E(RB3LYP) =  -423.161018161     A.U. after   14 cycles
 Optimization completed.
    -- Stationary point found.
 Normal termination of Gaussian 09 at Mon Jan 27 15:32:28 2020.

 ----------------------------------------------------------------------
 #N Geom=AllCheck Guess=TCheck SCRF=Check GenChk RB3LYP/6-31G(2df,p) Fr
 eq
 ----------------------------------------------------------------------

 Structure from the checkpoint file:  "/scratch/puck/g09_266edef5-c73e-42bc-acd7-a7830bb2d28d/Gau-81302.chk"
 -----
 titel
 -----
 Charge =  0 Multiplicity = 1

                         Standard orientation:
 ---------------------------------------------------------------------
 Center     Atomic      Atomic             Coordinates (Angstroms)
 Number     Number       Type             X           Y           Z
 ---------------------------------------------------------------------
      1          6           0        2.201838   -1.407759   -0.161723
      2          6           0        1.413077   -0.096883   -0.299455
      3          6           0        2.218348    1.093130    0.242278
      4          6           0        0.054190   -0.196290    0.411596
      5          6           0       -0.996474   -1.171756   -0.159441
      6          8           0       -2.174674   -0.982621    0.610757
      7          6           0       -1.960280   -0.094733   -0.507401
      8          6           0       -0.946850    0.932156   -0.015656
      9          8           0       -0.854387    2.120148   -0.116343
     10          1           0        2.404811   -1.630858    0.892090
     11          1           0        1.663700   -2.261285   -0.586148
     12          1           0        3.165013   -1.333304   -0.676927
     13          1           0        1.225309    0.077237   -1.368919
     14          1           0        2.457296    0.946508    1.302380
     15          1           0        3.163560    1.196811   -0.300018
     16          1           0        1.657817    2.025632    0.147092
     17          1           0        0.188142   -0.315111    1.491710
     18          1           0       -0.857114   -2.121894   -0.659863
     19          1           0       -2.739138   -0.031146   -1.257895
 ---------------------------------------------------------------------

 SCF Done:  E(RB3LYP) =  -423.161018161     A.U. after    1 cycles

 The electronic state is 1-A.
 Alpha  occ. eigenvalues --  -19.17596 -19.14908 -10.28130 -10.25890 -10.25277
 Alpha  occ. eigenvalues --  -10.20584 -10.20393 -10.18369 -10.17409  -1.10178
 Alpha  occ. eigenvalues --   -1.05549  -0.83268  -0.77123  -0.68944  -0.67583
 Alpha  occ. eigenvalues --   -0.62995  -0.59263  -0.54223  -0.50396  -0.47980
 Alpha  occ. eigenvalues --   -0.46871  -0.44519  -0.43188  -0.42189  -0.41004
 Alpha  occ. eigenvalues --   -0.39005  -0.38507  -0.37555  -0.35387  -0.34435
 Alpha  occ. eigenvalues --   -0.33676  -0.31896  -0.28742  -0.24306
 Alpha virt. eigenvalues --   -0.02945   0.07495   0.08316   0.10356   0.11281
 Alpha virt. eigenvalues --    0.12605   0.13208   0.14366   0.15338   0.16301
 Alpha virt. eigenvalues --    0.17147   0.17686   0.19067   0.21138   0.21571

 Mulliken charges:
               1
     1  C   -0.397746
     2  C    0.016338
     3  C   -0.397292
     4  C   -0.152784
     5  C    0.018117
     6  O   -0.232596
     7  C   -0.114413
     8  C    0.416059
     9  O   -0.305666
    10  H    0.119156
    11  H    0.111078
    12  H    0.118466
    13  H    0.076335
    14  H    0.112471
    15  H    0.110199
    16  H    0.148629
    17  H    0.106610
    18  H    0.124185
    19  H    0.122855
 Sum of Mulliken charges =   0.00000

 Dipole moment (field-independent basis, Debye):
    X=              1.2277    Y=             -2.1473    Z=             -1.2217  Tot=              2.7587
 Quadrupole moment (field-independent basis, Debye-Ang):
   XX=            -53.9660   YY=            -58.7987   ZZ=            -52.1961
   XY=              0.1266   XZ=              3.3707   YZ=              1.7033

  Exact polarizability:  86.426  -0.434  79.925   3.857  -0.285  60.681
 Approx polarizability: 113.776  -1.258 127.123   2.253  -4.850  98.159

                      1                      2                      3
                      A                      A                      A
 Frequencies --     73.1690               125.4654               158.0940
 Red. masses --      3.2806                 3.5389                 4.2104
 Frc consts  --      0.0103                 0.0328                 0.0620
 IR Inten    --      0.7611                 4.2963                 1.4526

                      4                      5                      6
                      A                      A                      A
 Frequencies --    201.8153               230.7574               255.2266
 Red. masses --      3.5806                 1.0584                 1.2128
 Frc consts  --      0.0859                 0.0332                 0.0465
 IR Inten    --      3.0139                 0.2237                 0.0445

                      7                      8                      9
                      A                      A                      A
 Frequencies --    305.3696               347.4382               422.8866
 Red. masses --      2.5722                 3.7362                 2.4728
 Frc consts  --      0.1413                 0.2657                 0.2606
 IR Inten    --      1.7112                 0.7833                 0.4023

                     10                     11                     12
                      A                      A                      A
 Frequencies --    474.9742               495.5205               665.5945
 Red. masses --      4.0337                 3.7121                 7.0636
 Frc consts  --      0.5362                 0.5370                 1.8437
 IR Inten    --     11.3770                 3.7593                 4.9977

                     13                     14                     15
                      A                      A                      A
 Frequencies --    711.6672               819.4698               848.8990
 Red. masses --      3.5709                 4.2645                 2.1945
 Frc consts  --      1.0656                 1.6873                 0.9317
 IR Inten    --      1.0373                13.3066                32.6954

                     16                     17                     18
                      A                      A                      A
 Frequencies --    866.7416               894.3920               928.5559
 Red. masses --      2.9613                 3.3568                 1.7163
 Frc consts  --      1.3107                 1.5821                 0.8719
 IR Inten    --      0.3953                 7.0431                 0.4702

                     19                     20                     21
                      A                      A                      A
 Frequencies --    933.9280               943.0443               969.1435
 Red. masses --      1.6315                 1.5342                 1.5277
 Frc consts  --      0.8384                 0.8039                 0.8454
 IR Inten    --     20.0794                 8.0594                 0.0446

                     22                     23                     24
                      A                      A                      A
 Frequencies --   1023.5235              1034.1015              1081.0091
 Red. masses --      2.1506                 1.9381                 1.8376
 Frc consts  --      1.3274                 1.2211                 1.2652
 IR Inten    --      8.5104                 1.7818                16.6035

                     25                     26                     27
                      A                      A                      A
 Frequencies --   1125.3195              1146.7550              1193.6168
 Red. masses --      1.9999                 2.0931                 1.7110
 Frc consts  --      1.4921                 1.6217                 1.4362
 IR Inten    --      2.5515                 1.6389                 5.4088

                     28                     29                     30
                      A                      A                      A
 Frequencies --   1200.4303              1213.5368              1243.8437
 Red. masses --      1.5752                 1.5311                 1.4729
 Frc consts  --      1.3374                 1.3285                 1.3426
 IR Inten    --      6.3679                 4.8293                 2.4458

                     31                     32                     33
                      A                      A                      A
 Frequencies --   1285.8516              1338.2126              1350.2460
 Red. masses --      1.6162                 2.6901                 1.6892
 Frc consts  --      1.5744                 2.8384                 1.8145
 IR Inten    --      1.7414                19.7209                 9.0181

                     34                     35                     36
                      A                      A                      A
 Frequencies --   1380.9018              1401.5258              1422.2306
 Red. masses --      1.4329                 1.2301                 1.2212
 Frc consts  --      1.6098                 1.4236                 1.4554
 IR Inten    --      9.2116                 5.4933                 3.4549

                     37                     38                     39
                      A                      A                      A
 Frequencies --   1489.2762              1492.4132              1504.3885
 Red. masses --      1.0488                 1.0441                 1.0514
 Frc consts  --      1.3706                 1.3701                 1.4020
 IR Inten    --      0.9692                 3.8856                 3.7306

                     40                     41                     42
                      A                      A                      A
 Frequencies --   1513.7501              1885.7821              2998.8504
 Red. masses --      1.0515                12.4891                 1.0820
 Frc consts  --      1.4196                26.1676                 5.7332
 IR Inten    --      8.2260               246.0645                13.0056

                     43                     44                     45
                      A                      A                      A
 Frequencies --   3027.8920              3032.5090              3063.9238
 Red. masses --      1.0358                 1.0380                 1.0841
 Frc consts  --      5.5950                 5.6239                 5.9964
 IR Inten    --     19.3260                27.4869                11.9296

                     46                     47                     48
                      A                      A                      A
 Frequencies --   3093.1363              3098.8584              3101.7675
 Red. masses --      1.1006                 1.1004                 1.1012
 Frc consts  --      6.2039                 6.2262                 6.2419
 IR Inten    --      4.7230                48.6249                40.0605

                     49                     50                     51
                      A                      A                      A
 Frequencies --   3132.0367              3192.7180              3206.9594
 Red. masses --      1.1001                 1.0899                 1.1001
 Frc consts  --      6.3580                 6.5459                 6.6662
 IR Inten    --      7.8546                 8.5859                 7.9840

 - Thermochemistry -
 -------------------
 Temperature   298.150 Kelvin.  Pressure   1.00000 Atm.
 Atom     1 has atomic number  6 and mass  12.00000

 Molecular mass:   126.06808 amu.
 Principal axes and moments of inertia in atomic units:
                           1         2         3
     Eigenvalues --   703.319881310.234441847.89613
           X            0.99991  -0.00526   0.01243
           Y            0.00503   0.99981   0.01859
           Z           -0.01253  -0.01853   0.99975
 This molecule is an asymmetric top.
 Rotational symmetry number  1.
 Warning -- assumption of classical behavior for rotation
           may cause significant error
 Rotational temperatures (Kelvin)      0.12315     0.06611     0.04687
 Rotational constants (GHZ):           2.56603     1.37742     0.97665
 Zero-point vibrational energy     412397.7 (Joules/Mol)
                                   98.56543 (Kcal/Mol)
 Warning -- explicit consideration of  11 degrees of freedom as
           vibrations may cause significant error
 Vibrational temperatures:    105.27   180.52   227.46   290.37   332.01
          (Kelvin)            367.21   439.36   499.89   608.44   683.38
                              712.94   957.64  1023.93  1179.03  1221.37
                             1247.05  1286.83  1335.98  1343.71  1356.83
                             1394.38  1472.62  1487.84  1555.33  1619.08
                             1649.92  1717.35  1727.15  1746.01  1789.61
                             1850.05  1925.39  1942.70  1986.81  2016.48
                             2046.27  2142.73  2147.25  2164.48  2177.95
                             2713.22  4314.67  4356.46  4363.10  4408.30
                             4450.33  4458.56  4462.75  4506.30  4593.60
                             4614.09

 Zero-point correction=                           0.157074 (Hartree/Particle)
 Thermal correction to Energy=                    0.166044
 Thermal correction to Enthalpy=                  0.166988
 Thermal correction to Gibbs Free Energy=         0.123294
 Sum of electronic and zero-point Energies=           -423.003944
 Sum of electronic and thermal Energies=              -422.994974
 Sum of electronic and thermal Enthalpies=            -422.994030
 Sum of electronic and thermal Free Energies=         -423.037724

                     E (Thermal)             CV                S
                      KCal/Mol        Cal/Mol-Kelvin    Cal/Mol-Kelvin
 Total                  104.194             33.415             91.962
 Electronic               0.000              0.000              0.000
 Translational            0.889              2.981             40.409
 Rotational               0.889              2.981             28.923
 Vibrational            102.417             27.454             22.631
 Vibration     1          0.599              1.967              4.066
 Vibration     2          0.610              1.928              3.014
 Vibration     3          0.621              1.894              2.572
 Vibration     4          0.639              1.837              2.116
 Vibration     5          0.652              1.794              1.873
 Vibration     6          0.666              1.754              1.694
 Vibration     7          0.696              1.664              1.387
 Vibration     8          0.725              1.580              1.178
 Vibration     9          0.785              1.420              0.882
 Vibration    10          0.832              1.306              0.724
 Vibration    11          0.851              1.260              0.669

 Optimization completed.
    -- Stationary point found.
 Normal termination of Gaussian 09 at Mon Jan 27 16:13:59 2020.
