 Gaussian 09, Revision D.01,
 Gaussian 09:  ES64L-G09RevD.01 24-Apr-2013

 -----------------------------
 # b3lyp 6-31G(2df,p) opt Freq
 -----------------------------

 -----
 titel
 -----
 Symbolic Z-matrix:
 Charge =  0 Multiplicity = 1

 SCF Done:  E(RB3LYP) =  -423.164587929     A.U. after   14 cycles
 Optimization completed.
    -- Stationary point found.
 Normal termination of Gaussian 09 at Mon Jan 27 12:56:15 2020.

 ----------------------------------------------------------------------
 #N Geom=AllCheck Guess=TCheck SCRF=Check GenChk RB3LYP/6-31G(2df,p) Fr
 eq
 ----------------------------------------------------------------------

 Structure from the checkpoint file:  "/scratch/puck/g09_8975a034-c3c4-4779-836f-3b2cb456be3f/Gau-25178.chk"
 -----
 titel
 -----
 Charge =  0 Multiplicity = 1

                         Standard orientation:
 ---------------------------------------------------------------------
 Center     Atomic      Atomic             Coordinates (Angstroms)
 Number     Number       Type             X           Y           Z
 ---------------------------------------------------------------------
      1          8           0       -0.204889    1.964324   -0.399242
      2          6           0       -0.429361    0.802434   -0.135007
      3          6           0       -1.822960    0.264484   -0.332174
      4          6           0       -2.530164   -0.431453    0.762544
      5          8           0       -2.002642   -1.154440   -0.338858
      6          6           0        0.636574   -0.158646    0.328671
      7          6           0        1.972551    0.434342    0.841510
      8          6           0        2.738027   -0.618332   -0.003031
      9          6           0        1.443771   -0.858883   -0.824552
     10          1           0       -2.416220    0.821785   -1.055152
     11          1           0       -2.029618   -0.589670    1.716499
     12          1           0       -3.615411   -0.359590    0.807718
     13          1           0        0.220199   -0.917827    0.994255
     14          1           0        2.099923    1.449305    0.458312
     15          1           0        2.133312    0.436795    1.921825
     16          1           0        3.621066   -0.280523   -0.549817
     17          1           0        3.010663   -1.498047    0.586730
     18          1           0        1.423736   -0.259782   -1.738981
     19          1           0        1.161967   -1.885201   -1.064355
 ---------------------------------------------------------------------

 SCF Done:  E(RB3LYP) =  -423.164587929     A.U. after    1 cycles

 The electronic state is 1-A.
 Alpha  occ. eigenvalues --  -19.17277 -19.13283 -10.27002 -10.25498 -10.25082
 Alpha  occ. eigenvalues --  -10.19434 -10.19060 -10.18379 -10.18082  -1.09331
 Alpha  occ. eigenvalues --   -1.04165  -0.84655  -0.72511  -0.68280  -0.66285
 Alpha  occ. eigenvalues --   -0.65351  -0.57775  -0.53176  -0.51284  -0.50763
 Alpha  occ. eigenvalues --   -0.47777  -0.45541  -0.42481  -0.41517  -0.40395
 Alpha  occ. eigenvalues --   -0.39493  -0.38576  -0.34752  -0.32923  -0.32044
 Alpha  occ. eigenvalues --   -0.31445  -0.30734  -0.29572  -0.24576
 Alpha virt. eigenvalues --   -0.02815   0.08064   0.09511   0.10241   0.10948
 Alpha virt. eigenvalues --    0.12099   0.12600   0.14252   0.14968   0.17363
 Alpha virt. eigenvalues --    0.18103   0.19018   0.20025   0.20356   0.21855

 Mulliken charges:
               1
     1  O   -0.321051
     2  C    0.341094
     3  C   -0.008735
     4  C   -0.177811
     5  O   -0.217577
     6  C   -0.069660
     7  C   -0.239023
     8  C   -0.208619
     9  C   -0.220901
    10  H    0.118531
    11  H    0.125521
    12  H    0.132404
    13  H    0.085176
    14  H    0.127475
    15  H    0.097242
    16  H    0.102503
    17  H    0.103596
    18  H    0.115984
    19  H    0.113850
 Sum of Mulliken charges =   0.00000

 Dipole moment (field-independent basis, Debye):
    X=             -0.5249    Y=             -1.2928    Z=              1.2943  Tot=              1.9032
 Quadrupole moment (field-independent basis, Debye-Ang):
   XX=            -47.8176   YY=            -60.7965   ZZ=            -51.0463
   XY=             -2.2834   XZ=             -2.3185   YZ=             -0.7003

  Exact polarizability:  91.313   0.993  71.858  -1.863  -3.103  66.707
 Approx polarizability: 111.524   4.772 121.031  -4.246  -6.792 101.855

                      1                      2                      3
                      A                      A                      A
 Frequencies --     32.7614                87.0304               114.1159
 Red. masses --      3.2299                 3.1375                 2.6114
 Frc consts  --      0.0020                 0.0140                 0.0200
 IR Inten    --      0.4729                 4.8991                 1.4571

                      4                      5                      6
                      A                      A                      A
 Frequencies --    156.9634               209.9033               290.6157
 Red. masses --      4.0831                 3.0736                 3.9981
 Frc consts  --      0.0593                 0.0798                 0.1989
 IR Inten    --      2.6457                 1.6093                17.8794

                      7                      8                      9
                      A                      A                      A
 Frequencies --    302.6539               469.8398               540.5117
 Red. masses --      3.0843                 6.6672                 3.3785
 Frc consts  --      0.1665                 0.8671                 0.5815
 IR Inten    --      0.7113                 0.1018                17.1574

                     10                     11                     12
                      A                      A                      A
 Frequencies --    620.2092               714.9920               753.2126
 Red. masses --      2.3814                 2.4057                 1.8392
 Frc consts  --      0.5397                 0.7246                 0.6148
 IR Inten    --      0.8424                 1.1221                 1.5900

                     13                     14                     15
                      A                      A                      A
 Frequencies --    793.9366               858.8807               872.0690
 Red. masses --      1.4007                 2.3274                 6.0400
 Frc consts  --      0.5202                 1.0115                 2.7064
 IR Inten    --      3.3735                13.9768                13.8576

                     16                     17                     18
                      A                      A                      A
 Frequencies --    896.5576               924.8921               937.8328
 Red. masses --      2.1889                 3.2964                 2.1110
 Frc consts  --      1.0366                 1.6614                 1.0939
 IR Inten    --     11.1550                17.9550                 3.0071

                     19                     20                     21
                      A                      A                      A
 Frequencies --    954.6017               959.2372              1018.0692
 Red. masses --      1.8562                 1.7373                 2.0744
 Frc consts  --      0.9966                 0.9418                 1.2667
 IR Inten    --     21.4629                 6.8532                 4.9959

                     22                     23                     24
                      A                      A                      A
 Frequencies --   1039.1785              1090.8441              1125.3836
 Red. masses --      2.0371                 1.2514                 2.1611
 Frc consts  --      1.2961                 0.8773                 1.6126
 IR Inten    --      0.8308                 1.4317                 6.3956

                     25                     26                     27
                      A                      A                      A
 Frequencies --   1149.6615              1164.3267              1198.1897
 Red. masses --      1.4130                 1.3359                 1.8993
 Frc consts  --      1.1004                 1.0670                 1.6066
 IR Inten    --      7.4156                 0.1513                31.1391

                     28                     29                     30
                      A                      A                      A
 Frequencies --   1210.2237              1230.1184              1243.9121
 Red. masses --      1.4295                 1.2370                 1.3341
 Frc consts  --      1.2336                 1.1028                 1.2163
 IR Inten    --      8.1601                 9.0157                 5.2634

                     31                     32                     33
                      A                      A                      A
 Frequencies --   1261.0556              1261.4942              1278.1485
 Red. masses --      1.3098                 1.4536                 1.3836
 Frc consts  --      1.2273                 1.3629                 1.3317
 IR Inten    --      4.6949                 9.8850                 2.5667

                     34                     35                     36
                      A                      A                      A
 Frequencies --   1283.6896              1374.5738              1392.1418
 Red. masses --      1.4632                 1.7846                 2.4132
 Frc consts  --      1.4206                 1.9867                 2.7556
 IR Inten    --      9.9221                14.9088                34.5147

                     37                     38                     39
                      A                      A                      A
 Frequencies --   1479.7050              1487.0821              1507.9069
 Red. masses --      1.0857                 1.0834                 1.1334
 Frc consts  --      1.4006                 1.4116                 1.5184
 IR Inten    --      1.0487                 2.7624                 2.6468

                     40                     41                     42
                      A                      A                      A
 Frequencies --   1522.1948              1791.5049              3059.4342
 Red. masses --      1.2222                11.4400                 1.0583
 Frc consts  --      1.6685                21.6328                 5.8364
 IR Inten    --      1.4694               134.2635                40.3315

                     43                     44                     45
                      A                      A                      A
 Frequencies --   3065.5233              3070.6660              3084.6304
 Red. masses --      1.0589                 1.0607                 1.0831
 Frc consts  --      5.8629                 5.8929                 6.0720
 IR Inten    --     43.5132                16.0808                 5.8554

                     46                     47                     48
                      A                      A                      A
 Frequencies --   3088.9407              3106.6042              3126.0346
 Red. masses --      1.0511                 1.1061                 1.1076
 Frc consts  --      5.9088                 6.2893                 6.3769
 IR Inten    --     27.2594                 9.5039                11.1477

                     49                     50                     51
                      A                      A                      A
 Frequencies --   3134.1667              3136.3392              3179.4015
 Red. masses --      1.1062                 1.0903                 1.1197
 Frc consts  --      6.4024                 6.3189                 6.6690
 IR Inten    --     37.3063                16.0374                21.1437

 - Thermochemistry -
 -------------------
 Temperature   298.150 Kelvin.  Pressure   1.00000 Atm.
 Atom     1 has atomic number  8 and mass  15.99491

 Molecular mass:   126.06808 amu.
 Principal axes and moments of inertia in atomic units:
                           1         2         3
     Eigenvalues --   590.491111619.322751886.06101
           X            0.99989  -0.01351  -0.00662
           Y            0.01353   0.99991   0.00171
           Z            0.00660  -0.00180   0.99998
 This molecule is an asymmetric top.
 Rotational symmetry number  1.
 Warning -- assumption of classical behavior for rotation
           may cause significant error
 Rotational temperatures (Kelvin)      0.14668     0.05349     0.04592
 Rotational constants (GHZ):           3.05634     1.11450     0.95688
 Zero-point vibrational energy     416611.3 (Joules/Mol)
                                   99.57248 (Kcal/Mol)
 Warning -- explicit consideration of  10 degrees of freedom as
           vibrations may cause significant error
 Vibrational temperatures:     47.14   125.22   164.19   225.84   302.00
          (Kelvin)            418.13   435.45   675.99   777.67   892.34
                             1028.71  1083.70  1142.30  1235.74  1254.71
                             1289.94  1330.71  1349.33  1373.46  1380.13
                             1464.77  1495.14  1569.48  1619.17  1654.10
                             1675.20  1723.93  1741.24  1769.86  1789.71
                             1814.38  1815.01  1838.97  1846.94  1977.70
                             2002.98  2128.96  2139.58  2169.54  2190.10
                             2577.57  4401.84  4410.60  4418.00  4438.09
                             4444.29  4469.70  4497.66  4509.36  4512.49
                             4574.44

 Zero-point correction=                           0.158679 (Hartree/Particle)
 Thermal correction to Energy=                    0.167413
 Thermal correction to Enthalpy=                  0.168357
 Thermal correction to Gibbs Free Energy=         0.123875
 Sum of electronic and zero-point Energies=           -423.005909
 Sum of electronic and thermal Energies=              -422.997175
 Sum of electronic and thermal Enthalpies=            -422.996231
 Sum of electronic and thermal Free Energies=         -423.040713

                     E (Thermal)             CV                S
                      KCal/Mol        Cal/Mol-Kelvin    Cal/Mol-Kelvin
 Total                  105.053             31.637             93.620
 Electronic               0.000              0.000              0.000
 Translational            0.889              2.981             40.409
 Rotational               0.889              2.981             28.980
 Vibrational            103.276             25.675             24.232
 Vibration     1          0.594              1.983              5.655
 Vibration     2          0.601              1.958              3.726
 Vibration     3          0.607              1.938              3.198
 Vibration     4          0.621              1.895              2.586
 Vibration     5          0.642              1.826              2.045
 Vibration     6          0.687              1.691              1.470
 Vibration     7          0.694              1.669              1.402
 Vibration     8          0.827              1.317              0.738
 Vibration     9          0.896              1.160              0.564
 Vibration    10          0.980              0.989              0.416

 Optimization completed.
    -- Stationary point found.
 Normal termination of Gaussian 09 at Mon Jan 27 13:36:01 2020.
