 Gaussian 09, Revision D.01,
 Gaussian 09:  ES64L-G09RevD.01 24-Apr-2013

 -----------------------------
 # b3lyp 6-31G(2df,p) opt Freq
 -----------------------------

 -----
 titel
 -----
 Symbolic Z-matrix:
 Charge =  0 Multiplicity = 1

 SCF Done:  E(RB3LYP) =  -423.171470931     A.U. after   13 cycles
 Optimization completed.
    -- Stationary point found.
 Normal termination of Gaussian 09 at Mon Jan 27 12:17:13 2020.

 ----------------------------------------------------------------------
 #N Geom=AllCheck Guess=TCheck SCRF=Check GenChk RB3LYP/6-31G(2df,p) Fr
 eq
 ----------------------------------------------------------------------

 Structure from the checkpoint file:  "/scratch/puck/g09_389e50b7-09ab-4809-91d6-6c93939ab0ba/Gau-35224.chk"
 -----
 titel
 -----
 Charge =  0 Multiplicity = 1

                         Standard orientation:
 ---------------------------------------------------------------------
 Center     Atomic      Atomic             Coordinates (Angstroms)
 Number     Number       Type             X           Y           Z
 ---------------------------------------------------------------------
      1          6           0        2.051914   -0.588351   -0.112876
      2          6           0        1.829411    0.936585    0.198433
      3          6           0        0.310817    0.673647    0.116270
      4          6           0       -0.883898    1.374365   -0.513513
      5          8           0       -1.882728    0.315251   -0.418133
      6          6           0       -1.325022   -0.719898    0.392315
      7          6           0       -0.398421    0.035410    1.338152
      8          8           0       -0.416417   -1.536925   -0.356941
      9          6           0        0.606822   -0.599881   -0.695564
     10          1           0        2.861934   -0.845105   -0.797616
     11          1           0        2.146901   -1.190405    0.792293
     12          1           0        2.222003    1.328920    1.138447
     13          1           0        2.186277    1.566144   -0.621531
     14          1           0       -1.236797    2.265940    0.021673
     15          1           0       -0.737791    1.622732   -1.570159
     16          1           0       -2.131728   -1.348092    0.764435
     17          1           0       -0.906996    0.767751    1.969878
     18          1           0        0.221479   -0.624884    1.943609
     19          1           0        0.618137   -0.440874   -1.779740
 ---------------------------------------------------------------------

 SCF Done:  E(RB3LYP) =  -423.171470932     A.U. after    1 cycles

 The electronic state is 1-A.
 Alpha  occ. eigenvalues --  -19.13840 -19.13666 -10.27397 -10.23032 -10.22766
 Alpha  occ. eigenvalues --  -10.19890 -10.19751 -10.18997 -10.18606  -1.07089
 Alpha  occ. eigenvalues --   -0.99491  -0.85471  -0.75630  -0.72344  -0.65598
 Alpha  occ. eigenvalues --   -0.61980  -0.59262  -0.54114  -0.51922  -0.49395
 Alpha  occ. eigenvalues --   -0.47169  -0.45805  -0.42382  -0.41743  -0.40191
 Alpha  occ. eigenvalues --   -0.37453  -0.36627  -0.35938  -0.34228  -0.33048
 Alpha  occ. eigenvalues --   -0.32329  -0.29071  -0.26098  -0.24633
 Alpha virt. eigenvalues --    0.08401   0.08900   0.09726   0.11694   0.12722
 Alpha virt. eigenvalues --    0.14208   0.14897   0.15435   0.16189   0.17470
 Alpha virt. eigenvalues --    0.18198   0.18489   0.20546   0.20779   0.21492

 Mulliken charges:
               1
     1  C   -0.282912
     2  C   -0.346671
     3  C    0.266265
     4  C   -0.161066
     5  O   -0.284535
     6  C    0.217153
     7  C   -0.296189
     8  O   -0.281621
     9  C    0.141159
    10  H    0.103931
    11  H    0.117637
    12  H    0.107779
    13  H    0.111352
    14  H    0.095975
    15  H    0.105151
    16  H    0.091520
    17  H    0.105255
    18  H    0.109872
    19  H    0.079945
 Sum of Mulliken charges =   0.00000

 Dipole moment (field-independent basis, Debye):
    X=              1.7277    Y=              1.4645    Z=              1.0306  Tot=              2.4884
 Quadrupole moment (field-independent basis, Debye-Ang):
   XX=            -54.8805   YY=            -54.5858   ZZ=            -51.2147
   XY=              0.2090   XZ=             -2.8524   YZ=             -1.8443

  Exact polarizability:  80.474  -0.356  70.886  -3.150  -1.944  68.373
 Approx polarizability: 111.564   0.595 107.440  -3.251  -1.792 104.022

                      1                      2                      3
                      A                      A                      A
 Frequencies --    211.6979               269.2413               328.7451
 Red. masses --      3.2756                 2.1054                 2.6143
 Frc consts  --      0.0865                 0.0899                 0.1665
 IR Inten    --      1.0826                 0.9394                 0.8965

                      4                      5                      6
                      A                      A                      A
 Frequencies --    387.9331               464.0116               496.6366
 Red. masses --      2.5665                 2.7829                 4.0459
 Frc consts  --      0.2276                 0.3530                 0.5880
 IR Inten    --      0.9033                 0.6804                 4.5143

                      7                      8                      9
                      A                      A                      A
 Frequencies --    539.8217               651.2928               669.1785
 Red. masses --      3.2270                 2.8887                 2.7547
 Frc consts  --      0.5541                 0.7219                 0.7268
 IR Inten    --      5.1958                 1.1199                 2.9107

                     10                     11                     12
                      A                      A                      A
 Frequencies --    777.9108               793.8224               802.4444
 Red. masses --      4.1720                 1.6021                 3.0105
 Frc consts  --      1.4875                 0.5948                 1.1421
 IR Inten    --      3.9283                 4.4778                 4.0512

                     13                     14                     15
                      A                      A                      A
 Frequencies --    869.9522               885.6423               898.2508
 Red. masses --      4.4132                 2.7765                 3.3099
 Frc consts  --      1.9679                 1.2831                 1.5735
 IR Inten    --    107.2733                 9.1492                 6.8351

                     16                     17                     18
                      A                      A                      A
 Frequencies --    916.3081               937.4075               977.1433
 Red. masses --      3.8605                 2.1020                 1.9979
 Frc consts  --      1.9097                 1.0883                 1.1239
 IR Inten    --     31.2003                 2.3500                18.9542

                     19                     20                     21
                      A                      A                      A
 Frequencies --    993.6048               997.1022              1031.3585
 Red. masses --      1.5871                 1.9815                 2.6615
 Frc consts  --      0.9232                 1.1607                 1.6680
 IR Inten    --      2.6616                23.1335                32.2418

                     22                     23                     24
                      A                      A                      A
 Frequencies --   1078.8900              1093.1104              1120.8157
 Red. masses --      3.6160                 1.5712                 1.8089
 Frc consts  --      2.4799                 1.1062                 1.3388
 IR Inten    --     65.8736                 9.0519                13.3921

                     25                     26                     27
                      A                      A                      A
 Frequencies --   1151.6559              1169.9501              1179.9678
 Red. masses --      1.9567                 1.8300                 1.2906
 Frc consts  --      1.5290                 1.4758                 1.0587
 IR Inten    --     18.7796                 0.8736                 1.1846

                     28                     29                     30
                      A                      A                      A
 Frequencies --   1215.9943              1224.8394              1251.5697
 Red. masses --      1.8013                 1.2546                 1.4988
 Frc consts  --      1.5693                 1.1090                 1.3833
 IR Inten    --      2.9536                 4.2089                12.8398

                     31                     32                     33
                      A                      A                      A
 Frequencies --   1257.4617              1271.6670              1289.3251
 Red. masses --      1.3840                 1.8126                 1.7268
 Frc consts  --      1.2894                 1.7270                 1.6913
 IR Inten    --      0.8963                12.4569                 3.8650

                     34                     35                     36
                      A                      A                      A
 Frequencies --   1324.2888              1333.3804              1376.7914
 Red. masses --      1.6269                 1.4268                 1.3744
 Frc consts  --      1.6810                 1.4945                 1.5350
 IR Inten    --      4.3540                 2.5253                11.8508

                     37                     38                     39
                      A                      A                      A
 Frequencies --   1380.2816              1478.5839              1490.7815
 Red. masses --      1.5101                 1.0967                 1.1186
 Frc consts  --      1.6951                 1.4126                 1.4647
 IR Inten    --      5.8721                 1.2804                 2.4106

                     40                     41                     42
                      A                      A                      A
 Frequencies --   1501.5512              1527.4647              3010.0540
 Red. masses --      1.1131                 1.1020                 1.0620
 Frc consts  --      1.4786                 1.5148                 5.6693
 IR Inten    --      5.9141                 0.1016                71.6666

                     43                     44                     45
                      A                      A                      A
 Frequencies --   3038.2202              3063.2609              3069.0910
 Red. masses --      1.0859                 1.0599                 1.1021
 Frc consts  --      5.9056                 5.8600                 6.1166
 IR Inten    --     29.5957                33.2474                35.7866

                     46                     47                     48
                      A                      A                      A
 Frequencies --   3076.6628              3082.2547              3115.0254
 Red. masses --      1.0612                 1.0599                 1.1078
 Frc consts  --      5.9183                 5.9329                 6.3332
 IR Inten    --     29.7542                21.5364                13.5796

                     49                     50                     51
                      A                      A                      A
 Frequencies --   3138.8488              3148.3866              3155.6568
 Red. masses --      1.1081                 1.1047                 1.0920
 Frc consts  --      6.4326                 6.4518                 6.4069
 IR Inten    --     33.2391                16.1542                32.2164

 - Thermochemistry -
 -------------------
 Temperature   298.150 Kelvin.  Pressure   1.00000 Atm.
 Atom     1 has atomic number  6 and mass  12.00000

 Molecular mass:   126.06808 amu.
 Principal axes and moments of inertia in atomic units:
                           1         2         3
     Eigenvalues --   588.16243 975.875651173.06403
           X            0.99988  -0.00721  -0.01366
           Y            0.00669   0.99925  -0.03810
           Z            0.01393   0.03801   0.99918
 This molecule is an asymmetric top.
 Rotational symmetry number  1.
 Warning -- assumption of classical behavior for rotation
           may cause significant error
 Rotational temperatures (Kelvin)      0.14726     0.08875     0.07384
 Rotational constants (GHZ):           3.06844     1.84936     1.53848
 Zero-point vibrational energy     427756.7 (Joules/Mol)
                                  102.23631 (Kcal/Mol)
 Warning -- explicit consideration of   7 degrees of freedom as
           vibrations may cause significant error
 Vibrational temperatures:    304.59   387.38   472.99   558.15   667.61
          (Kelvin)            714.55   776.68   937.06   962.80  1119.24
                             1142.13  1154.54  1251.67  1274.24  1292.38
                             1318.36  1348.72  1405.89  1429.57  1434.61
                             1483.89  1552.28  1572.74  1612.60  1656.97
                             1683.30  1697.71  1749.54  1762.27  1800.73
                             1809.20  1829.64  1855.05  1905.35  1918.43
                             1980.89  1985.91  2127.35  2144.90  2160.39
                             2197.68  4330.79  4371.32  4407.34  4415.73
                             4426.63  4434.67  4481.82  4516.10  4529.82
                             4540.28

 Zero-point correction=                           0.162924 (Hartree/Particle)
 Thermal correction to Energy=                    0.169332
 Thermal correction to Enthalpy=                  0.170276
 Thermal correction to Gibbs Free Energy=         0.132551
 Sum of electronic and zero-point Energies=           -423.008547
 Sum of electronic and thermal Energies=              -423.002139
 Sum of electronic and thermal Enthalpies=            -423.001195
 Sum of electronic and thermal Free Energies=         -423.038920

                     E (Thermal)             CV                S
                      KCal/Mol        Cal/Mol-Kelvin    Cal/Mol-Kelvin
 Total                  106.257             27.565             79.399
 Electronic               0.000              0.000              0.000
 Translational            0.889              2.981             40.409
 Rotational               0.889              2.981             28.001
 Vibrational            104.480             21.604             10.990
 Vibration     1          0.643              1.823              2.029
 Vibration     2          0.674              1.730              1.601
 Vibration     3          0.712              1.618              1.266
 Vibration     4          0.756              1.496              1.008
 Vibration     5          0.822              1.330              0.755
 Vibration     6          0.852              1.257              0.667
 Vibration     7          0.895              1.162              0.566

 Optimization completed.
    -- Stationary point found.
 Normal termination of Gaussian 09 at Mon Jan 27 13:06:19 2020.
