 Gaussian 09, Revision D.01,
 Gaussian 09:  ES64L-G09RevD.01 24-Apr-2013

 -----------------------------
 # b3lyp 6-31G(2df,p) opt Freq
 -----------------------------

 -----
 titel
 -----
 Symbolic Z-matrix:
 Charge =  0 Multiplicity = 1

 SCF Done:  E(RB3LYP) =  -423.130758056     A.U. after   14 cycles
 Optimization completed.
    -- Stationary point found.
 Normal termination of Gaussian 09 at Mon Jan 27 14:11:59 2020.

 ----------------------------------------------------------------------
 #N Geom=AllCheck Guess=TCheck SCRF=Check GenChk RB3LYP/6-31G(2df,p) Fr
 eq
 ----------------------------------------------------------------------

 Structure from the checkpoint file:  "/scratch/puck/g09_895f9a4b-7799-426a-af95-4608b7d19afe/Gau-64272.chk"
 -----
 titel
 -----
 Charge =  0 Multiplicity = 1

                         Standard orientation:
 ---------------------------------------------------------------------
 Center     Atomic      Atomic             Coordinates (Angstroms)
 Number     Number       Type             X           Y           Z
 ---------------------------------------------------------------------
      1          8           0        1.030239    1.726143   -0.619087
      2          6           0        0.700654    0.347655   -0.610154
      3          6           0        1.856518   -0.496899   -0.276038
      4          6           0        2.808936   -1.181476   -0.014068
      5          6           0       -0.482245    0.096570    0.346509
      6          8           0       -0.027258    0.561344    1.601750
      7          6           0       -1.813635    0.670788   -0.212650
      8          6           0       -2.175528   -0.757499   -0.706800
      9          6           0       -1.085194   -1.331530    0.240253
     10          1           0        1.135474    1.968536    0.310476
     11          1           0        0.377611    0.110662   -1.630494
     12          1           0        3.654172   -1.780440    0.219725
     13          1           0       -0.777563    0.606523    2.201769
     14          1           0       -2.470109    0.993646    0.602952
     15          1           0       -1.735821    1.482221   -0.938876
     16          1           0       -3.200956   -1.092478   -0.542562
     17          1           0       -1.931664   -0.906910   -1.761414
     18          1           0       -1.501779   -1.643275    1.203147
     19          1           0       -0.430239   -2.124040   -0.128342
 ---------------------------------------------------------------------

 SCF Done:  E(RB3LYP) =  -423.130758056     A.U. after    1 cycles

 The electronic state is 1-A.
 Alpha  occ. eigenvalues --  -19.15009 -19.13513 -10.25247 -10.24302 -10.18899
 Alpha  occ. eigenvalues --  -10.18518 -10.18374 -10.17645 -10.17141  -1.04239
 Alpha  occ. eigenvalues --   -1.01230  -0.84453  -0.76225  -0.70167  -0.66843
 Alpha  occ. eigenvalues --   -0.63255  -0.57692  -0.54226  -0.51132  -0.49820
 Alpha  occ. eigenvalues --   -0.48655  -0.43671  -0.43524  -0.41327  -0.39921
 Alpha  occ. eigenvalues --   -0.39381  -0.35330  -0.33289  -0.32555  -0.31612
 Alpha  occ. eigenvalues --   -0.28125  -0.27243  -0.26406  -0.25960
 Alpha virt. eigenvalues --    0.04100   0.05087   0.07077   0.09164   0.10062
 Alpha virt. eigenvalues --    0.12885   0.13940   0.14498   0.14583   0.16157
 Alpha virt. eigenvalues --    0.17588   0.19516   0.20021   0.20809   0.21939

 Mulliken charges:
               1
     1  O   -0.426377
     2  C   -0.086050
     3  C    0.339621
     4  C   -0.459811
     5  C    0.397698
     6  O   -0.494600
     7  C   -0.288835
     8  C   -0.218151
     9  C   -0.279389
    10  H    0.291072
    11  H    0.113949
    12  H    0.194982
    13  H    0.281872
    14  H    0.087478
    15  H    0.120299
    16  H    0.103255
    17  H    0.111760
    18  H    0.096218
    19  H    0.115008
 Sum of Mulliken charges =   0.00000

 Dipole moment (field-independent basis, Debye):
    X=             -2.0305    Y=             -0.9355    Z=              1.2023  Tot=              2.5384
 Quadrupole moment (field-independent basis, Debye-Ang):
   XX=            -50.0482   YY=            -53.9766   ZZ=            -51.3506
   XY=             -3.2560   XZ=             -0.7027   YZ=              2.6928

  Exact polarizability:  91.110  -9.363  73.740   3.116  -0.719  64.678
 Approx polarizability: 124.579 -18.689 111.542   6.999  -3.477  99.171

                      1                      2                      3
                      A                      A                      A
 Frequencies --     79.6212               132.7364               146.4687
 Red. masses --      4.4673                 3.5228                 2.4829
 Frc consts  --      0.0167                 0.0366                 0.0314
 IR Inten    --      1.2578                 1.2891                 1.0613

                      4                      5                      6
                      A                      A                      A
 Frequencies --    223.0855               232.8047               245.3239
 Red. masses --      3.5265                 3.2326                 1.1009
 Frc consts  --      0.1034                 0.1032                 0.0390
 IR Inten    --      1.1750                 2.6695                67.3050

                      7                      8                      9
                      A                      A                      A
 Frequencies --    311.3818               343.9511               385.2118
 Red. masses --      3.1654                 2.8420                 4.1904
 Frc consts  --      0.1808                 0.1981                 0.3664
 IR Inten    --     11.2773                 6.1678                 9.0805

                     10                     11                     12
                      A                      A                      A
 Frequencies --    444.0175               494.7150               520.1007
 Red. masses --      1.3591                 3.4903                 3.7568
 Frc consts  --      0.1579                 0.5033                 0.5987
 IR Inten    --     79.1505                34.9338                19.4894

                     13                     14                     15
                      A                      A                      A
 Frequencies --    583.9815               625.4490               665.2617
 Red. masses --      5.8491                 1.2495                 1.2549
 Frc consts  --      1.1753                 0.2880                 0.3272
 IR Inten    --      7.4386                38.0793                34.4502

                     16                     17                     18
                      A                      A                      A
 Frequencies --    676.0615               788.4680               790.1676
 Red. masses --      1.6854                 1.3752                 2.1676
 Frc consts  --      0.4539                 0.5037                 0.7974
 IR Inten    --      5.8486                 7.4711                31.7882

                     19                     20                     21
                      A                      A                      A
 Frequencies --    831.7835               897.2827               927.2912
 Red. masses --      2.5272                 2.1888                 2.6198
 Frc consts  --      1.0302                 1.0383                 1.3272
 IR Inten    --     10.8495                 0.6011                 0.6407

                     22                     23                     24
                      A                      A                      A
 Frequencies --    970.1442               990.4420              1029.9274
 Red. masses --      3.3802                 2.3324                 1.2698
 Frc consts  --      1.8744                 1.3481                 0.7936
 IR Inten    --     14.5126                24.4789                12.4545

                     25                     26                     27
                      A                      A                      A
 Frequencies --   1060.7621              1094.8750              1118.3561
 Red. masses --      4.6483                 2.9073                 2.3781
 Frc consts  --      3.0816                 2.0534                 1.7524
 IR Inten    --     94.0020                22.4848                 1.4209

                     28                     29                     30
                      A                      A                      A
 Frequencies --   1164.0229              1194.8753              1211.7768
 Red. masses --      2.2841                 1.3790                 1.3740
 Frc consts  --      1.8235                 1.1600                 1.1887
 IR Inten    --    112.5605                 0.4653                 2.5329

                     31                     32                     33
                      A                      A                      A
 Frequencies --   1243.6402              1264.6709              1269.4898
 Red. masses --      1.2003                 1.4442                 1.4357
 Frc consts  --      1.0938                 1.3609                 1.3632
 IR Inten    --      0.4201                 3.2361                 0.5409

                     34                     35                     36
                      A                      A                      A
 Frequencies --   1297.2377              1334.5027              1393.9307
 Red. masses --      1.5526                 1.4663                 1.8535
 Frc consts  --      1.5394                 1.5386                 2.1219
 IR Inten    --     54.6399                11.0267                37.0202

                     37                     38                     39
                      A                      A                      A
 Frequencies --   1434.5227              1472.8321              1487.6136
 Red. masses --      1.1935                 1.0892                 1.0840
 Frc consts  --      1.4470                 1.3921                 1.4134
 IR Inten    --     66.2590                 3.6321                 3.3774

                     40                     41                     42
                      A                      A                      A
 Frequencies --   1507.4602              2233.0198              3044.8201
 Red. masses --      1.1303                 5.8942                 1.0637
 Frc consts  --      1.5134                17.3164                 5.8100
 IR Inten    --      4.5531                 1.4769                31.6357

                     43                     44                     45
                      A                      A                      A
 Frequencies --   3049.0753              3056.4589              3072.1335
 Red. masses --      1.0833                 1.0614                 1.0606
 Frc consts  --      5.9339                 5.8419                 5.8978
 IR Inten    --     13.8903                20.1609                30.6761

                     46                     47                     48
                      A                      A                      A
 Frequencies --   3109.1767              3115.4350              3128.3949
 Red. masses --      1.1034                 1.1032                 1.1070
 Frc consts  --      6.2848                 6.3086                 6.3832
 IR Inten    --      7.5282                13.0000                45.0902

                     49                     50                     51
                      A                      A                      A
 Frequencies --   3502.6756              3773.5398              3829.4165
 Red. masses --      1.1626                 1.0651                 1.0662
 Frc consts  --      8.4036                 8.9355                 9.2124
 IR Inten    --     59.5316                39.2604                22.3512

 - Thermochemistry -
 -------------------
 Temperature   298.150 Kelvin.  Pressure   1.00000 Atm.
 Atom     1 has atomic number  8 and mass  15.99491

 Molecular mass:   126.06808 amu.
 Principal axes and moments of inertia in atomic units:
                           1         2         3
     Eigenvalues --   723.283581385.757261573.09296
           X            0.99994  -0.00539   0.00983
           Y            0.00519   0.99978   0.02017
           Z           -0.00993  -0.02012   0.99975
 This molecule is an asymmetric top.
 Rotational symmetry number  1.
 Warning -- assumption of classical behavior for rotation
           may cause significant error
 Rotational temperatures (Kelvin)      0.11975     0.06250     0.05506
 Rotational constants (GHZ):           2.49521     1.30235     1.14726
 Zero-point vibrational energy     411517.7 (Joules/Mol)
                                   98.35510 (Kcal/Mol)
 Warning -- explicit consideration of  13 degrees of freedom as
           vibrations may cause significant error
 Vibrational temperatures:    114.56   190.98   210.74   320.97   334.95
          (Kelvin)            352.97   448.01   494.87   554.23   638.84
                              711.78   748.31   840.22   899.88   957.16
                              972.70  1134.43  1136.87  1196.75  1290.99
                             1334.16  1395.82  1425.02  1481.83  1526.20
                             1575.28  1609.06  1674.77  1719.16  1743.47
                             1789.32  1819.58  1826.51  1866.43  1920.05
                             2005.55  2063.96  2119.07  2140.34  2168.90
                             3212.81  4380.81  4386.93  4397.56  4420.11
                             4473.41  4482.41  4501.06  5039.56  5429.28
                             5509.67

 Zero-point correction=                           0.156739 (Hartree/Particle)
 Thermal correction to Energy=                    0.166238
 Thermal correction to Enthalpy=                  0.167182
 Thermal correction to Gibbs Free Energy=         0.122862
 Sum of electronic and zero-point Energies=           -422.974019
 Sum of electronic and thermal Energies=              -422.964520
 Sum of electronic and thermal Enthalpies=            -422.963576
 Sum of electronic and thermal Free Energies=         -423.007896

                     E (Thermal)             CV                S
                      KCal/Mol        Cal/Mol-Kelvin    Cal/Mol-Kelvin
 Total                  104.316             36.298             93.279
 Electronic               0.000              0.000              0.000
 Translational            0.889              2.981             40.409
 Rotational               0.889              2.981             28.846
 Vibrational            102.539             30.336             24.025
 Vibration     1          0.600              1.963              3.900
 Vibration     2          0.613              1.921              2.906
 Vibration     3          0.617              1.907              2.718
 Vibration     4          0.649              1.806              1.934
 Vibration     5          0.654              1.791              1.857
 Vibration     6          0.660              1.771              1.764
 Vibration     7          0.700              1.652              1.355
 Vibration     8          0.723              1.588              1.194
 Vibration     9          0.754              1.502              1.019
 Vibration    10          0.804              1.374              0.814
 Vibration    11          0.850              1.262              0.671
 Vibration    12          0.875              1.205              0.610
 Vibration    13          0.941              1.066              0.478

 Normal termination of Gaussian 09 at Mon Jan 27 15:09:10 2020.
