 Gaussian 09, Revision D.01,
 Gaussian 09:  ES64L-G09RevD.01 24-Apr-2013

 -----------------------------
 # b3lyp 6-31G(2df,p) opt Freq
 -----------------------------

 -----
 titel
 -----
 Symbolic Z-matrix:
 Charge =  0 Multiplicity = 1

 SCF Done:  E(RB3LYP) =  -423.171569071     A.U. after   14 cycles
 Optimization completed.
    -- Stationary point found.
 Normal termination of Gaussian 09 at Mon Jan 27 13:44:56 2020.

 ----------------------------------------------------------------------
 #N Geom=AllCheck Guess=TCheck SCRF=Check GenChk RB3LYP/6-31G(2df,p) Fr
 eq
 ----------------------------------------------------------------------

 Structure from the checkpoint file:  "/scratch/puck/g09_a2e65c01-c738-4ab3-9c76-cbc7e86498b2/Gau-169606.chk"
 -----
 titel
 -----
 Charge =  0 Multiplicity = 1

                         Standard orientation:
 ---------------------------------------------------------------------
 Center     Atomic      Atomic             Coordinates (Angstroms)
 Number     Number       Type             X           Y           Z
 ---------------------------------------------------------------------
      1          8           0       -3.561520   -0.049845   -0.224460
      2          6           0       -2.461566   -0.294322    0.202489
      3          6           0       -1.311784    0.692862    0.217117
      4          6           0       -0.076284    0.140892   -0.500019
      5          8           0        0.359633   -1.108526    0.095925
      6          6           0        1.745619   -0.836077    0.381134
      7          6           0        1.706378    0.557787    1.049884
      8          6           0        1.226048    0.953579   -0.384332
      9          6           0        2.239000   -0.120948   -0.899745
     10          1           0       -2.212728   -1.290726    0.624966
     11          1           0       -1.644966    1.621784   -0.255831
     12          1           0       -1.064001    0.899608    1.265963
     13          1           0       -0.330643   -0.039002   -1.553401
     14          1           0        2.208945   -1.719482    0.816503
     15          1           0        1.033615    0.693156    1.898909
     16          1           0        2.696259    0.956183    1.276465
     17          1           0        1.212682    1.980252   -0.747477
     18          1           0        2.035336   -0.609579   -1.855577
     19          1           0        3.276134    0.212140   -0.841413
 ---------------------------------------------------------------------

 SCF Done:  E(RB3LYP) =  -423.171569071     A.U. after    1 cycles

 The electronic state is 1-A.
 Alpha  occ. eigenvalues --  -19.14288 -19.13446 -10.26597 -10.24446 -10.24425
 Alpha  occ. eigenvalues --  -10.20873 -10.19458 -10.19419 -10.19360  -1.04877
 Alpha  occ. eigenvalues --   -1.04035  -0.84391  -0.78780  -0.69527  -0.67369
 Alpha  occ. eigenvalues --   -0.59033  -0.57331  -0.55812  -0.52905  -0.49149
 Alpha  occ. eigenvalues --   -0.48395  -0.44004  -0.43253  -0.42734  -0.39506
 Alpha  occ. eigenvalues --   -0.37929  -0.36972  -0.36851  -0.36045  -0.34897
 Alpha  occ. eigenvalues --   -0.32447  -0.31625  -0.25274  -0.24275
 Alpha virt. eigenvalues --   -0.01807   0.08969   0.09411   0.10878   0.11697
 Alpha virt. eigenvalues --    0.13179   0.13557   0.14054   0.15028   0.15938
 Alpha virt. eigenvalues --    0.17833   0.18970   0.19581   0.20178   0.20661

 Mulliken charges:
               1
     1  O   -0.243400
     2  C    0.156883
     3  C   -0.306532
     4  C    0.131823
     5  O   -0.300586
     6  C    0.118703
     7  C   -0.238015
     8  C   -0.079014
     9  C   -0.239183
    10  H    0.097842
    11  H    0.117397
    12  H    0.117954
    13  H    0.086885
    14  H    0.084335
    15  H    0.100929
    16  H    0.106428
    17  H    0.078355
    18  H    0.103812
    19  H    0.105383
 Sum of Mulliken charges =   0.00000

 Dipole moment (field-independent basis, Debye):
    X=              3.6839    Y=              1.1285    Z=              0.5206  Tot=              3.8879
 Quadrupole moment (field-independent basis, Debye-Ang):
   XX=            -63.2559   YY=            -53.5081   ZZ=            -51.4229
   XY=             -0.0451   XZ=             -1.8653   YZ=             -0.2396

  Exact polarizability:  93.354  -1.358  67.712   2.616  -1.156  66.872
 Approx polarizability: 125.210  -2.698 104.667   7.445  -3.043 103.009

                      1                      2                      3
                      A                      A                      A
 Frequencies --     52.8144                71.7141               168.8838
 Red. masses --      4.5241                 3.6032                 3.0045
 Frc consts  --      0.0074                 0.0109                 0.0505
 IR Inten    --      5.5971                 1.5614                 3.2958

                      4                      5                      6
                      A                      A                      A
 Frequencies --    218.2602               337.1786               432.3770
 Red. masses --      3.0600                 3.6831                 3.8433
 Frc consts  --      0.0859                 0.2467                 0.4233
 IR Inten    --      0.8300                 2.2936                10.1519

                      7                      8                      9
                      A                      A                      A
 Frequencies --    489.0936               530.8374               542.2688
 Red. masses --      2.6907                 1.8530                 1.8729
 Frc consts  --      0.3792                 0.3076                 0.3245
 IR Inten    --      4.4671                 4.0321                 9.2938

                     10                     11                     12
                      A                      A                      A
 Frequencies --    654.9917               815.1636               832.5392
 Red. masses --      3.5355                 2.2578                 2.5565
 Frc consts  --      0.8937                 0.8840                 1.0440
 IR Inten    --      3.1679                 1.8697                 7.1858

                     13                     14                     15
                      A                      A                      A
 Frequencies --    842.3428               854.3967               864.7814
 Red. masses --      2.1158                 2.0414                 4.2536
 Frc consts  --      0.8845                 0.8780                 1.8742
 IR Inten    --      2.0851                 3.7014                 7.0924

                     16                     17                     18
                      A                      A                      A
 Frequencies --    877.4390               938.3112               967.6522
 Red. masses --      2.2157                 2.8673                 3.5797
 Frc consts  --      1.0051                 1.4874                 1.9749
 IR Inten    --      0.4220                13.5792                60.7304

                     19                     20                     21
                      A                      A                      A
 Frequencies --    985.2166              1021.8584              1037.0631
 Red. masses --      1.5470                 1.5387                 1.3776
 Frc consts  --      0.8847                 0.9466                 0.8729
 IR Inten    --      4.0475                22.9309                 2.5431

                     22                     23                     24
                      A                      A                      A
 Frequencies --   1051.4963              1072.0652              1100.3514
 Red. masses --      1.9952                 1.7422                 1.7991
 Frc consts  --      1.2997                 1.1797                 1.2834
 IR Inten    --      8.2883                33.5144                27.2564

                     25                     26                     27
                      A                      A                      A
 Frequencies --   1107.0042              1123.4402              1144.2854
 Red. masses --      2.0437                 2.4911                 1.4675
 Frc consts  --      1.4756                 1.8525                 1.1321
 IR Inten    --      6.2786                20.9352                 3.8302

                     28                     29                     30
                      A                      A                      A
 Frequencies --   1211.2256              1223.4695              1241.6138
 Red. masses --      1.3755                 1.3014                 1.5304
 Frc consts  --      1.1890                 1.1477                 1.3900
 IR Inten    --      0.4507                 6.1591                 4.2118

                     31                     32                     33
                      A                      A                      A
 Frequencies --   1248.4245              1280.3993              1288.8166
 Red. masses --      1.6885                 1.4861                 1.4428
 Frc consts  --      1.5505                 1.4355                 1.4120
 IR Inten    --     10.4804                 0.7397                 7.3142

                     34                     35                     36
                      A                      A                      A
 Frequencies --   1299.5284              1354.1498              1399.7339
 Red. masses --      1.5476                 1.4686                 1.3509
 Frc consts  --      1.5399                 1.5866                 1.5594
 IR Inten    --      1.9989                 5.7807                33.9877

                     37                     38                     39
                      A                      A                      A
 Frequencies --   1422.1322              1451.9263              1479.5147
 Red. masses --      1.2046                 1.1009                 1.1011
 Frc consts  --      1.4354                 1.3673                 1.4200
 IR Inten    --      6.8453                 3.5842                 4.2089

                     40                     41                     42
                      A                      A                      A
 Frequencies --   1514.7534              1829.5068              2915.2588
 Red. masses --      1.1299                 9.7673                 1.0837
 Frc consts  --      1.5275                19.2617                 5.4266
 IR Inten    --      4.6724               193.7719                68.2464

                     43                     44                     45
                      A                      A                      A
 Frequencies --   3008.2584              3034.5531              3070.0059
 Red. masses --      1.0840                 1.0606                 1.0569
 Frc consts  --      5.7796                 5.7541                 5.8692
 IR Inten    --     30.1124                 9.4241                37.4305

                     46                     47                     48
                      A                      A                      A
 Frequencies --   3079.4416              3100.3247              3130.2787
 Red. masses --      1.0575                 1.1011                 1.0905
 Frc consts  --      5.9082                 6.2356                 6.2959
 IR Inten    --     14.3231                13.3502                36.6241

                     49                     50                     51
                      A                      A                      A
 Frequencies --   3137.3758              3142.1355              3145.0736
 Red. masses --      1.1098                 1.1021                 1.0982
 Frc consts  --      6.4363                 6.4107                 6.4005
 IR Inten    --     13.2972                27.2208                45.6424

 - Thermochemistry -
 -------------------
 Temperature   298.150 Kelvin.  Pressure   1.00000 Atm.
 Atom     1 has atomic number  8 and mass  15.99491

 Molecular mass:   126.06808 amu.
 Principal axes and moments of inertia in atomic units:
                           1         2         3
     Eigenvalues --   394.410631903.521101964.83941
           X            0.99999   0.00191  -0.00442
           Y           -0.00176   0.99941   0.03426
           Z            0.00449  -0.03426   0.99940
 This molecule is an asymmetric top.
 Rotational symmetry number  1.
 Rotational temperatures (Kelvin)      0.21960     0.04550     0.04408
 Rotational constants (GHZ):           4.57579     0.94811     0.91852
 Zero-point vibrational energy     419540.7 (Joules/Mol)
                                  100.27263 (Kcal/Mol)
 Warning -- explicit consideration of   9 degrees of freedom as
           vibrations may cause significant error
 Vibrational temperatures:     75.99   103.18   242.99   314.03   485.12
          (Kelvin)            622.09   703.70   763.76   780.20   942.39
                             1172.84  1197.84  1211.94  1229.28  1244.23
                             1262.44  1350.02  1392.23  1417.51  1470.22
                             1492.10  1512.87  1542.46  1583.16  1592.73
                             1616.38  1646.37  1742.68  1760.30  1786.40
                             1796.20  1842.21  1854.32  1869.73  1948.32
                             2013.90  2046.13  2089.00  2128.69  2179.39
                             2632.25  4194.40  4328.21  4366.04  4417.05
                             4430.62  4460.67  4503.77  4513.98  4520.83
                             4525.05

 Zero-point correction=                           0.159795 (Hartree/Particle)
 Thermal correction to Energy=                    0.167680
 Thermal correction to Enthalpy=                  0.168624
 Thermal correction to Gibbs Free Energy=         0.126372
 Sum of electronic and zero-point Energies=           -423.011774
 Sum of electronic and thermal Energies=              -423.003889
 Sum of electronic and thermal Enthalpies=            -423.002945
 Sum of electronic and thermal Free Energies=         -423.045197

                     E (Thermal)             CV                S
                      KCal/Mol        Cal/Mol-Kelvin    Cal/Mol-Kelvin
 Total                  105.221             30.017             88.929
 Electronic               0.000              0.000              0.000
 Translational            0.889              2.981             40.409
 Rotational               0.889              2.981             28.780
 Vibrational            103.444             24.055             19.740
 Vibration     1          0.596              1.976              4.709
 Vibration     2          0.598              1.967              4.106
 Vibration     3          0.625              1.881              2.448
 Vibration     4          0.646              1.813              1.973
 Vibration     5          0.718              1.601              1.225
 Vibration     6          0.793              1.400              0.851
 Vibration     7          0.845              1.274              0.686
 Vibration     8          0.886              1.182              0.585
 Vibration     9          0.897              1.157              0.560

 Optimization completed.
    -- Stationary point found.
 Normal termination of Gaussian 09 at Mon Jan 27 14:24:31 2020.
