 Gaussian 09, Revision D.01,
 Gaussian 09:  ES64L-G09RevD.01 24-Apr-2013

 -----------------------------
 # b3lyp 6-31G(2df,p) opt Freq
 -----------------------------

 -----
 titel
 -----
 Symbolic Z-matrix:
 Charge =  0 Multiplicity = 1

 SCF Done:  E(RB3LYP) =  -423.173482410     A.U. after   14 cycles
 Optimization completed.
    -- Stationary point found.
 Normal termination of Gaussian 09 at Mon Jan 27 22:00:51 2020.

 ----------------------------------------------------------------------
 #N Geom=AllCheck Guess=TCheck SCRF=Check GenChk RB3LYP/6-31G(2df,p) Fr
 eq
 ----------------------------------------------------------------------

 Structure from the checkpoint file:  "/scratch/puck/g09_d28f7e74-ba82-4446-8575-b968dd3566b9/Gau-98424.chk"
 -----
 titel
 -----
 Charge =  0 Multiplicity = 1

                         Standard orientation:
 ---------------------------------------------------------------------
 Center     Atomic      Atomic             Coordinates (Angstroms)
 Number     Number       Type             X           Y           Z
 ---------------------------------------------------------------------
      1          6           0       -0.604575    2.290792    0.317293
      2          6           0       -0.374005    1.057003   -0.541558
      3          6           0       -1.293569   -0.154646   -0.297942
      4          8           0       -2.371155   -0.279067    0.215182
      5          6           0       -0.146560   -1.157353   -0.500314
      6          8           0       -0.101021   -2.290732    0.312834
      7          6           0        0.774886    0.064923   -0.237329
      8          6           0        2.242139    0.170072   -0.496411
      9          6           0        1.719265    0.126233    0.924649
     10          1           0        0.189487    3.030193    0.171131
     11          1           0       -1.556720    2.762552    0.058018
     12          1           0       -0.640080    2.029085    1.378654
     13          1           0       -0.371918    1.320161   -1.607573
     14          1           0       -0.062984   -1.479309   -1.546569
     15          1           0       -0.700517   -2.141915    1.054008
     16          1           0        2.756167   -0.705824   -0.880073
     17          1           0        2.631176    1.114838   -0.863771
     18          1           0        1.860613   -0.790046    1.488589
     19          1           0        1.766705    1.036514    1.513132
 ---------------------------------------------------------------------

 SCF Done:  E(RB3LYP) =  -423.173482410     A.U. after    1 cycles

 The electronic state is 1-A.
 Alpha  occ. eigenvalues --  -19.15133 -19.14599 -10.27143 -10.24160 -10.20634
 Alpha  occ. eigenvalues --  -10.20414 -10.19319 -10.19273 -10.18706  -1.05756
 Alpha  occ. eigenvalues --   -1.03087  -0.88298  -0.80654  -0.73453  -0.63508
 Alpha  occ. eigenvalues --   -0.61049  -0.56030  -0.55184  -0.49682  -0.49197
 Alpha  occ. eigenvalues --   -0.48314  -0.45846  -0.43119  -0.42144  -0.39939
 Alpha  occ. eigenvalues --   -0.38280  -0.37506  -0.37108  -0.36651  -0.34875
 Alpha  occ. eigenvalues --   -0.29923  -0.28985  -0.27561  -0.24346
 Alpha virt. eigenvalues --   -0.02581   0.07389   0.09307   0.10589   0.11570
 Alpha virt. eigenvalues --    0.12200   0.14289   0.14563   0.14914   0.15898
 Alpha virt. eigenvalues --    0.17559   0.19401   0.20119   0.22437   0.23962

 Mulliken charges:
               1
     1  C   -0.408074
     2  C   -0.176419
     3  C    0.325700
     4  O   -0.308251
     5  C   -0.008911
     6  O   -0.426678
     7  C    0.283980
     8  C   -0.338658
     9  C   -0.309425
    10  H    0.119864
    11  H    0.134850
    12  H    0.126860
    13  H    0.102387
    14  H    0.110168
    15  H    0.294991
    16  H    0.121060
    17  H    0.114383
    18  H    0.126101
    19  H    0.116072
 Sum of Mulliken charges =   0.00000

 Dipole moment (field-independent basis, Debye):
    X=              1.6757    Y=              1.5697    Z=             -0.4289  Tot=              2.3358
 Quadrupole moment (field-independent basis, Debye-Ang):
   XX=            -59.9103   YY=            -54.5131   ZZ=            -49.6497
   XY=              0.3449   XZ=              0.2350   YZ=             -1.0863

  Exact polarizability:  83.711  -0.157  78.099  -2.340  -0.776  66.548
 Approx polarizability: 122.469   1.393 107.215  -6.657  -3.009 104.956

                      1                      2                      3
                      A                      A                      A
 Frequencies --     66.4617               129.9737               173.1515
 Red. masses --      4.8513                 1.9803                 1.2944
 Frc consts  --      0.0126                 0.0197                 0.0229
 IR Inten    --      4.1809                29.3357                 0.7608

                      4                      5                      6
                      A                      A                      A
 Frequencies --    189.8282               206.0782               212.0361
 Red. masses --      1.9292                 2.3772                 4.0489
 Frc consts  --      0.0410                 0.0595                 0.1073
 IR Inten    --      4.4522                 0.1588                 3.9643

                      7                      8                      9
                      A                      A                      A
 Frequencies --    227.2130               283.6849               411.4881
 Red. masses --      2.0020                 2.3388                 3.5462
 Frc consts  --      0.0609                 0.1109                 0.3538
 IR Inten    --      9.6049                42.6680                 1.6948

                     10                     11                     12
                      A                      A                      A
 Frequencies --    473.3651               527.4040               587.2671
 Red. masses --      3.0821                 4.6720                 3.2668
 Frc consts  --      0.4069                 0.7657                 0.6638
 IR Inten    --      2.0383                 2.5617                 2.1388

                     13                     14                     15
                      A                      A                      A
 Frequencies --    623.0413               750.7176               790.2295
 Red. masses --      4.1835                 2.7085                 1.1303
 Frc consts  --      0.9568                 0.8994                 0.4159
 IR Inten    --      0.2560                 1.7305                 0.5704

                     16                     17                     18
                      A                      A                      A
 Frequencies --    828.5321               832.7575               915.8106
 Red. masses --      2.4153                 2.6419                 1.4193
 Frc consts  --      0.9769                 1.0794                 0.7014
 IR Inten    --      2.5950                 4.7677                 7.7849

                     19                     20                     21
                      A                      A                      A
 Frequencies --    947.2586               956.6373               979.9994
 Red. masses --      4.3782                 2.0427                 3.3022
 Frc consts  --      2.3146                 1.1014                 1.8686
 IR Inten    --     74.9472                 4.1388                14.1411

                     22                     23                     24
                      A                      A                      A
 Frequencies --   1043.4402              1052.5899              1081.9602
 Red. masses --      1.6439                 1.2741                 1.5367
 Frc consts  --      1.0545                 0.8317                 1.0599
 IR Inten    --     10.2609                 9.8272                 0.4183

                     25                     26                     27
                      A                      A                      A
 Frequencies --   1088.4873              1120.1234              1133.4098
 Red. masses --      1.7740                 2.3802                 1.5823
 Frc consts  --      1.2384                 1.7595                 1.1976
 IR Inten    --      3.0760                 2.4689                66.1976

                     28                     29                     30
                      A                      A                      A
 Frequencies --   1174.3043              1190.9136              1229.1962
 Red. masses --      2.1449                 1.2814                 1.5076
 Frc consts  --      1.7427                 1.0707                 1.3421
 IR Inten    --     31.3659                 0.3612                 1.0909

                     31                     32                     33
                      A                      A                      A
 Frequencies --   1246.3126              1311.1498              1347.3078
 Red. masses --      1.6687                 1.8957                 1.7410
 Frc consts  --      1.5271                 1.9201                 1.8620
 IR Inten    --     10.2469                10.0005                 1.9468

                     34                     35                     36
                      A                      A                      A
 Frequencies --   1379.4028              1406.2701              1416.1148
 Red. masses --      2.7888                 1.2275                 1.2603
 Frc consts  --      3.1264                 1.4302                 1.4891
 IR Inten    --      6.7139                 4.1151                45.8176

                     37                     38                     39
                      A                      A                      A
 Frequencies --   1461.3422              1492.1045              1494.0191
 Red. masses --      1.0890                 1.0661                 1.0581
 Frc consts  --      1.3702                 1.3984                 1.3915
 IR Inten    --      1.6434                 4.3986                 3.8100

                     40                     41                     42
                      A                      A                      A
 Frequencies --   1503.4704              1870.0386              3021.1413
 Red. masses --      1.4620                12.7961                 1.0808
 Frc consts  --      1.9470                26.3651                 5.8120
 IR Inten    --      2.2057               243.7671                 1.1499

                     43                     44                     45
                      A                      A                      A
 Frequencies --   3029.9592              3039.6099              3108.4118
 Red. masses --      1.0833                 1.0354                 1.1011
 Frc consts  --      5.8597                 5.6363                 6.2681
 IR Inten    --     32.8937                18.2384                15.3000

                     46                     47                     48
                      A                      A                      A
 Frequencies --   3117.8502              3120.8497              3128.8696
 Red. masses --      1.1008                 1.0533                 1.0548
 Frc consts  --      6.3048                 6.0444                 6.0842
 IR Inten    --     15.4359                17.7317                13.0147

                     49                     50                     51
                      A                      A                      A
 Frequencies --   3201.4110              3218.8386              3788.1380
 Red. masses --      1.1177                 1.1160                 1.0661
 Frc consts  --      6.7493                 6.8126                 9.0136
 IR Inten    --      2.1092                 9.0240                30.5087

 - Thermochemistry -
 -------------------
 Temperature   298.150 Kelvin.  Pressure   1.00000 Atm.
 Atom     1 has atomic number  6 and mass  12.00000

 Molecular mass:   126.06808 amu.
 Principal axes and moments of inertia in atomic units:
                           1         2         3
     Eigenvalues --   894.009711011.744051626.25051
           X            0.99763  -0.06886  -0.00109
           Y            0.06887   0.99759   0.00847
           Z            0.00051  -0.00853   0.99996
 This molecule is an asymmetric top.
 Rotational symmetry number  1.
 Warning -- assumption of classical behavior for rotation
           may cause significant error
 Rotational temperatures (Kelvin)      0.09688     0.08561     0.05326
 Rotational constants (GHZ):           2.01870     1.78379     1.10976
 Zero-point vibrational energy     412292.8 (Joules/Mol)
                                   98.54034 (Kcal/Mol)
 Warning -- explicit consideration of  12 degrees of freedom as
           vibrations may cause significant error
 Vibrational temperatures:     95.62   187.00   249.13   273.12   296.50
          (Kelvin)            305.07   326.91   408.16   592.04   681.07
                              758.82   844.95   896.42  1080.11  1136.96
                             1192.07  1198.15  1317.65  1362.89  1376.39
                             1410.00  1501.28  1514.44  1556.70  1566.09
                             1611.61  1630.72  1689.56  1713.46  1768.54
                             1793.16  1886.45  1938.47  1984.65  2023.31
                             2037.47  2102.54  2146.80  2149.56  2163.16
                             2690.57  4346.74  4359.43  4373.32  4472.31
                             4485.89  4490.20  4501.74  4606.11  4631.19
                             5450.28

 Zero-point correction=                           0.157034 (Hartree/Particle)
 Thermal correction to Energy=                    0.166425
 Thermal correction to Enthalpy=                  0.167369
 Thermal correction to Gibbs Free Energy=         0.122865
 Sum of electronic and zero-point Energies=           -423.016448
 Sum of electronic and thermal Energies=              -423.007057
 Sum of electronic and thermal Enthalpies=            -423.006113
 Sum of electronic and thermal Free Energies=         -423.050617

                     E (Thermal)             CV                S
                      KCal/Mol        Cal/Mol-Kelvin    Cal/Mol-Kelvin
 Total                  104.433             34.551             93.667
 Electronic               0.000              0.000              0.000
 Translational            0.889              2.981             40.409
 Rotational               0.889              2.981             28.777
 Vibrational            102.656             28.589             24.482
 Vibration     1          0.598              1.970              4.256
 Vibration     2          0.612              1.923              2.946
 Vibration     3          0.627              1.876              2.401
 Vibration     4          0.633              1.854              2.230
 Vibration     5          0.641              1.831              2.078
 Vibration     6          0.643              1.823              2.026
 Vibration     7          0.651              1.800              1.901
 Vibration     8          0.682              1.704              1.511
 Vibration     9          0.775              1.445              0.921
 Vibration    10          0.830              1.309              0.728
 Vibration    11          0.882              1.189              0.593
 Vibration    12          0.944              1.059              0.472

 Normal termination of Gaussian 09 at Mon Jan 27 22:50:28 2020.
