 Gaussian 09, Revision D.01,
 Gaussian 09:  ES64L-G09RevD.01 24-Apr-2013

 -----------------------------
 # b3lyp 6-31G(2df,p) opt Freq
 -----------------------------

 -----
 titel
 -----
 Symbolic Z-matrix:
 Charge =  0 Multiplicity = 1

 SCF Done:  E(RB3LYP) =  -423.170797794     A.U. after   14 cycles
 Optimization completed.
    -- Stationary point found.
 Normal termination of Gaussian 09 at Mon Jan 27 18:53:03 2020.

 ----------------------------------------------------------------------
 #N Geom=AllCheck Guess=TCheck SCRF=Check GenChk RB3LYP/6-31G(2df,p) Fr
 eq
 ----------------------------------------------------------------------

 Structure from the checkpoint file:  "/scratch/puck/g09_0f6794bc-6351-4b2b-826b-86fa43604209/Gau-90846.chk"
 -----
 titel
 -----
 Charge =  0 Multiplicity = 1

                         Standard orientation:
 ---------------------------------------------------------------------
 Center     Atomic      Atomic             Coordinates (Angstroms)
 Number     Number       Type             X           Y           Z
 ---------------------------------------------------------------------
      1          6           0       -2.206578   -0.747490   -0.208277
      2          6           0       -0.859931   -0.092338    0.025647
      3          6           0       -0.842697    1.441782    0.034685
      4          8           0        0.558372    1.784130    0.048263
      5          6           0        1.244288    0.629327   -0.364172
      6          6           0        1.324481   -0.586671    0.629990
      7          6           0       -0.060747   -0.546063    1.293544
      8          8           0        1.074573   -1.472982   -0.504263
      9          6           0        0.286698   -0.377777   -1.016138
     10          1           0       -2.902426   -0.541338    0.612665
     11          1           0       -2.669584   -0.388619   -1.134656
     12          1           0       -2.095249   -1.833726   -0.285056
     13          1           0       -1.320725    1.869432   -0.860290
     14          1           0       -1.321400    1.872576    0.920257
     15          1           0        2.171624    0.875873   -0.878494
     16          1           0        2.204540   -0.852064    1.215203
     17          1           0       -0.346158   -1.541103    1.642790
     18          1           0       -0.136197    0.165846    2.119526
     19          1           0        0.038932   -0.440675   -2.075616
 ---------------------------------------------------------------------

 SCF Done:  E(RB3LYP) =  -423.170797794     A.U. after    1 cycles

 The electronic state is 1-A.
 Alpha  occ. eigenvalues --  -19.14276 -19.13769 -10.23457 -10.23433 -10.23278
 Alpha  occ. eigenvalues --  -10.22984 -10.20054 -10.18375 -10.18235  -1.06638
 Alpha  occ. eigenvalues --   -1.02677  -0.81428  -0.74691  -0.71417  -0.68928
 Alpha  occ. eigenvalues --   -0.63557  -0.55464  -0.55110  -0.52584  -0.48164
 Alpha  occ. eigenvalues --   -0.47133  -0.45404  -0.41630  -0.41233  -0.40644
 Alpha  occ. eigenvalues --   -0.39074  -0.37640  -0.35555  -0.33757  -0.33257
 Alpha  occ. eigenvalues --   -0.32958  -0.31114  -0.24598  -0.24339
 Alpha virt. eigenvalues --    0.07695   0.08756   0.11203   0.12272   0.13481
 Alpha virt. eigenvalues --    0.13966   0.14933   0.15151   0.15563   0.16898
 Alpha virt. eigenvalues --    0.17211   0.18551   0.18814   0.19992   0.22128

 Mulliken charges:
               1
     1  C   -0.502027
     2  C    0.267715
     3  C   -0.112601
     4  O   -0.278093
     5  C    0.103689
     6  C    0.032678
     7  C   -0.256949
     8  O   -0.300809
     9  C    0.015247
    10  H    0.118737
    11  H    0.115057
    12  H    0.130913
    13  H    0.092012
    14  H    0.109012
    15  H    0.094734
    16  H    0.078797
    17  H    0.106517
    18  H    0.104891
    19  H    0.080482
 Sum of Mulliken charges =   0.00000

 Dipole moment (field-independent basis, Debye):
    X=             -1.2199    Y=              0.1982    Z=              0.2859  Tot=              1.2685
 Quadrupole moment (field-independent basis, Debye-Ang):
   XX=            -51.1426   YY=            -59.5529   ZZ=            -50.7174
   XY=             -0.0203   XZ=              0.9403   YZ=             -1.8747

  Exact polarizability:  79.506  -1.927  68.940   1.241  -1.818  70.008
 Approx polarizability: 109.963  -4.306 106.201   1.659   0.453 107.108

                      1                      2                      3
                      A                      A                      A
 Frequencies --    212.9898               229.8028               248.6200
 Red. masses --      2.1042                 1.1893                 2.6057
 Frc consts  --      0.0562                 0.0370                 0.0949
 IR Inten    --      0.8839                 0.3494                 0.9938

                      4                      5                      6
                      A                      A                      A
 Frequencies --    321.0516               403.2290               426.6011
 Red. masses --      2.5125                 2.6920                 2.2544
 Frc consts  --      0.1526                 0.2579                 0.2417
 IR Inten    --      2.0044                 1.9043                 2.5712

                      7                      8                      9
                      A                      A                      A
 Frequencies --    504.4188               596.6875               625.9386
 Red. masses --      3.9539                 4.6049                 4.1723
 Frc consts  --      0.5927                 0.9660                 0.9631
 IR Inten    --      8.6005                 1.3829                 0.3061

                     10                     11                     12
                      A                      A                      A
 Frequencies --    697.2871               763.2611               803.0829
 Red. masses --      5.6973                 3.4758                 2.9501
 Frc consts  --      1.6321                 1.1930                 1.1210
 IR Inten    --      4.6589                 3.7046                 3.7316

                     13                     14                     15
                      A                      A                      A
 Frequencies --    841.2443               874.8532               899.4809
 Red. masses --      3.6799                 2.9830                 2.0071
 Frc consts  --      1.5344                 1.3452                 0.9568
 IR Inten    --     10.4893                 3.9407                14.4723

                     16                     17                     18
                      A                      A                      A
 Frequencies --    941.5388               954.8370               963.4675
 Red. masses --      1.8318                 2.2725                 2.6074
 Frc consts  --      0.9568                 1.2207                 1.4260
 IR Inten    --      4.5108                21.0804                21.5719

                     19                     20                     21
                      A                      A                      A
 Frequencies --    973.4156               987.7511              1032.8938
 Red. masses --      2.1229                 2.0679                 1.6774
 Frc consts  --      1.1852                 1.1887                 1.0544
 IR Inten    --     15.5247                 6.5454                 3.5682

                     22                     23                     24
                      A                      A                      A
 Frequencies --   1047.5350              1069.2709              1107.9061
 Red. masses --      2.7615                 1.4557                 4.6015
 Frc consts  --      1.7854                 0.9806                 3.3278
 IR Inten    --      0.8249                 2.6882               131.2176

                     25                     26                     27
                      A                      A                      A
 Frequencies --   1161.1274              1178.6015              1197.0277
 Red. masses --      1.7568                 1.8564                 1.4246
 Frc consts  --      1.3955                 1.5194                 1.2027
 IR Inten    --      0.7387                 1.3438                 0.2714

                     28                     29                     30
                      A                      A                      A
 Frequencies --   1213.3281              1214.4888              1242.0565
 Red. masses --      1.6158                 1.5736                 1.7168
 Frc consts  --      1.4015                 1.3675                 1.5605
 IR Inten    --      2.8226                 4.9051                 1.0798

                     31                     32                     33
                      A                      A                      A
 Frequencies --   1263.0816              1282.3439              1296.1144
 Red. masses --      1.8302                 1.4840                 1.6595
 Frc consts  --      1.7203                 1.4378                 1.6425
 IR Inten    --      6.2680                 1.3738                 1.1898

                     34                     35                     36
                      A                      A                      A
 Frequencies --   1325.3759              1352.2353              1396.5454
 Red. masses --      1.5823                 1.8188                 1.6209
 Frc consts  --      1.6376                 1.9595                 1.8626
 IR Inten    --      7.5997                14.0230                 2.6486

                     37                     38                     39
                      A                      A                      A
 Frequencies --   1415.8992              1477.4903              1494.2529
 Red. masses --      1.2607                 1.1085                 1.0509
 Frc consts  --      1.4891                 1.4257                 1.3824
 IR Inten    --      2.0591                 3.4852                 4.3718

                     40                     41                     42
                      A                      A                      A
 Frequencies --   1499.9982              1523.0924              2984.2423
 Red. masses --      1.0496                 1.0938                 1.0687
 Frc consts  --      1.3915                 1.4950                 5.6074
 IR Inten    --      4.2832                 0.6026                67.6809

                     43                     44                     45
                      A                      A                      A
 Frequencies --   3026.0131              3063.4396              3068.9446
 Red. masses --      1.0358                 1.0629                 1.0905
 Frc consts  --      5.5883                 5.8773                 6.0513
 IR Inten    --     31.2246                 8.2360                39.9508

                     46                     47                     48
                      A                      A                      A
 Frequencies --   3088.7363              3101.2221              3118.4207
 Red. masses --      1.1008                 1.1010                 1.1073
 Frc consts  --      6.1876                 6.2391                 6.3443
 IR Inten    --     25.1369                14.8769                20.0794

                     49                     50                     51
                      A                      A                      A
 Frequencies --   3122.3544              3124.8722              3142.9725
 Red. masses --      1.0896                 1.0907                 1.0931
 Frc consts  --      6.2589                 6.2753                 6.3621
 IR Inten    --     39.2520                32.1582                34.2639

 - Thermochemistry -
 -------------------
 Temperature   298.150 Kelvin.  Pressure   1.00000 Atm.
 Atom     1 has atomic number  6 and mass  12.00000

 Molecular mass:   126.06808 amu.
 Principal axes and moments of inertia in atomic units:
                           1         2         3
     Eigenvalues --   739.35454 834.923441141.53947
           X            0.99685   0.07818   0.01305
           Y           -0.07782   0.99661  -0.02654
           Z           -0.01509   0.02544   0.99956
 This molecule is an asymmetric top.
 Rotational symmetry number  1.
 Warning -- assumption of classical behavior for rotation
           may cause significant error
 Rotational temperatures (Kelvin)      0.11715     0.10374     0.07587
 Rotational constants (GHZ):           2.44097     2.16156     1.58097
 Zero-point vibrational energy     424084.8 (Joules/Mol)
                                  101.35870 (Kcal/Mol)
 Warning -- explicit consideration of   8 degrees of freedom as
           vibrations may cause significant error
 Vibrational temperatures:    306.44   330.63   357.71   461.92   580.16
          (Kelvin)            613.78   725.75   858.50   900.58  1003.24
                             1098.16  1155.46  1210.36  1258.72  1294.15
                             1354.66  1373.80  1386.21  1400.53  1421.15
                             1486.10  1507.17  1538.44  1594.03  1670.60
                             1695.74  1722.25  1745.71  1747.38  1787.04
                             1817.29  1845.00  1864.82  1906.92  1945.56
                             2009.31  2037.16  2125.78  2149.89  2158.16
                             2191.39  4293.65  4353.75  4407.60  4415.52
                             4444.00  4461.96  4486.71  4492.37  4495.99
                             4522.03

 Zero-point correction=                           0.161525 (Hartree/Particle)
 Thermal correction to Energy=                    0.168396
 Thermal correction to Enthalpy=                  0.169340
 Thermal correction to Gibbs Free Energy=         0.130736
 Sum of electronic and zero-point Energies=           -423.009272
 Sum of electronic and thermal Energies=              -423.002402
 Sum of electronic and thermal Enthalpies=            -423.001458
 Sum of electronic and thermal Free Energies=         -423.040062

                     E (Thermal)             CV                S
                      KCal/Mol        Cal/Mol-Kelvin    Cal/Mol-Kelvin
 Total                  105.670             28.740             81.250
 Electronic               0.000              0.000              0.000
 Translational            0.889              2.981             40.409
 Rotational               0.889              2.981             28.046
 Vibrational            103.893             22.778             12.796
 Vibration     1          0.644              1.821              2.018
 Vibration     2          0.652              1.795              1.880
 Vibration     3          0.662              1.765              1.740
 Vibration     4          0.707              1.633              1.305
 Vibration     5          0.769              1.463              0.951
 Vibration     6          0.788              1.412              0.870
 Vibration     7          0.860              1.240              0.647
 Vibration     8          0.955              1.039              0.455

 Normal termination of Gaussian 09 at Mon Jan 27 19:36:32 2020.
