 Gaussian 09, Revision D.01,
 Gaussian 09:  ES64L-G09RevD.01 24-Apr-2013

 -----------------------------
 # b3lyp 6-31G(2df,p) opt Freq
 -----------------------------

 -----
 titel
 -----
 Symbolic Z-matrix:
 Charge =  0 Multiplicity = 1

 SCF Done:  E(RB3LYP) =  -423.202865798     A.U. after   14 cycles
 Optimization completed.
    -- Stationary point found.
 Normal termination of Gaussian 09 at Mon Jan 27 15:38:06 2020.

 ----------------------------------------------------------------------
 #N Geom=AllCheck Guess=TCheck SCRF=Check GenChk RB3LYP/6-31G(2df,p) Fr
 eq
 ----------------------------------------------------------------------

 Structure from the checkpoint file:  "/scratch/puck/g09_19a0561d-360d-495b-aae4-a894ae30a5d5/Gau-68249.chk"
 -----
 titel
 -----
 Charge =  0 Multiplicity = 1

                         Standard orientation:
 ---------------------------------------------------------------------
 Center     Atomic      Atomic             Coordinates (Angstroms)
 Number     Number       Type             X           Y           Z
 ---------------------------------------------------------------------
      1          6           0       -1.797655    1.788239   -0.064617
      2          6           0       -1.177914    0.395932   -0.256431
      3          6           0       -2.123192   -0.674909    0.256166
      4          8           0       -2.472910   -1.645365   -0.364009
      5          6           0        0.162141    0.260807    0.482325
      6          6           0        0.974274   -1.055228    0.249815
      7          6           0        2.197355   -0.184256   -0.073137
      8          8           0        3.363667   -0.407774   -0.209076
      9          6           0        1.357893    1.105601   -0.068131
     10          1           0       -2.721426    1.895624   -0.640762
     11          1           0       -2.033172    1.972718    0.989746
     12          1           0       -1.103304    2.567752   -0.391391
     13          1           0       -1.018249    0.194155   -1.322345
     14          1           0       -2.475603   -0.504816    1.302600
     15          1           0        0.014010    0.447631    1.550995
     16          1           0        1.089043   -1.742915    1.091388
     17          1           0        0.631336   -1.629859   -0.617765
     18          1           0        1.740326    1.922091    0.549342
     19          1           0        1.193574    1.485627   -1.083066
 ---------------------------------------------------------------------

 SCF Done:  E(RB3LYP) =  -423.202865798     A.U. after    1 cycles

 The electronic state is 1-A.
 Alpha  occ. eigenvalues --  -19.14743 -19.14183 -10.27704 -10.27665 -10.21745
 Alpha  occ. eigenvalues --  -10.21044 -10.20227 -10.19871 -10.19859  -1.05413
 Alpha  occ. eigenvalues --   -1.05109  -0.86631  -0.79532  -0.69515  -0.67548
 Alpha  occ. eigenvalues --   -0.61954  -0.58041  -0.53684  -0.49625  -0.47935
 Alpha  occ. eigenvalues --   -0.46247  -0.45482  -0.43745  -0.42324  -0.41461
 Alpha  occ. eigenvalues --   -0.41243  -0.39579  -0.38369  -0.36638  -0.35093
 Alpha  occ. eigenvalues --   -0.34243  -0.33660  -0.25626  -0.24798
 Alpha virt. eigenvalues --   -0.03177  -0.02376   0.07448   0.09281   0.09954
 Alpha virt. eigenvalues --    0.12400   0.13075   0.13887   0.15065   0.15784
 Alpha virt. eigenvalues --    0.16631   0.17551   0.18305   0.18946   0.20035

 Mulliken charges:
               1
     1  C   -0.417121
     2  C   -0.082701
     3  C    0.169635
     4  O   -0.251466
     5  C    0.016677
     6  C   -0.374754
     7  C    0.407126
     8  O   -0.284729
     9  C   -0.370604
    10  H    0.131794
    11  H    0.123971
    12  H    0.131772
    13  H    0.093632
    14  H    0.071568
    15  H    0.085236
    16  H    0.135230
    17  H    0.147728
    18  H    0.133322
    19  H    0.133685
 Sum of Mulliken charges =   0.00000

 Dipole moment (field-independent basis, Debye):
    X=             -1.5338    Y=              2.6937    Z=              1.1730  Tot=              3.3143
 Quadrupole moment (field-independent basis, Debye-Ang):
   XX=            -69.6979   YY=            -55.3828   ZZ=            -51.0073
   XY=             -3.6207   XZ=             -0.7090   YZ=             -1.7240

  Exact polarizability:  88.870   0.887  78.801  -1.830   0.761  63.391
 Approx polarizability: 121.169   3.919 116.200  -1.750   5.983 101.977

                      1                      2                      3
                      A                      A                      A
 Frequencies --     39.7213                55.5712                80.4007
 Red. masses --      5.5648                 4.8633                 2.9661
 Frc consts  --      0.0052                 0.0088                 0.0113
 IR Inten    --      4.2602                 7.2570                 1.1464

                      4                      5                      6
                      A                      A                      A
 Frequencies --    167.9888               211.3355               267.7382
 Red. masses --      2.7457                 1.0264                 2.8123
 Frc consts  --      0.0457                 0.0270                 0.1188
 IR Inten    --      0.9583                 0.2876                 1.7372

                      7                      8                      9
                      A                      A                      A
 Frequencies --    281.0578               359.7145               389.6957
 Red. masses --      2.3326                 4.1714                 2.9184
 Frc consts  --      0.1086                 0.3180                 0.2611
 IR Inten    --      2.7774                 1.2792                 3.1823

                     10                     11                     12
                      A                      A                      A
 Frequencies --    429.7175               488.8643               525.7750
 Red. masses --      1.8883                 3.4468                 3.2797
 Frc consts  --      0.2054                 0.4853                 0.5342
 IR Inten    --      1.5585                 0.8201                 9.9680

                     13                     14                     15
                      A                      A                      A
 Frequencies --    660.6111               676.0349               762.4675
 Red. masses --      1.4411                 3.5969                 2.2315
 Frc consts  --      0.3705                 0.9685                 0.7643
 IR Inten    --      0.3548                 1.9730                 2.1697

                     16                     17                     18
                      A                      A                      A
 Frequencies --    886.6806               908.5990               926.4966
 Red. masses --      1.9646                 2.9980                 1.9311
 Frc consts  --      0.9100                 1.4582                 0.9767
 IR Inten    --     12.4726                21.9879                 0.7034

                     19                     20                     21
                      A                      A                      A
 Frequencies --    960.8058               988.4434               995.7333
 Red. masses --      1.7299                 1.4690                 1.7246
 Frc consts  --      0.9409                 0.8456                 1.0074
 IR Inten    --      2.2271                 8.1696                15.8688

                     22                     23                     24
                      A                      A                      A
 Frequencies --   1031.1767              1085.8501              1122.2148
 Red. masses --      2.6087                 4.0228                 2.3967
 Frc consts  --      1.6344                 2.7946                 1.7784
 IR Inten    --      1.2504                32.6776                10.7272

                     25                     26                     27
                      A                      A                      A
 Frequencies --   1134.0352              1158.6976              1194.6380
 Red. masses --      2.1098                 1.9051                 1.3861
 Frc consts  --      1.5986                 1.5070                 1.1655
 IR Inten    --      7.2269                13.7971                 2.9899

                     28                     29                     30
                      A                      A                      A
 Frequencies --   1208.5105              1239.8566              1265.0687
 Red. masses --      1.7708                 1.5611                 1.3159
 Frc consts  --      1.5238                 1.4139                 1.2408
 IR Inten    --      0.2726                 1.2589                 5.7232

                     31                     32                     33
                      A                      A                      A
 Frequencies --   1281.3111              1323.0724              1377.9123
 Red. masses --      1.4098                 1.3750                 1.3840
 Frc consts  --      1.3637                 1.4182                 1.5482
 IR Inten    --     10.2368                 4.9237                 5.7263

                     34                     35                     36
                      A                      A                      A
 Frequencies --   1406.6226              1425.8230              1427.5693
 Red. masses --      1.2144                 1.1082                 1.1680
 Frc consts  --      1.4157                 1.3273                 1.4025
 IR Inten    --      3.4730                15.5478                 1.6305

                     37                     38                     39
                      A                      A                      A
 Frequencies --   1446.4377              1495.6219              1499.5959
 Red. masses --      1.1210                 1.0553                 1.0427
 Frc consts  --      1.3819                 1.3909                 1.3815
 IR Inten    --      2.1987                 4.1676                 7.4166

                     40                     41                     42
                      A                      A                      A
 Frequencies --   1832.9206              1898.0410              2839.0869
 Red. masses --     10.4553                12.6706                 1.0811
 Frc consts  --     20.6954                26.8943                 5.1343
 IR Inten    --    161.6079               301.4129               102.8337

                     43                     44                     45
                      A                      A                      A
 Frequencies --   3034.0891              3041.5485              3048.1673
 Red. masses --      1.0363                 1.0827                 1.0613
 Frc consts  --      5.6209                 5.9014                 5.8101
 IR Inten    --     16.1420                 0.7684                 6.7102

                     46                     47                     48
                      A                      A                      A
 Frequencies --   3055.1317              3058.1305              3103.3360
 Red. masses --      1.0688                 1.0782                 1.0998
 Frc consts  --      5.8778                 5.9411                 6.2408
 IR Inten    --      2.9740                27.6623                22.2066

                     49                     50                     51
                      A                      A                      A
 Frequencies --   3112.9053              3114.1685              3114.5374
 Red. masses --      1.1023                 1.1022                 1.1030
 Frc consts  --      6.2936                 6.2978                 6.3038
 IR Inten    --      6.3608                17.2089                13.4995

 - Thermochemistry -
 -------------------
 Temperature   298.150 Kelvin.  Pressure   1.00000 Atm.
 Atom     1 has atomic number  6 and mass  12.00000

 Molecular mass:   126.06808 amu.
 Principal axes and moments of inertia in atomic units:
                           1         2         3
     Eigenvalues --   590.499901874.389922332.15933
           X            0.99969  -0.02484  -0.00235
           Y            0.02481   0.99959  -0.01420
           Z            0.00270   0.01413   0.99990
 This molecule is an asymmetric top.
 Rotational symmetry number  1.
 Warning -- assumption of classical behavior for rotation
           may cause significant error
 Rotational temperatures (Kelvin)      0.14668     0.04621     0.03714
 Rotational constants (GHZ):           3.05629     0.96284     0.77385
 Zero-point vibrational energy     409359.3 (Joules/Mol)
                                   97.83922 (Kcal/Mol)
 Warning -- explicit consideration of  12 degrees of freedom as
           vibrations may cause significant error
 Vibrational temperatures:     57.15    79.95   115.68   241.70   304.06
          (Kelvin)            385.22   404.38   517.55   560.68   618.27
                              703.37   756.47   950.47   972.66  1097.02
                             1275.73  1307.27  1333.02  1382.38  1422.15
                             1432.64  1483.63  1562.29  1614.61  1631.62
                             1667.11  1718.82  1738.77  1783.87  1820.15
                             1843.52  1903.60  1982.51  2023.81  2051.44
                             2053.95  2081.10  2151.86  2157.58  2637.16
                             2730.85  4084.81  4365.37  4376.10  4385.63
                             4395.65  4399.96  4465.00  4478.77  4480.59
                             4481.12

 Zero-point correction=                           0.155917 (Hartree/Particle)
 Thermal correction to Energy=                    0.165526
 Thermal correction to Enthalpy=                  0.166470
 Thermal correction to Gibbs Free Energy=         0.120064
 Sum of electronic and zero-point Energies=           -423.046949
 Sum of electronic and thermal Energies=              -423.037340
 Sum of electronic and thermal Enthalpies=            -423.036396
 Sum of electronic and thermal Free Energies=         -423.082802

                     E (Thermal)             CV                S
                      KCal/Mol        Cal/Mol-Kelvin    Cal/Mol-Kelvin
 Total                  103.869             34.237             97.670
 Electronic               0.000              0.000              0.000
 Translational            0.889              2.981             40.409
 Rotational               0.889              2.981             29.336
 Vibrational            102.092             28.275             27.926
 Vibration     1          0.594              1.981              5.273
 Vibration     2          0.596              1.975              4.609
 Vibration     3          0.600              1.962              3.881
 Vibration     4          0.625              1.882              2.458
 Vibration     5          0.643              1.824              2.032
 Vibration     6          0.673              1.732              1.611
 Vibration     7          0.681              1.709              1.527
 Vibration     8          0.734              1.555              1.123
 Vibration     9          0.758              1.492              1.001
 Vibration    10          0.791              1.406              0.860
 Vibration    11          0.845              1.275              0.687
 Vibration    12          0.881              1.193              0.597

 Normal termination of Gaussian 09 at Mon Jan 27 16:26:17 2020.
