 Gaussian 09, Revision D.01,
 Gaussian 09:  ES64L-G09RevD.01 24-Apr-2013

 -----------------------------
 # b3lyp 6-31G(2df,p) opt Freq
 -----------------------------

 -----
 titel
 -----
 Symbolic Z-matrix:
 Charge =  0 Multiplicity = 1

 SCF Done:  E(RB3LYP) =  -423.219022002     A.U. after   14 cycles
 SCF Done:  E(RB3LYP) =  -423.219021923     A.U. after    7 cycles
 Optimization completed.
    -- Stationary point found.
 Normal termination of Gaussian 09 at Tue Jan 28 00:49:56 2020.

 ----------------------------------------------------------------------
 #N Geom=AllCheck Guess=TCheck SCRF=Check GenChk RB3LYP/6-31G(2df,p) Fr
 eq
 ----------------------------------------------------------------------

 Structure from the checkpoint file:  "/scratch/puck/g09_c2fb564b-3f7d-4df6-b93a-3372922ef593/Gau-81647.chk"
 -----
 titel
 -----
 Charge =  0 Multiplicity = 1

                         Standard orientation:
 ---------------------------------------------------------------------
 Center     Atomic      Atomic             Coordinates (Angstroms)
 Number     Number       Type             X           Y           Z
 ---------------------------------------------------------------------
      1          6           0        2.907418   -0.052196   -0.053577
      2          6           0        1.439700    0.309118   -0.024421
      3          8           0        1.035298    1.368375   -0.457519
      4          6           0        0.473834   -0.736755    0.551725
      5          6           0       -0.716086   -0.098586    1.311249
      6          6           0       -1.845431    0.054055    0.259667
      7          8           0       -1.907285    1.340958   -0.330986
      8          6           0       -1.479052   -1.013066   -0.755295
      9          6           0       -0.224413   -1.435478   -0.608001
     10          1           0        3.049314   -1.020260   -0.547764
     11          1           0        3.481001    0.718960   -0.568565
     12          1           0        3.278557   -0.167091    0.971764
     13          1           0        1.039632   -1.439447    1.172616
     14          1           0       -1.032963   -0.789133    2.098439
     15          1           0       -0.477103    0.862086    1.771659
     16          1           0       -2.833156   -0.106858    0.703544
     17          1           0       -0.998268    1.564782   -0.587430
     18          1           0       -2.157157   -1.318353   -1.544007
     19          1           0        0.290218   -2.141915   -1.250306
 ---------------------------------------------------------------------

 SCF Done:  E(RB3LYP) =  -423.219021923     A.U. after    1 cycles

 The electronic state is 1-A.
 Alpha  occ. eigenvalues --  -19.14572 -19.11138 -10.28336 -10.22623 -10.20515
 Alpha  occ. eigenvalues --  -10.20051 -10.19413 -10.18388 -10.18284  -1.05491
 Alpha  occ. eigenvalues --   -0.99738  -0.84454  -0.76431  -0.71838  -0.69940
 Alpha  occ. eigenvalues --   -0.60190  -0.55189  -0.52899  -0.51302  -0.48557
 Alpha  occ. eigenvalues --   -0.46459  -0.45106  -0.43656  -0.42381  -0.40524
 Alpha  occ. eigenvalues --   -0.39134  -0.37786  -0.36844  -0.35979  -0.34347
 Alpha  occ. eigenvalues --   -0.30898  -0.27960  -0.25154  -0.24395
 Alpha virt. eigenvalues --   -0.03210   0.01896   0.08071   0.11003   0.12767
 Alpha virt. eigenvalues --    0.13481   0.14272   0.14912   0.16146   0.16847
 Alpha virt. eigenvalues --    0.17244   0.19206   0.20121   0.21040   0.21300

 Mulliken charges:
               1
     1  C   -0.480322
     2  C    0.398683
     3  O   -0.310975
     4  C   -0.152445
     5  C   -0.264322
     6  C    0.101011
     7  O   -0.441746
     8  C   -0.078037
     9  C   -0.079622
    10  H    0.143989
    11  H    0.146364
    12  H    0.147744
    13  H    0.078204
    14  H    0.104022
    15  H    0.113889
    16  H    0.080905
    17  H    0.289814
    18  H    0.102363
    19  H    0.100480
 Sum of Mulliken charges =   0.00000

 Dipole moment (field-independent basis, Debye):
    X=              2.5327    Y=             -3.0293    Z=              1.0116  Tot=              4.0761
 Quadrupole moment (field-independent basis, Debye-Ang):
   XX=            -51.0444   YY=            -56.9994   ZZ=            -51.6897
   XY=              1.5893   XZ=             -0.0159   YZ=              2.0088

  Exact polarizability:  94.962  -3.868  70.946   2.045   1.310  64.852
 Approx polarizability: 133.503 -12.178 116.409   5.881  -3.356  97.040

                      1                      2                      3
                      A                      A                      A
 Frequencies --     55.5809               141.7109               149.0014
 Red. masses --      4.0035                 4.4223                 1.1283
 Frc consts  --      0.0073                 0.0523                 0.0148
 IR Inten    --      0.6983                 1.8743                 0.1845

                      4                      5                      6
                      A                      A                      A
 Frequencies --    178.3762               237.9372               320.3257
 Red. masses --      3.7230                 3.7504                 3.5759
 Frc consts  --      0.0698                 0.1251                 0.2162
 IR Inten    --      0.4502                 4.1618                 2.1572

                      7                      8                      9
                      A                      A                      A
 Frequencies --    343.7592               414.1625               498.2127
 Red. masses --      2.9709                 2.2513                 3.2373
 Frc consts  --      0.2068                 0.2275                 0.4734
 IR Inten    --      1.2235                 0.5087                 6.0238

                     10                     11                     12
                      A                      A                      A
 Frequencies --    572.6794               598.9734               608.7899
 Red. masses --      1.4438                 2.3838                 2.0154
 Frc consts  --      0.2790                 0.5039                 0.4401
 IR Inten    --     45.1336                25.7937                25.5853

                     13                     14                     15
                      A                      A                      A
 Frequencies --    735.0319               755.1045               788.1320
 Red. masses --      2.2193                 3.2433                 3.7035
 Frc consts  --      0.7065                 1.0896                 1.3554
 IR Inten    --     10.0551                 1.4647                 2.9583

                     16                     17                     18
                      A                      A                      A
 Frequencies --    813.4469               862.7348               924.5024
 Red. masses --      2.0424                 2.7157                 2.7664
 Frc consts  --      0.7962                 1.1910                 1.3931
 IR Inten    --     28.7306                 1.1823                 1.0821

                     19                     20                     21
                      A                      A                      A
 Frequencies --    946.4075               969.0713               977.0759
 Red. masses --      1.8526                 2.5047                 1.3611
 Frc consts  --      0.9777                 1.3859                 0.7656
 IR Inten    --      6.0433                23.4958                 1.2061

                     22                     23                     24
                      A                      A                      A
 Frequencies --   1002.6746              1043.2581              1060.5287
 Red. masses --      2.2993                 1.9246                 2.0668
 Frc consts  --      1.3620                 1.2342                 1.3696
 IR Inten    --     19.1199                 4.9064                19.6294

                     25                     26                     27
                      A                      A                      A
 Frequencies --   1090.3974              1129.8018              1183.0502
 Red. masses --      2.4439                 1.1429                 2.1127
 Frc consts  --      1.7120                 0.8595                 1.7422
 IR Inten    --     58.4396                 4.8541                81.5969

                     28                     29                     30
                      A                      A                      A
 Frequencies --   1201.6925              1224.5569              1285.7840
 Red. masses --      1.2151                 1.5488                 1.6588
 Frc consts  --      1.0338                 1.3684                 1.6157
 IR Inten    --     15.2037                 9.5213                15.3061

                     31                     32                     33
                      A                      A                      A
 Frequencies --   1306.7828              1322.8813              1352.3636
 Red. masses --      1.3363                 1.3000                 1.4496
 Frc consts  --      1.3445                 1.3404                 1.5620
 IR Inten    --      1.0348                12.1817                15.4332

                     34                     35                     36
                      A                      A                      A
 Frequencies --   1365.9114              1383.0675              1459.6504
 Red. masses --      1.6318                 1.3643                 1.0571
 Frc consts  --      1.7937                 1.5376                 1.3270
 IR Inten    --      4.5331                42.0662                12.9347

                     37                     38                     39
                      A                      A                      A
 Frequencies --   1470.3174              1473.3354              1476.9726
 Red. masses --      1.1103                 1.0500                 1.1657
 Frc consts  --      1.4143                 1.3429                 1.4983
 IR Inten    --     27.3560                 8.2396                65.7186

                     40                     41                     42
                      A                      A                      A
 Frequencies --   1670.1616              1791.3011              3033.2391
 Red. masses --      6.3681                 9.9620                 1.0389
 Frc consts  --     10.4659                18.8336                 5.6315
 IR Inten    --      0.8545               107.0697                 0.2354

                     43                     44                     45
                      A                      A                      A
 Frequencies --   3046.3186              3054.7180              3068.9802
 Red. masses --      1.0788                 1.0799                 1.0721
 Frc consts  --      5.8985                 5.9369                 5.9494
 IR Inten    --     13.3553                36.7347                46.7634

                     46                     47                     48
                      A                      A                      A
 Frequencies --   3092.9411              3121.6811              3154.4218
 Red. masses --      1.0976                 1.1024                 1.1020
 Frc consts  --      6.1866                 6.3295                 6.4605
 IR Inten    --      6.0530                12.4455                 9.6355

                     49                     50                     51
                      A                      A                      A
 Frequencies --   3182.7039              3211.2831              3683.9726
 Red. masses --      1.0852                 1.1036                 1.0659
 Frc consts  --      6.4767                 6.7053                 8.5233
 IR Inten    --      6.6052                15.1188               122.0697

 - Thermochemistry -
 -------------------
 Temperature   298.150 Kelvin.  Pressure   1.00000 Atm.
 Atom     1 has atomic number  6 and mass  12.00000

 Molecular mass:   126.06808 amu.
 Principal axes and moments of inertia in atomic units:
                           1         2         3
     Eigenvalues --   622.304151369.902861586.41988
           X            0.99998  -0.00655  -0.00248
           Y            0.00662   0.99953   0.02982
           Z            0.00228  -0.02983   0.99955
 This molecule is an asymmetric top.
 Rotational symmetry number  1.
 Warning -- assumption of classical behavior for rotation
           may cause significant error
 Rotational temperatures (Kelvin)      0.13918     0.06323     0.05460
 Rotational constants (GHZ):           2.90010     1.31742     1.13762
 Zero-point vibrational energy     417710.6 (Joules/Mol)
                                   99.83524 (Kcal/Mol)
 Warning -- explicit consideration of  12 degrees of freedom as
           vibrations may cause significant error
 Vibrational temperatures:     79.97   203.89   214.38   256.64   342.34
          (Kelvin)            460.88   494.59   595.89   716.82   823.96
                              861.79   875.91  1057.55  1086.43  1133.94
                             1170.37  1241.28  1330.15  1361.67  1394.28
                             1405.79  1442.62  1501.01  1525.86  1568.84
                             1625.53  1702.14  1728.97  1761.86  1849.95
                             1880.17  1903.33  1945.75  1965.24  1989.92
                             2100.11  2115.46  2119.80  2125.03  2402.99
                             2577.28  4364.15  4382.97  4395.05  4415.57
                             4450.05  4491.40  4538.50  4579.20  4620.31
                             5300.41

 Zero-point correction=                           0.159098 (Hartree/Particle)
 Thermal correction to Energy=                    0.167797
 Thermal correction to Enthalpy=                  0.168742
 Thermal correction to Gibbs Free Energy=         0.125487
 Sum of electronic and zero-point Energies=           -423.059924
 Sum of electronic and thermal Energies=              -423.051225
 Sum of electronic and thermal Enthalpies=            -423.050280
 Sum of electronic and thermal Free Energies=         -423.093534

                     E (Thermal)             CV                S
                      KCal/Mol        Cal/Mol-Kelvin    Cal/Mol-Kelvin
 Total                  105.294             32.892             91.036
 Electronic               0.000              0.000              0.000
 Translational            0.889              2.981             40.409
 Rotational               0.889              2.981             28.694
 Vibrational            103.517             26.930             21.934
 Vibration     1          0.596              1.975              4.608
 Vibration     2          0.615              1.912              2.781
 Vibration     3          0.618              1.904              2.685
 Vibration     4          0.629              1.869              2.345
 Vibration     5          0.656              1.783              1.818
 Vibration     6          0.706              1.635              1.308
 Vibration     7          0.723              1.588              1.195
 Vibration     8          0.778              1.439              0.912
 Vibration     9          0.854              1.254              0.663
 Vibration    10          0.929              1.090              0.499
 Vibration    11          0.957              1.034              0.451
 Vibration    12          0.968              1.013              0.435

 Normal termination of Gaussian 09 at Tue Jan 28 01:32:07 2020.
