 Gaussian 09, Revision D.01,
 Gaussian 09:  ES64L-G09RevD.01 24-Apr-2013

 -----------------------------
 # b3lyp 6-31G(2df,p) opt Freq
 -----------------------------

 -----
 titel
 -----
 Symbolic Z-matrix:
 Charge =  0 Multiplicity = 1

 SCF Done:  E(RB3LYP) =  -423.150017865     A.U. after   14 cycles
 Optimization completed.
    -- Stationary point found.
 Normal termination of Gaussian 09 at Tue Jan 28 09:15:15 2020.

 ----------------------------------------------------------------------
 #N Geom=AllCheck Guess=TCheck SCRF=Check GenChk RB3LYP/6-31G(2df,p) Fr
 eq
 ----------------------------------------------------------------------

 Structure from the checkpoint file:  "/scratch/puck/g09_f5aac738-0068-4eca-a671-ca03dd2b3717/Gau-129699.chk"
 -----
 titel
 -----
 Charge =  0 Multiplicity = 1

                         Standard orientation:
 ---------------------------------------------------------------------
 Center     Atomic      Atomic             Coordinates (Angstroms)
 Number     Number       Type             X           Y           Z
 ---------------------------------------------------------------------
      1          6           0        2.771169    0.153791    0.406562
      2          8           0        1.908659   -0.590324   -0.447268
      3          6           0        0.583511   -0.388162   -0.197175
      4          6           0       -0.570418   -0.958063   -1.071043
      5          6           0       -1.333466   -0.192675    0.075592
      6          6           0       -2.812995   -0.042066    0.270673
      7          6           0       -0.284312   -0.828380    1.053596
      8          6           0       -0.267942    0.898512   -0.142145
      9          8           0       -0.172410    2.087192   -0.210590
     10          1           0        2.673371   -0.170767    1.451588
     11          1           0        3.790559   -0.039406    0.068207
     12          1           0        2.561053    1.227788    0.343431
     13          1           0       -0.667519   -0.576234   -2.089237
     14          1           0       -0.671769   -2.045206   -1.026798
     15          1           0       -3.303470   -1.012994    0.392921
     16          1           0       -3.026709    0.559302    1.160114
     17          1           0       -3.268116    0.461513   -0.588227
     18          1           0       -0.116537   -0.325254    2.008044
     19          1           0       -0.374136   -1.911424    1.166456
 ---------------------------------------------------------------------

 SCF Done:  E(RB3LYP) =  -423.150017865     A.U. after    1 cycles

 The electronic state is 1-A.
 Alpha  occ. eigenvalues --  -19.15860 -19.13587 -10.26799 -10.25628 -10.23102
 Alpha  occ. eigenvalues --  -10.21677 -10.20461 -10.20384 -10.18808  -1.05880
 Alpha  occ. eigenvalues --   -1.04302  -0.91867  -0.74168  -0.70640  -0.67989
 Alpha  occ. eigenvalues --   -0.63705  -0.58514  -0.50818  -0.50344  -0.46651
 Alpha  occ. eigenvalues --   -0.46447  -0.45570  -0.44626  -0.42591  -0.41324
 Alpha  occ. eigenvalues --   -0.39765  -0.37202  -0.36605  -0.35552  -0.34090
 Alpha  occ. eigenvalues --   -0.32817  -0.32275  -0.27963  -0.22347
 Alpha virt. eigenvalues --    0.01061   0.08521   0.09926   0.12119   0.12586
 Alpha virt. eigenvalues --    0.13488   0.13536   0.14819   0.15308   0.15683
 Alpha virt. eigenvalues --    0.16485   0.17342   0.18026   0.20095   0.21239

 Mulliken charges:
               1
     1  C   -0.273414
     2  O   -0.285867
     3  C    0.316723
     4  C   -0.325402
     5  C    0.178345
     6  C   -0.508182
     7  C   -0.339002
     8  C    0.357400
     9  O   -0.344613
    10  H    0.115476
    11  H    0.133614
    12  H    0.144415
    13  H    0.113984
    14  H    0.108714
    15  H    0.124830
    16  H    0.132679
    17  H    0.133237
    18  H    0.108779
    19  H    0.108284
 Sum of Mulliken charges =   0.00000

 Dipole moment (field-independent basis, Debye):
    X=             -0.4612    Y=             -1.9979    Z=              1.0654  Tot=              2.3107
 Quadrupole moment (field-independent basis, Debye-Ang):
   XX=            -48.8260   YY=            -59.5493   ZZ=            -51.8589
   XY=              2.6162   XZ=              2.3961   YZ=              0.3119

  Exact polarizability:  88.017   2.182  74.334   1.334  -0.312  67.535
 Approx polarizability: 111.079   2.364 121.591   0.124  -0.631 103.863

                      1                      2                      3
                      A                      A                      A
 Frequencies --     64.4089               147.7329               154.7631
 Red. masses --      2.9193                 1.5941                 1.5814
 Frc consts  --      0.0071                 0.0205                 0.0223
 IR Inten    --      4.7544                 2.3350                 0.8109

                      4                      5                      6
                      A                      A                      A
 Frequencies --    168.6224               201.1379               203.2101
 Red. masses --      1.4278                 2.2822                 2.9638
 Frc consts  --      0.0239                 0.0544                 0.0721
 IR Inten    --      1.0871                 1.6252                 1.2398

                      7                      8                      9
                      A                      A                      A
 Frequencies --    265.6920               321.3117               443.6407
 Red. masses --      3.6522                 3.3863                 3.3519
 Frc consts  --      0.1519                 0.2060                 0.3887
 IR Inten    --      3.0444                 1.1906                 0.9078

                     10                     11                     12
                      A                      A                      A
 Frequencies --    517.5998               537.9943               601.6177
 Red. masses --      2.1747                 3.2203                 4.3043
 Frc consts  --      0.3433                 0.5492                 0.9179
 IR Inten    --      1.0224                 1.3678                10.0425

                     13                     14                     15
                      A                      A                      A
 Frequencies --    656.2919               753.4014               772.5353
 Red. masses --      3.3955                 4.4417                 3.9364
 Frc consts  --      0.8617                 1.4854                 1.3841
 IR Inten    --      7.5964                 3.7852                 1.5052

                     16                     17                     18
                      A                      A                      A
 Frequencies --    813.3860               836.8193               938.2696
 Red. masses --      3.3389                 5.7961                 2.5383
 Frc consts  --      1.3015                 2.3914                 1.3166
 IR Inten    --      0.5650                63.2597                 0.5895

                     19                     20                     21
                      A                      A                      A
 Frequencies --    978.0508              1001.2967              1032.9750
 Red. masses --      1.4476                 1.2870                 1.6828
 Frc consts  --      0.8159                 0.7602                 1.0579
 IR Inten    --      2.6486                 1.8136                 0.5627

                     22                     23                     24
                      A                      A                      A
 Frequencies --   1038.6124              1061.1790              1111.6928
 Red. masses --      3.4340                 1.7288                 1.6778
 Frc consts  --      2.1825                 1.1470                 1.2217
 IR Inten    --     54.5377                11.5500                10.6272

                     25                     26                     27
                      A                      A                      A
 Frequencies --   1139.3821              1161.9957              1166.4894
 Red. masses --      1.6608                 1.7741                 1.8627
 Frc consts  --      1.2703                 1.4114                 1.4933
 IR Inten    --     12.0454                 8.8770                 0.9305

                     28                     29                     30
                      A                      A                      A
 Frequencies --   1180.2508              1188.9406              1231.2325
 Red. masses --      1.2824                 1.8641                 1.6217
 Frc consts  --      1.0525                 1.5526                 1.4484
 IR Inten    --      2.8372                 8.2005                 1.0025

                     31                     32                     33
                      A                      A                      A
 Frequencies --   1333.0532              1384.3103              1419.9560
 Red. masses --      3.7425                 2.4186                 1.5580
 Frc consts  --      3.9184                 2.7308                 1.8508
 IR Inten    --    140.6740                81.7931                 4.1390

                     34                     35                     36
                      A                      A                      A
 Frequencies --   1487.6930              1488.3940              1489.2812
 Red. masses --      1.1391                 1.0496                 1.0932
 Frc consts  --      1.4853                 1.3700                 1.4285
 IR Inten    --      9.9619                 1.2586                 4.2209

                     37                     38                     39
                      A                      A                      A
 Frequencies --   1489.9127              1492.7659              1506.7414
 Red. masses --      1.1014                 1.0550                 1.0486
 Frc consts  --      1.4405                 1.3851                 1.4026
 IR Inten    --      4.4055                 4.1437                11.2273

                     40                     41                     42
                      A                      A                      A
 Frequencies --   1539.1352              1901.9446              3005.8923
 Red. masses --      1.2946                12.5418                 1.0374
 Frc consts  --      1.8070                26.7304                 5.5228
 IR Inten    --     14.9972               299.8316                43.1200

                     43                     44                     45
                      A                      A                      A
 Frequencies --   3035.3367              3060.3978              3062.4626
 Red. masses --      1.0352                 1.0533                 1.0542
 Frc consts  --      5.6191                 5.8123                 5.8250
 IR Inten    --     27.7097                27.5440                15.5804

                     46                     47                     48
                      A                      A                      A
 Frequencies --   3073.9558              3103.1233              3104.8576
 Red. masses --      1.0996                 1.1015                 1.1009
 Frc consts  --      6.1218                 6.2493                 6.2529
 IR Inten    --     32.1356                14.5798                13.3583

                     49                     50                     51
                      A                      A                      A
 Frequencies --   3133.9844              3135.1829              3136.0433
 Red. masses --      1.1109                 1.1044                 1.1105
 Frc consts  --      6.4285                 6.3962                 6.4345
 IR Inten    --     17.9232                22.8443                21.3248

 - Thermochemistry -
 -------------------
 Temperature   298.150 Kelvin.  Pressure   1.00000 Atm.
 Atom     1 has atomic number  6 and mass  12.00000

 Molecular mass:   126.06808 amu.
 Principal axes and moments of inertia in atomic units:
                           1         2         3
     Eigenvalues --   598.147551382.036481626.43827
           X            0.99965   0.02366   0.01217
           Y           -0.02375   0.99969   0.00793
           Z           -0.01197  -0.00821   0.99989
 This molecule is an asymmetric top.
 Rotational symmetry number  1.
 Warning -- assumption of classical behavior for rotation
           may cause significant error
 Rotational temperatures (Kelvin)      0.14480     0.06267     0.05325
 Rotational constants (GHZ):           3.01722     1.30586     1.10963
 Zero-point vibrational energy     413160.0 (Joules/Mol)
                                   98.74761 (Kcal/Mol)
 Warning -- explicit consideration of  12 degrees of freedom as
           vibrations may cause significant error
 Vibrational temperatures:     92.67   212.55   222.67   242.61   289.39
          (Kelvin)            292.37   382.27   462.30   638.30   744.71
                              774.05   865.59   944.26  1083.98  1111.50
                             1170.28  1203.99  1349.96  1407.20  1440.64
                             1486.22  1494.33  1526.80  1599.48  1639.31
                             1671.85  1678.32  1698.12  1710.62  1771.47
                             1917.96  1991.71  2043.00  2140.46  2141.46
                             2142.74  2143.65  2147.75  2167.86  2214.47
                             2736.47  4324.80  4367.17  4403.22  4406.20
                             4422.73  4464.70  4467.19  4509.10  4510.82
                             4512.06

 Zero-point correction=                           0.157364 (Hartree/Particle)
 Thermal correction to Energy=                    0.166572
 Thermal correction to Enthalpy=                  0.167516
 Thermal correction to Gibbs Free Energy=         0.123317
 Sum of electronic and zero-point Energies=           -422.992654
 Sum of electronic and thermal Energies=              -422.983446
 Sum of electronic and thermal Enthalpies=            -422.982502
 Sum of electronic and thermal Free Energies=         -423.026701

                     E (Thermal)             CV                S
                      KCal/Mol        Cal/Mol-Kelvin    Cal/Mol-Kelvin
 Total                  104.526             33.706             93.025
 Electronic               0.000              0.000              0.000
 Translational            0.889              2.981             40.409
 Rotational               0.889              2.981             28.688
 Vibrational            102.748             27.744             23.929
 Vibration     1          0.597              1.971              4.317
 Vibration     2          0.617              1.905              2.701
 Vibration     3          0.620              1.897              2.613
 Vibration     4          0.625              1.881              2.451
 Vibration     5          0.638              1.838              2.123
 Vibration     6          0.639              1.835              2.104
 Vibration     7          0.672              1.736              1.624
 Vibration     8          0.707              1.633              1.303
 Vibration     9          0.803              1.375              0.815
 Vibration    10          0.873              1.211              0.616
 Vibration    11          0.893              1.166              0.570
 Vibration    12          0.960              1.028              0.447

 Normal termination of Gaussian 09 at Tue Jan 28 10:00:37 2020.
