 Gaussian 09, Revision D.01,
 Gaussian 09:  ES64L-G09RevD.01 24-Apr-2013

 -----------------------------
 # b3lyp 6-31G(2df,p) opt Freq
 -----------------------------

 -----
 titel
 -----
 Symbolic Z-matrix:
 Charge =  0 Multiplicity = 1

 SCF Done:  E(RB3LYP) =  -423.171515287     A.U. after   14 cycles
 Optimization completed.
    -- Stationary point found.
 Normal termination of Gaussian 09 at Mon Jan 27 16:27:06 2020.

 ----------------------------------------------------------------------
 #N Geom=AllCheck Guess=TCheck SCRF=Check GenChk RB3LYP/6-31G(2df,p) Fr
 eq
 ----------------------------------------------------------------------

 Structure from the checkpoint file:  "/scratch/puck/g09_74a4fd97-0937-4707-aac1-b37e0dafd872/Gau-176744.chk"
 -----
 titel
 -----
 Charge =  0 Multiplicity = 1

                         Standard orientation:
 ---------------------------------------------------------------------
 Center     Atomic      Atomic             Coordinates (Angstroms)
 Number     Number       Type             X           Y           Z
 ---------------------------------------------------------------------
      1          6           0        0.047612    2.042390   -0.246330
      2          6           0        0.101333    0.548498    0.078994
      3          6           0       -0.988684    0.122602    1.128393
      4          6           0       -1.803724   -0.445816   -0.040958
      5          8           0       -2.949518   -0.761306   -0.176898
      6          6           0       -0.608530   -0.342400   -0.995260
      7          6           0        1.508316    0.139936    0.449047
      8          6           0        2.471677   -0.399730   -0.517122
      9          8           0        1.816208   -1.254669    0.426819
     10          1           0        0.397040    2.644145    0.600121
     11          1           0        0.674705    2.280753   -1.111900
     12          1           0       -0.975865    2.356787   -0.475795
     13          1           0       -0.643634   -0.677698    1.792043
     14          1           0       -1.462439    0.905610    1.725974
     15          1           0       -0.119805   -1.317750   -1.094214
     16          1           0       -0.794072    0.081522   -1.985115
     17          1           0        1.911619    0.662371    1.319824
     18          1           0        2.171490   -0.539202   -1.554632
     19          1           0        3.539447   -0.261613   -0.356250
 ---------------------------------------------------------------------

 SCF Done:  E(RB3LYP) =  -423.171515287     A.U. after    1 cycles

 The electronic state is 1-A.
 Alpha  occ. eigenvalues --  -19.16115 -19.13470 -10.26996 -10.24625 -10.24236
 Alpha  occ. eigenvalues --  -10.21555 -10.19227 -10.19167 -10.19099  -1.08022
 Alpha  occ. eigenvalues --   -1.04392  -0.86185  -0.73958  -0.68704  -0.68165
 Alpha  occ. eigenvalues --   -0.65348  -0.56531  -0.53033  -0.51087  -0.49498
 Alpha  occ. eigenvalues --   -0.46794  -0.44554  -0.43514  -0.42242  -0.41675
 Alpha  occ. eigenvalues --   -0.39692  -0.39226  -0.37525  -0.35255  -0.34183
 Alpha  occ. eigenvalues --   -0.33160  -0.30299  -0.27795  -0.24131
 Alpha virt. eigenvalues --   -0.01647   0.07784   0.09198   0.10147   0.10949
 Alpha virt. eigenvalues --    0.11715   0.13144   0.14157   0.14469   0.16437
 Alpha virt. eigenvalues --    0.17066   0.17658   0.18117   0.18582   0.20245

 Mulliken charges:
               1
     1  C   -0.452698
     2  C    0.287217
     3  C   -0.387840
     4  C    0.405734
     5  O   -0.291928
     6  C   -0.397182
     7  C    0.022711
     8  C   -0.185560
     9  O   -0.240683
    10  H    0.121117
    11  H    0.122069
    12  H    0.126417
    13  H    0.142591
    14  H    0.124267
    15  H    0.148352
    16  H    0.121104
    17  H    0.095098
    18  H    0.117629
    19  H    0.121585
 Sum of Mulliken charges =   0.00000

 Dipole moment (field-independent basis, Debye):
    X=              2.8575    Y=              2.3665    Z=             -0.3072  Tot=              3.7229
 Quadrupole moment (field-independent basis, Debye-Ang):
   XX=            -61.8686   YY=            -55.0385   ZZ=            -50.7083
   XY=             -0.9711   XZ=             -2.5712   YZ=              1.3179

  Exact polarizability:  88.102   1.254  67.215  -2.796   3.324  71.024
 Approx polarizability: 122.862   3.204 101.354  -3.320   3.849 108.559

                      1                      2                      3
                      A                      A                      A
 Frequencies --     67.3594                95.3070               190.8888
 Red. masses --      5.3027                 3.2441                 2.7685
 Frc consts  --      0.0142                 0.0174                 0.0594
 IR Inten    --      3.4755                 2.5037                 0.6811

                      4                      5                      6
                      A                      A                      A
 Frequencies --    220.5699               245.6317               302.6528
 Red. masses --      4.1129                 1.0452                 2.4291
 Frc consts  --      0.1179                 0.0372                 0.1311
 IR Inten    --      6.3036                 0.0767                 0.6379

                      7                      8                      9
                      A                      A                      A
 Frequencies --    331.6856               412.1261               424.3984
 Red. masses --      2.3843                 2.9184                 2.2994
 Frc consts  --      0.1546                 0.2920                 0.2440
 IR Inten    --      2.9423                 3.2262                 0.7721

                     10                     11                     12
                      A                      A                      A
 Frequencies --    507.8336               515.6370               604.1592
 Red. masses --      3.6744                 3.1395                 2.9671
 Frc consts  --      0.5583                 0.4918                 0.6381
 IR Inten    --      1.4258                 6.2303                 3.6683

                     13                     14                     15
                      A                      A                      A
 Frequencies --    697.1933               732.8800               844.2872
 Red. masses --      1.5230                 2.7774                 3.1786
 Frc consts  --      0.4362                 0.8789                 1.3350
 IR Inten    --      0.6782                 0.2477                 8.3064

                     16                     17                     18
                      A                      A                      A
 Frequencies --    867.7165               880.8883               889.7000
 Red. masses --      2.6386                 2.3648                 3.1887
 Frc consts  --      1.1705                 1.0812                 1.4871
 IR Inten    --     17.4575                 4.6855                14.6698

                     19                     20                     21
                      A                      A                      A
 Frequencies --    945.2041               965.2098               998.9944
 Red. masses --      3.2435                 1.9412                 1.2137
 Frc consts  --      1.7073                 1.0655                 0.7137
 IR Inten    --     14.9289                10.6984                 2.6165

                     22                     23                     24
                      A                      A                      A
 Frequencies --   1053.8521              1081.8072              1095.5932
 Red. masses --      1.5984                 2.2489                 1.2308
 Frc consts  --      1.0459                 1.5507                 0.8704
 IR Inten    --     16.8851                31.1386                 2.5962

                     25                     26                     27
                      A                      A                      A
 Frequencies --   1129.0151              1156.9771              1168.0531
 Red. masses --      1.9890                 1.4423                 1.9211
 Frc consts  --      1.4937                 1.1375                 1.5443
 IR Inten    --      1.3200                 0.7308                13.5758

                     28                     29                     30
                      A                      A                      A
 Frequencies --   1173.6408              1196.1412              1214.6038
 Red. masses --      1.3738                 1.6005                 1.7989
 Frc consts  --      1.1149                 1.3492                 1.5636
 IR Inten    --      0.6311                 2.0210                10.7098

                     31                     32                     33
                      A                      A                      A
 Frequencies --   1258.1149              1286.9938              1314.4805
 Red. masses --      2.0775                 2.2105                 1.7271
 Frc consts  --      1.9375                 2.1572                 1.7583
 IR Inten    --      0.2978                11.0870                12.2972

                     34                     35                     36
                      A                      A                      A
 Frequencies --   1410.3668              1421.8742              1432.4636
 Red. masses --      1.2772                 1.0922                 1.7743
 Frc consts  --      1.4969                 1.3010                 2.1451
 IR Inten    --      1.4273                17.7132                 9.4110

                     37                     38                     39
                      A                      A                      A
 Frequencies --   1445.2083              1493.1578              1498.6115
 Red. masses --      1.1264                 1.0483                 1.0662
 Frc consts  --      1.3861                 1.3771                 1.4108
 IR Inten    --      0.9424                 2.8184                 3.1438

                     40                     41                     42
                      A                      A                      A
 Frequencies --   1528.1518              1895.6577              3027.1113
 Red. masses --      1.3512                12.5182                 1.0350
 Frc consts  --      1.8591                26.5041                 5.5877
 IR Inten    --      3.5770               300.7260                19.7275

                     43                     44                     45
                      A                      A                      A
 Frequencies --   3050.5902              3055.5621              3081.2011
 Red. masses --      1.0576                 1.0596                 1.0808
 Frc consts  --      5.7986                 5.8288                 6.0455
 IR Inten    --      7.8052                 5.6803                22.1669

                     46                     47                     48
                      A                      A                      A
 Frequencies --   3088.2900              3095.6358              3100.5370
 Red. masses --      1.0566                 1.1010                 1.1019
 Frc consts  --      5.9376                 6.2165                 6.2412
 IR Inten    --     20.1996                24.4485                20.2933

                     49                     50                     51
                      A                      A                      A
 Frequencies --   3114.6791              3118.3142              3174.8352
 Red. masses --      1.1054                 1.1056                 1.1195
 Frc consts  --      6.3182                 6.3340                 6.6481
 IR Inten    --      9.9923                 6.5758                23.7988

 - Thermochemistry -
 -------------------
 Temperature   298.150 Kelvin.  Pressure   1.00000 Atm.
 Atom     1 has atomic number  6 and mass  12.00000

 Molecular mass:   126.06808 amu.
 Principal axes and moments of inertia in atomic units:
                           1         2         3
     Eigenvalues --   607.873411528.944011747.47407
           X            0.99991  -0.00393  -0.01303
           Y            0.00421   0.99976   0.02143
           Z            0.01294  -0.02148   0.99969
 This molecule is an asymmetric top.
 Rotational symmetry number  1.
 Warning -- assumption of classical behavior for rotation
           may cause significant error
 Rotational temperatures (Kelvin)      0.14249     0.05665     0.04957
 Rotational constants (GHZ):           2.96894     1.18038     1.03277
 Zero-point vibrational energy     412124.5 (Joules/Mol)
                                   98.50013 (Kcal/Mol)
 Warning -- explicit consideration of  12 degrees of freedom as
           vibrations may cause significant error
 Vibrational temperatures:     96.91   137.13   274.65   317.35   353.41
          (Kelvin)            435.45   477.22   592.96   610.61   730.66
                              741.89   869.25  1003.10  1054.45  1214.74
                             1248.45  1267.40  1280.08  1359.94  1388.72
                             1437.33  1516.26  1556.48  1576.31  1624.40
                             1664.63  1680.57  1688.61  1720.98  1747.54
                             1810.14  1851.69  1891.24  2029.20  2045.76
                             2060.99  2079.33  2148.32  2156.17  2198.67
                             2727.43  4355.33  4389.11  4396.27  4433.16
                             4443.35  4453.92  4460.98  4481.32  4486.55
                             4567.87

 Zero-point correction=                           0.156970 (Hartree/Particle)
 Thermal correction to Energy=                    0.165766
 Thermal correction to Enthalpy=                  0.166711
 Thermal correction to Gibbs Free Energy=         0.123309
 Sum of electronic and zero-point Energies=           -423.014545
 Sum of electronic and thermal Energies=              -423.005749
 Sum of electronic and thermal Enthalpies=            -423.004805
 Sum of electronic and thermal Free Energies=         -423.048207

                     E (Thermal)             CV                S
                      KCal/Mol        Cal/Mol-Kelvin    Cal/Mol-Kelvin
 Total                  104.020             33.270             91.347
 Electronic               0.000              0.000              0.000
 Translational            0.889              2.981             40.409
 Rotational               0.889              2.981             28.875
 Vibrational            102.243             27.308             22.063
 Vibration     1          0.598              1.970              4.229
 Vibration     2          0.603              1.953              3.548
 Vibration     3          0.634              1.852              2.219
 Vibration     4          0.647              1.810              1.954
 Vibration     5          0.660              1.770              1.762
 Vibration     6          0.694              1.669              1.402
 Vibration     7          0.714              1.612              1.252
 Vibration     8          0.776              1.444              0.919
 Vibration     9          0.786              1.417              0.877
 Vibration    10          0.863              1.233              0.639
 Vibration    11          0.871              1.215              0.620
 Vibration    12          0.963              1.023              0.443

 Optimization completed.
    -- Stationary point found.
 Normal termination of Gaussian 09 at Mon Jan 27 17:12:21 2020.
