 Gaussian 09, Revision D.01,
 Gaussian 09:  ES64L-G09RevD.01 24-Apr-2013

 -----------------------------
 # b3lyp 6-31G(2df,p) opt Freq
 -----------------------------

 -----
 titel
 -----
 Symbolic Z-matrix:
 Charge =  0 Multiplicity = 1

 SCF Done:  E(RB3LYP) =  -423.123140953     A.U. after   14 cycles
 Optimization completed.
    -- Stationary point found.
 Normal termination of Gaussian 09 at Tue Jan 28 11:54:56 2020.

 ----------------------------------------------------------------------
 #N Geom=AllCheck Guess=TCheck SCRF=Check GenChk RB3LYP/6-31G(2df,p) Fr
 eq
 ----------------------------------------------------------------------

 Structure from the checkpoint file:  "/scratch/puck/g09_8340e162-b445-4408-aede-70bd9b23e146/Gau-112651.chk"
 -----
 titel
 -----
 Charge =  0 Multiplicity = 1

                         Standard orientation:
 ---------------------------------------------------------------------
 Center     Atomic      Atomic             Coordinates (Angstroms)
 Number     Number       Type             X           Y           Z
 ---------------------------------------------------------------------
      1          6           0        1.831838    2.122873   -0.072464
      2          8           0        2.189112    0.755081   -0.037602
      3          6           0        1.171175   -0.070028    0.436650
      4          6           0        1.534497   -1.558601    0.450957
      5          8           0        0.360430   -1.901393   -0.314655
      6          6           0        0.051894   -0.503097   -0.570781
      7          6           0       -1.321832   -0.140868   -0.291134
      8          6           0       -2.456706    0.179208   -0.043450
      9          6           0       -3.831877    0.552384    0.250781
     10          1           0        0.985458    2.308078   -0.749403
     11          1           0        1.561381    2.493037    0.927987
     12          1           0        2.702298    2.674240   -0.434283
     13          1           0        0.753680    0.305707    1.380450
     14          1           0        2.464956   -1.764827   -0.092532
     15          1           0        1.552528   -2.060983    1.423360
     16          1           0        0.330871   -0.229596   -1.598624
     17          1           0       -4.346904    0.920528   -0.643204
     18          1           0       -4.396576   -0.306576    0.629589
     19          1           0       -3.877959    1.339663    1.011355
 ---------------------------------------------------------------------

 SCF Done:  E(RB3LYP) =  -423.123140953     A.U. after    1 cycles

 The electronic state is 1-A.
 Alpha  occ. eigenvalues --  -19.15218 -19.13330 -10.24808 -10.24107 -10.23112
 Alpha  occ. eigenvalues --  -10.22702 -10.20720 -10.18141 -10.16963  -1.05484
 Alpha  occ. eigenvalues --   -1.02786  -0.78352  -0.75143  -0.73343  -0.67237
 Alpha  occ. eigenvalues --   -0.66835  -0.57589  -0.53039  -0.50925  -0.47708
 Alpha  occ. eigenvalues --   -0.46637  -0.44755  -0.43185  -0.43030  -0.42714
 Alpha  occ. eigenvalues --   -0.42125  -0.41005  -0.36330  -0.33200  -0.31424
 Alpha  occ. eigenvalues --   -0.27619  -0.26043  -0.25546  -0.23757
 Alpha virt. eigenvalues --    0.02483   0.05275   0.09219   0.10792   0.11346
 Alpha virt. eigenvalues --    0.11954   0.13508   0.14732   0.15324   0.16177
 Alpha virt. eigenvalues --    0.17220   0.18153   0.18543   0.19480   0.21042

 Mulliken charges:
               1
     1  C   -0.243630
     2  O   -0.233546
     3  C    0.068878
     4  C   -0.106287
     5  O   -0.285522
     6  C   -0.071563
     7  C    0.066300
     8  C    0.084105
     9  C   -0.499355
    10  H    0.118084
    11  H    0.111315
    12  H    0.131966
    13  H    0.083827
    14  H    0.109921
    15  H    0.110079
    16  H    0.099960
    17  H    0.150787
    18  H    0.155779
    19  H    0.148901
 Sum of Mulliken charges =   0.00000

 Dipole moment (field-independent basis, Debye):
    X=             -0.8043    Y=              2.2763    Z=              0.9205  Tot=              2.5838
 Quadrupole moment (field-independent basis, Debye-Ang):
   XX=            -47.1395   YY=            -53.6880   ZZ=            -51.9991
   XY=             -1.6735   XZ=             -0.3055   YZ=             -1.6227

  Exact polarizability: 110.607  -8.541  73.955  -3.040  -1.527  61.685
 Approx polarizability: 151.925 -15.776 100.987  -8.573   0.397  92.106

                      1                      2                      3
                      A                      A                      A
 Frequencies --     39.2392                46.4742                81.3974
 Red. masses --      1.0193                 3.2746                 3.1812
 Frc consts  --      0.0009                 0.0042                 0.0124
 IR Inten    --      0.0401                 0.4592                 0.6829

                      4                      5                      6
                      A                      A                      A
 Frequencies --    105.9686               139.3861               183.3792
 Red. masses --      3.2659                 3.6570                 1.2353
 Frc consts  --      0.0216                 0.0419                 0.0245
 IR Inten    --      3.3105                 2.7946                 1.4782

                      7                      8                      9
                      A                      A                      A
 Frequencies --    239.7804               299.2532               322.8032
 Red. masses --      2.5037                 3.3493                 3.9508
 Frc consts  --      0.0848                 0.1767                 0.2426
 IR Inten    --      1.8571                11.7527                 1.0980

                     10                     11                     12
                      A                      A                      A
 Frequencies --    399.7564               424.7047               489.7260
 Red. masses --      3.9610                 4.1775                 4.2475
 Frc consts  --      0.3729                 0.4440                 0.6002
 IR Inten    --      6.5071                 0.6277                 1.9005

                     13                     14                     15
                      A                      A                      A
 Frequencies --    507.0551               710.9671               813.6473
 Red. masses --      6.8485                 4.2884                 2.5546
 Frc consts  --      1.0374                 1.2772                 0.9964
 IR Inten    --      1.4113                12.4851                 2.6267

                     16                     17                     18
                      A                      A                      A
 Frequencies --    906.3287               963.9469               992.9676
 Red. masses --      2.4418                 4.6168                 4.6701
 Frc consts  --      1.1817                 2.5275                 2.7130
 IR Inten    --     11.9831                51.0113                28.4554

                     19                     20                     21
                      A                      A                      A
 Frequencies --   1015.5824              1048.8656              1050.6813
 Red. masses --      5.4400                 3.7613                 1.4893
 Frc consts  --      3.3058                 2.4380                 0.9687
 IR Inten    --     68.3028                37.0859                 4.2980

                     22                     23                     24
                      A                      A                      A
 Frequencies --   1054.1379              1100.4658              1162.3769
 Red. masses --      1.4081                 2.2384                 1.3151
 Frc consts  --      0.9219                 1.5972                 1.0469
 IR Inten    --      1.1011                 0.7799                30.8861

                     25                     26                     27
                      A                      A                      A
 Frequencies --   1166.7722              1181.4646              1184.7853
 Red. masses --      2.1229                 1.8198                 1.5452
 Frc consts  --      1.7027                 1.4966                 1.2779
 IR Inten    --     98.1714                 4.2173                10.8537

                     28                     29                     30
                      A                      A                      A
 Frequencies --   1223.6055              1255.2538              1267.7900
 Red. masses --      1.5365                 1.8894                 1.3742
 Frc consts  --      1.3554                 1.7540                 1.3014
 IR Inten    --     11.7140                66.4951                 2.4642

                     31                     32                     33
                      A                      A                      A
 Frequencies --   1326.5906              1355.4046              1406.1671
 Red. masses --      1.3286                 1.4745                 1.3958
 Frc consts  --      1.3776                 1.5961                 1.6261
 IR Inten    --      7.5584                25.1179                37.9147

                     34                     35                     36
                      A                      A                      A
 Frequencies --   1413.7478              1475.8452              1478.1881
 Red. masses --      1.2575                 1.0393                 1.0401
 Frc consts  --      1.4808                 1.3338                 1.3390
 IR Inten    --      7.3138                 5.7974                 5.5741

                     37                     38                     39
                      A                      A                      A
 Frequencies --   1483.7934              1489.6410              1507.6663
 Red. masses --      1.1239                 1.0843                 1.0637
 Frc consts  --      1.4579                 1.4176                 1.4245
 IR Inten    --      4.7176                 3.1642                 7.9733

                     40                     41                     42
                      A                      A                      A
 Frequencies --   1516.0652              2365.2941              2984.0700
 Red. masses --      1.1167                11.8644                 1.0371
 Frc consts  --      1.5123                39.1079                 5.4413
 IR Inten    --      1.3817                16.6987                37.3645

                     43                     44                     45
                      A                      A                      A
 Frequencies --   2996.9172              3016.5122              3025.1099
 Red. masses --      1.0812                 1.0855                 1.0579
 Frc consts  --      5.7213                 5.8195                 5.7040
 IR Inten    --     25.9017                39.4430                68.6408

                     46                     47                     48
                      A                      A                      A
 Frequencies --   3028.1924              3035.9677              3081.3103
 Red. masses --      1.0350                 1.1030                 1.1086
 Frc consts  --      5.5919                 5.9900                 6.2017
 IR Inten    --     21.7182                45.6783                40.7606

                     49                     50                     51
                      A                      A                      A
 Frequencies --   3088.9554              3091.4773              3123.3550
 Red. masses --      1.1003                 1.1001                 1.0975
 Frc consts  --      6.1854                 6.1946                 6.3081
 IR Inten    --      9.6426                 8.3702                29.0221

 - Thermochemistry -
 -------------------
 Temperature   298.150 Kelvin.  Pressure   1.00000 Atm.
 Atom     1 has atomic number  6 and mass  12.00000

 Molecular mass:   126.06808 amu.
 Principal axes and moments of inertia in atomic units:
                           1         2         3
     Eigenvalues --   744.724441889.416532476.55908
           X            0.99997  -0.00609  -0.00384
           Y            0.00605   0.99992  -0.01144
           Z            0.00391   0.01142   0.99993
 This molecule is an asymmetric top.
 Rotational symmetry number  1.
 Warning -- assumption of classical behavior for rotation
           may cause significant error
 Rotational temperatures (Kelvin)      0.11630     0.04584     0.03497
 Rotational constants (GHZ):           2.42337     0.95518     0.72873
 Zero-point vibrational energy     410730.8 (Joules/Mol)
                                   98.16703 (Kcal/Mol)
 Warning -- explicit consideration of  13 degrees of freedom as
           vibrations may cause significant error
 Vibrational temperatures:     56.46    66.87   117.11   152.47   200.55
          (Kelvin)            263.84   344.99   430.56   464.44   575.16
                              611.05   704.61   729.54  1022.92  1170.66
                             1304.00  1386.90  1428.66  1461.19  1509.08
                             1511.69  1516.67  1583.32  1672.40  1678.72
                             1699.86  1704.64  1760.49  1806.03  1824.06
                             1908.67  1950.12  2023.16  2034.07  2123.41
                             2126.78  2134.85  2143.26  2169.19  2181.28
                             3403.13  4293.41  4311.89  4340.08  4352.45
                             4356.89  4368.07  4433.31  4444.31  4447.94
                             4493.81

 Zero-point correction=                           0.156439 (Hartree/Particle)
 Thermal correction to Energy=                    0.166722
 Thermal correction to Enthalpy=                  0.167666
 Thermal correction to Gibbs Free Energy=         0.119230
 Sum of electronic and zero-point Energies=           -422.966702
 Sum of electronic and thermal Energies=              -422.956419
 Sum of electronic and thermal Enthalpies=            -422.955475
 Sum of electronic and thermal Free Energies=         -423.003911

                     E (Thermal)             CV                S
                      KCal/Mol        Cal/Mol-Kelvin    Cal/Mol-Kelvin
 Total                  104.619             34.776            101.941
 Electronic               0.000              0.000              0.000
 Translational            0.889              2.981             40.409
 Rotational               0.889              2.981             29.634
 Vibrational            102.842             28.814             31.898
 Vibration     1          0.594              1.981              5.297
 Vibration     2          0.595              1.979              4.962
 Vibration     3          0.600              1.962              3.857
 Vibration     4          0.605              1.944              3.341
 Vibration     5          0.615              1.914              2.812
 Vibration     6          0.631              1.862              2.294
 Vibration     7          0.657              1.780              1.805
 Vibration     8          0.692              1.675              1.421
 Vibration     9          0.708              1.630              1.296
 Vibration    10          0.766              1.471              0.964
 Vibration    11          0.787              1.417              0.876
 Vibration    12          0.846              1.273              0.684
 Vibration    13          0.862              1.234              0.641

 Optimization completed on the basis of negligible forces.
    -- Stationary point found.
 Normal termination of Gaussian 09 at Tue Jan 28 12:29:38 2020.
