 Gaussian 09, Revision D.01,
 Gaussian 09:  ES64L-G09RevD.01 24-Apr-2013

 -----------------------------
 # b3lyp 6-31G(2df,p) opt Freq
 -----------------------------

 -----
 titel
 -----
 Symbolic Z-matrix:
 Charge =  0 Multiplicity = 1

 SCF Done:  E(RB3LYP) =  -423.158442248     A.U. after   14 cycles
 Optimization completed.
    -- Stationary point found.
 Normal termination of Gaussian 09 at Tue Jan 28 12:10:12 2020.

 ----------------------------------------------------------------------
 #N Geom=AllCheck Guess=TCheck SCRF=Check GenChk RB3LYP/6-31G(2df,p) Fr
 eq
 ----------------------------------------------------------------------

 Structure from the checkpoint file:  "/scratch/puck/g09_d8722674-5fff-422c-a85d-4ac519e7a215/Gau-25496.chk"
 -----
 titel
 -----
 Charge =  0 Multiplicity = 1

                         Standard orientation:
 ---------------------------------------------------------------------
 Center     Atomic      Atomic             Coordinates (Angstroms)
 Number     Number       Type             X           Y           Z
 ---------------------------------------------------------------------
      1          6           0        0.448243    2.562026    0.320385
      2          6           0        0.229140    1.439194   -0.702549
      3          6           0        0.477859    0.085483   -0.120358
      4          8           0        1.794949   -0.219275    0.341441
      5          6           0        1.643132   -1.594281   -0.117048
      6          6           0        0.200017   -1.326784   -0.510258
      7          6           0       -0.524614   -0.751420    0.711523
      8          6           0       -1.960996   -0.465717    0.545124
      9          8           0       -2.512503   -0.276494   -0.518835
     10          1           0       -0.257898    2.478949    1.152894
     11          1           0        1.460751    2.522381    0.732140
     12          1           0        0.306943    3.541163   -0.145521
     13          1           0       -0.790156    1.461881   -1.097090
     14          1           0        0.908569    1.571901   -1.553069
     15          1           0        2.302300   -1.784416   -0.970665
     16          1           0        1.836576   -2.323716    0.677081
     17          1           0       -0.363816   -1.726453   -1.341632
     18          1           0       -0.203921   -1.043860    1.707715
     19          1           0       -2.535604   -0.422692    1.496387
 ---------------------------------------------------------------------

 SCF Done:  E(RB3LYP) =  -423.158442248     A.U. after    1 cycles

 The electronic state is 1-A.
 Alpha  occ. eigenvalues --  -19.15082 -19.13303 -10.26981 -10.26087 -10.24733
 Alpha  occ. eigenvalues --  -10.20974 -10.20454 -10.19084 -10.17770  -1.06698
 Alpha  occ. eigenvalues --   -1.03921  -0.84808  -0.77945  -0.70996  -0.67446
 Alpha  occ. eigenvalues --   -0.63120  -0.56078  -0.53700  -0.51036  -0.49999
 Alpha  occ. eigenvalues --   -0.46974  -0.45264  -0.43601  -0.41742  -0.41226
 Alpha  occ. eigenvalues --   -0.39342  -0.39059  -0.36621  -0.35189  -0.34124
 Alpha  occ. eigenvalues --   -0.32227  -0.28859  -0.25745  -0.24062
 Alpha virt. eigenvalues --   -0.02755   0.07368   0.09271   0.11057   0.12724
 Alpha virt. eigenvalues --    0.13210   0.13879   0.15319   0.15925   0.16199
 Alpha virt. eigenvalues --    0.16909   0.17772   0.17942   0.19838   0.21657

 Mulliken charges:
               1
     1  C   -0.380458
     2  C   -0.304160
     3  C    0.501987
     4  O   -0.319438
     5  C   -0.110124
     6  C   -0.198144
     7  C   -0.191699
     8  C    0.120540
     9  O   -0.280731
    10  H    0.117353
    11  H    0.136206
    12  H    0.116542
    13  H    0.142433
    14  H    0.110716
    15  H    0.121152
    16  H    0.113063
    17  H    0.127309
    18  H    0.097244
    19  H    0.080208
 Sum of Mulliken charges =   0.00000

 Dipole moment (field-independent basis, Debye):
    X=              1.1713    Y=             -0.8840    Z=              0.6234  Tot=              1.5944
 Quadrupole moment (field-independent basis, Debye-Ang):
   XX=            -60.9559   YY=            -49.0447   ZZ=            -51.8559
   XY=             -2.1365   XZ=             -5.5363   YZ=             -0.6580

  Exact polarizability:  86.824  -4.158  77.671  -4.170  -0.937  69.014
 Approx polarizability: 130.198  -3.038 104.989   0.700  -1.476 110.601

                      1                      2                      3
                      A                      A                      A
 Frequencies --     73.4642               121.1358               162.2494
 Red. masses --      3.0164                 3.5119                 3.0326
 Frc consts  --      0.0096                 0.0304                 0.0470
 IR Inten    --      0.6635                10.2165                 3.5583

                      4                      5                      6
                      A                      A                      A
 Frequencies --    188.8594               202.0576               233.1401
 Red. masses --      2.3771                 1.5989                 2.0773
 Frc consts  --      0.0500                 0.0385                 0.0665
 IR Inten    --      5.2813                 5.0017                 4.3511

                      7                      8                      9
                      A                      A                      A
 Frequencies --    297.3660               363.4256               388.0100
 Red. masses --      2.0902                 5.3109                 2.7442
 Frc consts  --      0.1089                 0.4133                 0.2434
 IR Inten    --      1.3775                 0.9921                 1.5825

                     10                     11                     12
                      A                      A                      A
 Frequencies --    449.1913               644.2580               704.1098
 Red. masses --      3.0012                 3.5562                 4.2619
 Frc consts  --      0.3568                 0.8697                 1.2449
 IR Inten    --      2.9737                 1.0012                 2.6295

                     13                     14                     15
                      A                      A                      A
 Frequencies --    726.8322               805.9616               848.6729
 Red. masses --      2.6665                 1.4068                 2.9882
 Frc consts  --      0.8300                 0.5384                 1.2680
 IR Inten    --     12.1475                 1.6773                94.0565

                     16                     17                     18
                      A                      A                      A
 Frequencies --    929.0891               941.5324               965.3597
 Red. masses --      1.8686                 2.3042                 4.4441
 Frc consts  --      0.9503                 1.2035                 2.4401
 IR Inten    --     56.1937                10.0077                44.8268

                     19                     20                     21
                      A                      A                      A
 Frequencies --    980.8621               991.8946              1004.3986
 Red. masses --      1.8076                 1.7816                 2.1249
 Frc consts  --      1.0246                 1.0328                 1.2630
 IR Inten    --     38.6695                 4.0850                 9.2404

                     22                     23                     24
                      A                      A                      A
 Frequencies --   1035.1133              1059.7969              1075.0036
 Red. masses --      2.0111                 1.6503                 1.5749
 Frc consts  --      1.2696                 1.0921                 1.0723
 IR Inten    --     14.6478                13.8644                 8.5557

                     25                     26                     27
                      A                      A                      A
 Frequencies --   1088.6319              1122.7668              1156.9487
 Red. masses --      2.2664                 1.8227                 1.2309
 Frc consts  --      1.5825                 1.3538                 0.9707
 IR Inten    --     30.7182                 0.7679                 3.3708

                     28                     29                     30
                      A                      A                      A
 Frequencies --   1179.6933              1238.8288              1296.4004
 Red. masses --      1.9989                 1.8086                 1.2456
 Frc consts  --      1.6390                 1.6354                 1.2334
 IR Inten    --     38.0450                 0.3085                 8.6225

                     31                     32                     33
                      A                      A                      A
 Frequencies --   1319.9064              1335.8788              1354.9956
 Red. masses --      1.5271                 1.5652                 1.6467
 Frc consts  --      1.5675                 1.6457                 1.7813
 IR Inten    --     22.4098                 1.7943                58.1248

                     34                     35                     36
                      A                      A                      A
 Frequencies --   1409.0559              1427.6114              1445.9749
 Red. masses --      1.2394                 1.3309                 2.6643
 Frc consts  --      1.4498                 1.5982                 3.2821
 IR Inten    --      3.1047                18.0609                18.2561

                     37                     38                     39
                      A                      A                      A
 Frequencies --   1480.6131              1497.3671              1508.3788
 Red. masses --      1.1006                 1.0485                 1.0868
 Frc consts  --      1.4216                 1.3850                 1.4569
 IR Inten    --      5.5953                 3.0776                 7.0428

                     40                     41                     42
                      A                      A                      A
 Frequencies --   1514.7810              1784.0341              2888.0469
 Red. masses --      1.1520                 9.1921                 1.0829
 Frc consts  --      1.5574                17.2374                 5.3219
 IR Inten    --      1.4518               157.9739               133.1859

                     43                     44                     45
                      A                      A                      A
 Frequencies --   3033.8945              3039.0329              3042.4235
 Red. masses --      1.0549                 1.0557                 1.0458
 Frc consts  --      5.7209                 5.7449                 5.7033
 IR Inten    --     69.3960                10.4272                27.7397

                     46                     47                     48
                      A                      A                      A
 Frequencies --   3086.1401              3098.7985              3112.7816
 Red. masses --      1.1117                 1.0953                 1.1020
 Frc consts  --      6.2385                 6.1968                 6.2911
 IR Inten    --     27.6599                 1.5848                30.1951

                     49                     50                     51
                      A                      A                      A
 Frequencies --   3122.7981              3148.9443              3217.2853
 Red. masses --      1.1009                 1.0897                 1.0942
 Frc consts  --      6.3253                 6.3660                 6.6733
 IR Inten    --     18.7420                 9.7268                 2.0540

 - Thermochemistry -
 -------------------
 Temperature   298.150 Kelvin.  Pressure   1.00000 Atm.
 Atom     1 has atomic number  6 and mass  12.00000

 Molecular mass:   126.06808 amu.
 Principal axes and moments of inertia in atomic units:
                           1         2         3
     Eigenvalues --   891.382441072.011211675.54395
           X            0.99906  -0.03847  -0.02008
           Y            0.03851   0.99926   0.00156
           Z            0.02001  -0.00233   0.99980
 This molecule is an asymmetric top.
 Rotational symmetry number  1.
 Warning -- assumption of classical behavior for rotation
           may cause significant error
 Rotational temperatures (Kelvin)      0.09717     0.08080     0.05169
 Rotational constants (GHZ):           2.02465     1.68351     1.07711
 Zero-point vibrational energy     413571.7 (Joules/Mol)
                                   98.84602 (Kcal/Mol)
 Warning -- explicit consideration of  10 degrees of freedom as
           vibrations may cause significant error
 Vibrational temperatures:    105.70   174.29   233.44   271.73   290.72
          (Kelvin)            335.44   427.84   522.89   558.26   646.29
                              926.94  1013.06  1045.75  1159.60  1221.05
                             1336.75  1354.65  1388.94  1411.24  1427.11
                             1445.10  1489.30  1524.81  1546.69  1566.30
                             1615.41  1664.59  1697.31  1782.40  1865.23
                             1899.05  1922.03  1949.53  2027.31  2054.01
                             2080.43  2130.27  2154.37  2170.22  2179.43
                             2566.82  4155.25  4365.09  4372.49  4377.36
                             4440.26  4458.47  4478.59  4493.00  4530.62
                             4628.95

 Zero-point correction=                           0.157521 (Hartree/Particle)
 Thermal correction to Energy=                    0.166475
 Thermal correction to Enthalpy=                  0.167419
 Thermal correction to Gibbs Free Energy=         0.123646
 Sum of electronic and zero-point Energies=           -423.000921
 Sum of electronic and thermal Energies=              -422.991967
 Sum of electronic and thermal Enthalpies=            -422.991023
 Sum of electronic and thermal Free Energies=         -423.034797

                     E (Thermal)             CV                S
                      KCal/Mol        Cal/Mol-Kelvin    Cal/Mol-Kelvin
 Total                  104.464             32.855             92.129
 Electronic               0.000              0.000              0.000
 Translational            0.889              2.981             40.409
 Rotational               0.889              2.981             28.861
 Vibrational            102.687             26.894             22.859
 Vibration     1          0.599              1.967              4.058
 Vibration     2          0.609              1.932              3.082
 Vibration     3          0.622              1.889              2.523
 Vibration     4          0.633              1.855              2.239
 Vibration     5          0.639              1.837              2.114
 Vibration     6          0.654              1.790              1.855
 Vibration     7          0.691              1.679              1.432
 Vibration     8          0.737              1.548              1.107
 Vibration     9          0.756              1.496              1.008
 Vibration    10          0.808              1.363              0.798

 Normal termination of Gaussian 09 at Tue Jan 28 12:55:44 2020.
