 Gaussian 09, Revision D.01,
 Gaussian 09:  ES64L-G09RevD.01 24-Apr-2013

 -----------------------------
 # b3lyp 6-31G(2df,p) opt Freq
 -----------------------------

 -----
 titel
 -----
 Symbolic Z-matrix:
 Charge =  0 Multiplicity = 1

 SCF Done:  E(RB3LYP) =  -423.176525466     A.U. after   14 cycles
 Optimization completed.
    -- Stationary point found.
 Normal termination of Gaussian 09 at Tue Jan 28 13:28:05 2020.

 ----------------------------------------------------------------------
 #N Geom=AllCheck Guess=TCheck SCRF=Check GenChk RB3LYP/6-31G(2df,p) Fr
 eq
 ----------------------------------------------------------------------

 Structure from the checkpoint file:  "/scratch/puck/g09_a4597fd8-8fa9-4ae4-a560-f4715ba6ceec/Gau-31866.chk"
 -----
 titel
 -----
 Charge =  0 Multiplicity = 1

                         Standard orientation:
 ---------------------------------------------------------------------
 Center     Atomic      Atomic             Coordinates (Angstroms)
 Number     Number       Type             X           Y           Z
 ---------------------------------------------------------------------
      1          6           0       -3.522436   -0.263638   -0.046747
      2          6           0       -2.098819   -0.710099   -0.401504
      3          6           0       -1.124179    0.441203   -0.394553
      4          8           0       -0.741145    0.954390    0.899157
      5          6           0        0.249595    0.335960    0.099590
      6          6           0        1.045769   -0.904272    0.545857
      7          6           0        2.293679   -0.225303   -0.057267
      8          8           0        3.419221   -0.581849   -0.242175
      9          6           0        1.517013    1.068907   -0.374990
     10          1           0       -4.212708   -1.111957   -0.048684
     11          1           0       -3.543677    0.192987    0.947004
     12          1           0       -3.896677    0.474673   -0.764127
     13          1           0       -1.757366   -1.470975    0.308746
     14          1           0       -2.085956   -1.171790   -1.397596
     15          1           0       -1.331379    1.228978   -1.123439
     16          1           0        1.105002   -1.015616    1.633817
     17          1           0        0.777704   -1.869397    0.106805
     18          1           0        1.801521    1.903615    0.274994
     19          1           0        1.555185    1.402602   -1.415699
 ---------------------------------------------------------------------

 SCF Done:  E(RB3LYP) =  -423.176525466     A.U. after    1 cycles

 The electronic state is 1-A.
 Alpha  occ. eigenvalues --  -19.15538 -19.14289 -10.27849 -10.25265 -10.24281
 Alpha  occ. eigenvalues --  -10.19891 -10.19810 -10.19513 -10.18200  -1.07783
 Alpha  occ. eigenvalues --   -1.05190  -0.84264  -0.78475  -0.69561  -0.67610
 Alpha  occ. eigenvalues --   -0.60659  -0.57399  -0.53684  -0.50225  -0.48053
 Alpha  occ. eigenvalues --   -0.47700  -0.44960  -0.42986  -0.42196  -0.41390
 Alpha  occ. eigenvalues --   -0.40020  -0.37940  -0.37602  -0.36122  -0.34803
 Alpha  occ. eigenvalues --   -0.34096  -0.29569  -0.27342  -0.24531
 Alpha virt. eigenvalues --   -0.02857   0.08552   0.09405   0.10728   0.11368
 Alpha virt. eigenvalues --    0.11721   0.12848   0.14060   0.15000   0.16674
 Alpha virt. eigenvalues --    0.17197   0.17677   0.18993   0.19775   0.21735

 Mulliken charges:
               1
     1  C   -0.374874
     2  C   -0.211972
     3  C   -0.029298
     4  O   -0.290830
     5  C    0.421088
     6  C   -0.433737
     7  C    0.404431
     8  O   -0.285837
     9  C   -0.436417
    10  H    0.116739
    11  H    0.136346
    12  H    0.117433
    13  H    0.106475
    14  H    0.103110
    15  H    0.090761
    16  H    0.146732
    17  H    0.136379
    18  H    0.147478
    19  H    0.135994
 Sum of Mulliken charges =   0.00000

 Dipole moment (field-independent basis, Debye):
    X=             -2.3357    Y=             -0.1352    Z=             -0.9483  Tot=              2.5245
 Quadrupole moment (field-independent basis, Debye-Ang):
   XX=            -63.9137   YY=            -52.4591   ZZ=            -52.3744
   XY=              4.6766   XZ=              3.4363   YZ=             -2.2957

  Exact polarizability:  97.990   0.402  70.569   0.976  -3.474  62.765
 Approx polarizability: 124.578  -4.092 104.563  -0.538  -1.524 100.278

                      1                      2                      3
                      A                      A                      A
 Frequencies --     43.8592                80.3587               129.4842
 Red. masses --      4.1452                 2.6268                 3.3810
 Frc consts  --      0.0047                 0.0100                 0.0334
 IR Inten    --      4.1495                 1.7779                 1.6239

                      4                      5                      6
                      A                      A                      A
 Frequencies --    180.3783               250.8475               283.0684
 Red. masses --      1.6040                 1.3072                 3.0379
 Frc consts  --      0.0307                 0.0485                 0.1434
 IR Inten    --      0.5791                 0.4728                 3.1738

                      7                      8                      9
                      A                      A                      A
 Frequencies --    338.8910               406.7884               427.2217
 Red. masses --      4.5861                 3.4651                 1.9163
 Frc consts  --      0.3103                 0.3378                 0.2061
 IR Inten    --      6.9687                 1.2651                 0.3958

                     10                     11                     12
                      A                      A                      A
 Frequencies --    479.2503               507.9669               572.4705
 Red. masses --      2.6736                 3.4199                 4.6547
 Frc consts  --      0.3618                 0.5199                 0.8988
 IR Inten    --      6.3289                 0.4141                 0.8663

                     13                     14                     15
                      A                      A                      A
 Frequencies --    651.0291               720.8519               758.5472
 Red. masses --      1.4918                 3.0034                 1.6291
 Frc consts  --      0.3725                 0.9195                 0.5523
 IR Inten    --      0.4451                 1.0371                 3.6883

                     16                     17                     18
                      A                      A                      A
 Frequencies --    829.7701               866.1115               925.4268
 Red. masses --      1.8392                 3.4677                 2.5157
 Frc consts  --      0.7461                 1.5326                 1.2694
 IR Inten    --     11.9252                17.4434                21.7164

                     19                     20                     21
                      A                      A                      A
 Frequencies --    952.3997               966.3887               992.5301
 Red. masses --      2.6103                 2.4380                 1.3759
 Frc consts  --      1.3950                 1.3415                 0.7986
 IR Inten    --     12.6888                10.4249                 6.4300

                     22                     23                     24
                      A                      A                      A
 Frequencies --   1047.2590              1070.7014              1081.5542
 Red. masses --      2.6129                 1.8197                 2.9687
 Frc consts  --      1.6884                 1.2291                 2.0460
 IR Inten    --     13.4954                14.1825                12.8114

                     25                     26                     27
                      A                      A                      A
 Frequencies --   1129.1225              1156.2364              1176.8326
 Red. masses --      2.1902                 1.9093                 1.5477
 Frc consts  --      1.6452                 1.5039                 1.2629
 IR Inten    --     28.1727                 0.3914                 1.6310

                     28                     29                     30
                      A                      A                      A
 Frequencies --   1192.3417              1198.1816              1220.1118
 Red. masses --      1.5697                 2.1704                 1.6426
 Frc consts  --      1.3149                 1.8358                 1.4408
 IR Inten    --     10.4477                23.1118                10.8855

                     31                     32                     33
                      A                      A                      A
 Frequencies --   1292.4055              1336.8704              1371.5217
 Red. masses --      1.2081                 1.2750                 1.5658
 Frc consts  --      1.1889                 1.3425                 1.7354
 IR Inten    --      0.2909                12.8330                 8.8706

                     34                     35                     36
                      A                      A                      A
 Frequencies --   1410.4593              1414.3891              1431.1412
 Red. masses --      1.2327                 1.0928                 1.1243
 Frc consts  --      1.4449                 1.2880                 1.3567
 IR Inten    --      1.6238                21.1837                 1.3336

                     37                     38                     39
                      A                      A                      A
 Frequencies --   1473.1563              1498.6498              1505.4896
 Red. masses --      1.0786                 1.0541                 1.1974
 Frc consts  --      1.3792                 1.3948                 1.5990
 IR Inten    --      0.9912                 3.6122                 5.3492

                     40                     41                     42
                      A                      A                      A
 Frequencies --   1518.8122              1902.4742              3025.9803
 Red. masses --      3.0327                12.8139                 1.0626
 Frc consts  --      4.1218                27.3256                 5.7328
 IR Inten    --     19.6107               282.0593                19.1070

                     43                     44                     45
                      A                      A                      A
 Frequencies --   3038.5709              3051.6437              3056.6283
 Red. masses --      1.0358                 1.0584                 1.0606
 Frc consts  --      5.6348                 5.8072                 5.8381
 IR Inten    --     25.9397                 3.7528                 4.7454

                     46                     47                     48
                      A                      A                      A
 Frequencies --   3066.6989              3083.2041              3108.2242
 Red. masses --      1.0924                 1.0920                 1.1010
 Frc consts  --      6.0529                 6.1159                 6.2668
 IR Inten    --      2.0105                28.3160                37.9546

                     49                     50                     51
                      A                      A                      A
 Frequencies --   3108.8707              3110.5111              3119.3779
 Red. masses --      1.1055                 1.1035                 1.1025
 Frc consts  --      6.2953                 6.2902                 6.3208
 IR Inten    --      5.2869                 5.0460                25.2218

 - Thermochemistry -
 -------------------
 Temperature   298.150 Kelvin.  Pressure   1.00000 Atm.
 Atom     1 has atomic number  6 and mass  12.00000

 Molecular mass:   126.06808 amu.
 Principal axes and moments of inertia in atomic units:
                           1         2         3
     Eigenvalues --   371.480552183.739612323.93733
           X            0.99983   0.01764   0.00581
           Y           -0.01704   0.99577  -0.09029
           Z           -0.00738   0.09017   0.99590
 This molecule is an asymmetric top.
 Rotational symmetry number  1.
 Rotational temperatures (Kelvin)      0.23316     0.03966     0.03727
 Rotational constants (GHZ):           4.85824     0.82645     0.77659
 Zero-point vibrational energy     410086.2 (Joules/Mol)
                                   98.01296 (Kcal/Mol)
 Warning -- explicit consideration of  12 degrees of freedom as
           vibrations may cause significant error
 Vibrational temperatures:     63.10   115.62   186.30   259.52   360.91
          (Kelvin)            407.27   487.59   585.28   614.68   689.53
                              730.85   823.66   936.68  1037.14  1091.38
                             1193.85  1246.14  1331.48  1370.29  1390.42
                             1428.03  1506.77  1540.50  1556.11  1624.55
                             1663.56  1693.20  1715.51  1723.91  1755.47
                             1859.48  1923.46  1973.31  2029.33  2034.99
                             2059.09  2119.54  2156.22  2166.06  2185.23
                             2737.23  4353.71  4371.82  4390.63  4397.80
                             4412.29  4436.04  4472.04  4472.97  4475.33
                             4488.08

 Zero-point correction=                           0.156194 (Hartree/Particle)
 Thermal correction to Energy=                    0.165341
 Thermal correction to Enthalpy=                  0.166285
 Thermal correction to Gibbs Free Energy=         0.121564
 Sum of electronic and zero-point Energies=           -423.020332
 Sum of electronic and thermal Energies=              -423.011184
 Sum of electronic and thermal Enthalpies=            -423.010240
 Sum of electronic and thermal Free Energies=         -423.054961

                     E (Thermal)             CV                S
                      KCal/Mol        Cal/Mol-Kelvin    Cal/Mol-Kelvin
 Total                  103.753             33.799             94.124
 Electronic               0.000              0.000              0.000
 Translational            0.889              2.981             40.409
 Rotational               0.889              2.981             29.024
 Vibrational            101.976             27.837             24.692
 Vibration     1          0.595              1.980              5.077
 Vibration     2          0.600              1.962              3.882
 Vibration     3          0.612              1.924              2.954
 Vibration     4          0.629              1.866              2.324
 Vibration     5          0.663              1.761              1.725
 Vibration     6          0.682              1.705              1.515
 Vibration     7          0.719              1.598              1.217
 Vibration     8          0.772              1.455              0.938
 Vibration     9          0.789              1.411              0.868
 Vibration    10          0.836              1.296              0.712
 Vibration    11          0.863              1.232              0.639
 Vibration    12          0.929              1.091              0.500

 Optimization completed.
    -- Stationary point found.
 Normal termination of Gaussian 09 at Tue Jan 28 14:05:54 2020.
