 Gaussian 09, Revision D.01,
 Gaussian 09:  ES64L-G09RevD.01 24-Apr-2013

 -----------------------------
 # b3lyp 6-31G(2df,p) opt Freq
 -----------------------------

 -----
 titel
 -----
 Symbolic Z-matrix:
 Charge =  0 Multiplicity = 1

 SCF Done:  E(RB3LYP) =  -423.214454823     A.U. after   14 cycles
 Optimization completed.
    -- Stationary point found.
 Normal termination of Gaussian 09 at Mon Jan 27 16:10:08 2020.

 ----------------------------------------------------------------------
 #N Geom=AllCheck Guess=TCheck SCRF=Check GenChk RB3LYP/6-31G(2df,p) Fr
 eq
 ----------------------------------------------------------------------

 Structure from the checkpoint file:  "/scratch/puck/g09_1b9347ac-ef21-4199-8881-05f5c5c11e57/Gau-83292.chk"
 -----
 titel
 -----
 Charge =  0 Multiplicity = 1

                         Standard orientation:
 ---------------------------------------------------------------------
 Center     Atomic      Atomic             Coordinates (Angstroms)
 Number     Number       Type             X           Y           Z
 ---------------------------------------------------------------------
      1          6           0       -1.766182    0.147447    1.271129
      2          6           0       -0.968890   -0.083380   -0.000001
      3          6           0       -1.766206    0.147601   -1.271089
      4          8           0       -0.410613   -1.465794   -0.000093
      5          6           0        0.883577   -1.006373    0.000016
      6          8           0        1.890284   -1.643836   -0.000025
      7          6           0        0.477439    0.433444    0.000012
      8          6           0        1.142268    1.553644    0.750874
      9          6           0        1.142279    1.553655   -0.750827
     10          1           0       -2.648537   -0.499247    1.291447
     11          1           0       -1.159341   -0.064929    2.154696
     12          1           0       -2.106520    1.186875    1.325291
     13          1           0       -2.648551   -0.499104   -1.291473
     14          1           0       -2.106559    1.187030   -1.325111
     15          1           0       -1.159378   -0.064653   -2.154694
     16          1           0        0.498233    2.260953    1.262721
     17          1           0        2.064654    1.316446    1.269694
     18          1           0        0.498251    2.260972   -1.262672
     19          1           0        2.064674    1.316468   -1.269636
 ---------------------------------------------------------------------

 SCF Done:  E(RB3LYP) =  -423.214454823     A.U. after    1 cycles

 The electronic state is 1-A.
 Alpha  occ. eigenvalues --  -19.16974 -19.12430 -10.29784 -10.26197 -10.21483
 Alpha  occ. eigenvalues --  -10.20949 -10.20923 -10.19119 -10.19118  -1.09487
 Alpha  occ. eigenvalues --   -1.02212  -0.87934  -0.79170  -0.70943  -0.68393
 Alpha  occ. eigenvalues --   -0.62136  -0.59378  -0.52838  -0.52260  -0.47914
 Alpha  occ. eigenvalues --   -0.47380  -0.45369  -0.43159  -0.42173  -0.40788
 Alpha  occ. eigenvalues --   -0.40042  -0.38229  -0.37963  -0.36811  -0.35231
 Alpha  occ. eigenvalues --   -0.31258  -0.31027  -0.28988  -0.26462
 Alpha virt. eigenvalues --    0.01339   0.07063   0.08900   0.09526   0.10853
 Alpha virt. eigenvalues --    0.11153   0.13647   0.14274   0.17129   0.17133
 Alpha virt. eigenvalues --    0.17378   0.18975   0.19340   0.19729   0.21772

 Mulliken charges:
               1
     1  C   -0.429541
     2  C    0.348006
     3  C   -0.429545
     4  O   -0.311840
     5  C    0.439073
     6  O   -0.351656
     7  C    0.074913
     8  C   -0.321686
     9  C   -0.321684
    10  H    0.132720
    11  H    0.131893
    12  H    0.120565
    13  H    0.132720
    14  H    0.120565
    15  H    0.131894
    16  H    0.125278
    17  H    0.141521
    18  H    0.125280
    19  H    0.141523
 Sum of Mulliken charges =   0.00000

 Dipole moment (field-independent basis, Debye):
    X=             -2.3315    Y=              3.7832    Z=              0.0002  Tot=              4.4439
 Quadrupole moment (field-independent basis, Debye-Ang):
   XX=            -54.6607   YY=            -58.1469   ZZ=            -50.9646
   XY=              3.7861   XZ=              0.0000   YZ=             -0.0004

  Exact polarizability:  84.379  -0.791  75.164   0.000   0.000  67.465
 Approx polarizability: 121.420  -4.756 115.025   0.000   0.001  96.697

                      1                      2                      3
                      A                      A                      A
 Frequencies --     97.7699               178.9332               191.9809
 Red. masses --      4.0923                 3.3382                 2.9200
 Frc consts  --      0.0230                 0.0630                 0.0634
 IR Inten    --      0.3270                 0.8929                 1.3175

                      4                      5                      6
                      A                      A                      A
 Frequencies --    197.7856               207.5151               237.1017
 Red. masses --      1.2782                 1.5291                 1.1528
 Frc consts  --      0.0295                 0.0388                 0.0382
 IR Inten    --      0.0859                 0.6810                 0.1545

                      7                      8                      9
                      A                      A                      A
 Frequencies --    313.0067               335.8745               353.8151
 Red. masses --      2.9036                 2.4568                 3.6623
 Frc consts  --      0.1676                 0.1633                 0.2701
 IR Inten    --      1.6133                 0.5278                 2.2781

                     10                     11                     12
                      A                      A                      A
 Frequencies --    491.7842               559.2419               614.8480
 Red. masses --      3.5231                 2.7912                 5.4614
 Frc consts  --      0.5020                 0.5143                 1.2164
 IR Inten    --      0.9750                 5.9151                 4.6822

                     13                     14                     15
                      A                      A                      A
 Frequencies --    638.9748               737.2573               776.9593
 Red. masses --      3.8535                 5.1799                 1.2328
 Frc consts  --      0.9270                 1.6588                 0.4385
 IR Inten    --      0.2704                10.1307                 0.7013

                     16                     17                     18
                      A                      A                      A
 Frequencies --    815.9660               836.3087               929.9800
 Red. masses --      2.2756                 4.3048                 2.1725
 Frc consts  --      0.8927                 1.7739                 1.1070
 IR Inten    --     27.1005                41.9057                 0.7965

                     19                     20                     21
                      A                      A                      A
 Frequencies --    946.4155               959.2431               972.6646
 Red. masses --      1.6525                 1.6442                 2.0345
 Frc consts  --      0.8721                 0.8914                 1.1340
 IR Inten    --      0.5536                 0.0446                22.1786

                     22                     23                     24
                      A                      A                      A
 Frequencies --   1008.9988              1013.0713              1050.3940
 Red. masses --      3.0380                 1.4168                 1.6021
 Frc consts  --      1.8223                 0.8567                 1.0415
 IR Inten    --     20.5887                 0.4347                24.3871

                     25                     26                     27
                      A                      A                      A
 Frequencies --   1079.4545              1085.1205              1182.0022
 Red. masses --      2.0827                 1.3665                 2.0921
 Frc consts  --      1.4298                 0.9480                 1.7221
 IR Inten    --     64.9466                 1.2669                15.2025

                     28                     29                     30
                      A                      A                      A
 Frequencies --   1194.2126              1234.2502              1251.7771
 Red. masses --      1.2817                 3.4950                 3.4902
 Frc consts  --      1.0770                 3.1369                 3.2222
 IR Inten    --      0.2941               129.9516                13.1463

                     31                     32                     33
                      A                      A                      A
 Frequencies --   1295.1969              1393.8259              1405.5827
 Red. masses --      3.3371                 2.5600                 1.3268
 Frc consts  --      3.2983                 2.9303                 1.5444
 IR Inten    --     24.0281                33.3260                12.5168

                     34                     35                     36
                      A                      A                      A
 Frequencies --   1420.0999              1458.6926              1474.9329
 Red. masses --      1.2489                 1.0854                 1.0472
 Frc consts  --      1.4840                 1.3607                 1.3423
 IR Inten    --      5.5655                 3.1146                 0.0820

                     37                     38                     39
                      A                      A                      A
 Frequencies --   1480.4556              1494.0839              1497.1143
 Red. masses --      1.0495                 1.2744                 1.0746
 Frc consts  --      1.3552                 1.6761                 1.4191
 IR Inten    --      1.3049                 5.5493                 0.2627

                     40                     41                     42
                      A                      A                      A
 Frequencies --   1506.2619              1927.0403              3038.4611
 Red. masses --      1.2667                12.8142                 1.0354
 Frc consts  --      1.6933                28.0364                 5.6323
 IR Inten    --      0.5862               446.3002                 9.4865

                     43                     44                     45
                      A                      A                      A
 Frequencies --   3043.6151              3107.1620              3113.2538
 Red. masses --      1.0358                 1.1008                 1.1004
 Frc consts  --      5.6533                 6.2615                 6.2838
 IR Inten    --     13.6317                 0.7435                27.5299

                     46                     47                     48
                      A                      A                      A
 Frequencies --   3125.5576              3127.2503              3133.0698
 Red. masses --      1.1021                 1.1023                 1.0499
 Frc consts  --      6.3434                 6.3516                 6.0718
 IR Inten    --      8.7359                22.0805                10.7155

                     49                     50                     51
                      A                      A                      A
 Frequencies --   3134.8976              3215.5951              3229.6045
 Red. masses --      1.0580                 1.1185                 1.1163
 Frc consts  --      6.1261                 6.8140                 6.8599
 IR Inten    --      7.1903                 0.0163                 5.3485

 - Thermochemistry -
 -------------------
 Temperature   298.150 Kelvin.  Pressure   1.00000 Atm.
 Atom     1 has atomic number  6 and mass  12.00000

 Molecular mass:   126.06808 amu.
 Principal axes and moments of inertia in atomic units:
                           1         2         3
     Eigenvalues --   863.223991069.180431396.52569
           X            0.99622   0.08683   0.00000
           Y           -0.08683   0.99622  -0.00001
           Z            0.00000   0.00001   1.00000
 This molecule is an asymmetric top.
 Rotational symmetry number  1.
 Warning -- assumption of classical behavior for rotation
           may cause significant error
 Rotational temperatures (Kelvin)      0.10034     0.08101     0.06202
 Rotational constants (GHZ):           2.09070     1.68797     1.29231
 Zero-point vibrational energy     413396.3 (Joules/Mol)
                                   98.80408 (Kcal/Mol)
 Warning -- explicit consideration of  12 degrees of freedom as
           vibrations may cause significant error
 Vibrational temperatures:    140.67   257.44   276.22   284.57   298.57
          (Kelvin)            341.14   450.35   483.25   509.06   707.57
                              804.62   884.63   919.34  1060.75  1117.87
                             1173.99  1203.26  1338.03  1361.68  1380.14
                             1399.45  1451.72  1457.58  1511.28  1553.09
                             1561.24  1700.64  1718.20  1775.81  1801.03
                             1863.50  2005.40  2022.32  2043.20  2098.73
                             2122.10  2130.04  2149.65  2154.01  2167.17
                             2772.58  4371.66  4379.08  4470.51  4479.27
                             4496.97  4499.41  4507.78  4510.41  4626.52
                             4646.67

 Zero-point correction=                           0.157454 (Hartree/Particle)
 Thermal correction to Energy=                    0.166443
 Thermal correction to Enthalpy=                  0.167387
 Thermal correction to Gibbs Free Energy=         0.124192
 Sum of electronic and zero-point Energies=           -423.057000
 Sum of electronic and thermal Energies=              -423.048012
 Sum of electronic and thermal Enthalpies=            -423.047068
 Sum of electronic and thermal Free Energies=         -423.090263

                     E (Thermal)             CV                S
                      KCal/Mol        Cal/Mol-Kelvin    Cal/Mol-Kelvin
 Total                  104.445             34.026             90.912
 Electronic               0.000              0.000              0.000
 Translational            0.889              2.981             40.409
 Rotational               0.889              2.981             28.646
 Vibrational            102.667             28.065             21.857
 Vibration     1          0.603              1.951              3.498
 Vibration     2          0.629              1.868              2.340
 Vibration     3          0.634              1.851              2.209
 Vibration     4          0.637              1.843              2.154
 Vibration     5          0.641              1.829              2.065
 Vibration     6          0.656              1.784              1.825
 Vibration     7          0.701              1.649              1.346
 Vibration     8          0.717              1.604              1.232
 Vibration     9          0.730              1.567              1.149
 Vibration    10          0.848              1.268              0.679
 Vibration    11          0.915              1.120              0.525
 Vibration    12          0.974              1.000              0.425

 Optimization completed.
    -- Stationary point found.
 Normal termination of Gaussian 09 at Mon Jan 27 16:52:58 2020.
