 Gaussian 09, Revision D.01,
 Gaussian 09:  ES64L-G09RevD.01 24-Apr-2013

 -----------------------------
 # b3lyp 6-31G(2df,p) opt Freq
 -----------------------------

 -----
 titel
 -----
 Symbolic Z-matrix:
 Charge =  0 Multiplicity = 1

 SCF Done:  E(RB3LYP) =  -423.118100898     A.U. after   14 cycles
 Optimization completed.
    -- Stationary point found.
 Normal termination of Gaussian 09 at Tue Jan 28 14:05:42 2020.

 ----------------------------------------------------------------------
 #N Geom=AllCheck Guess=TCheck SCRF=Check GenChk RB3LYP/6-31G(2df,p) Fr
 eq
 ----------------------------------------------------------------------

 Structure from the checkpoint file:  "/scratch/puck/g09_a6599dcf-d56d-4d1c-bfb3-0ab2674caee0/Gau-98267.chk"
 -----
 titel
 -----
 Charge =  0 Multiplicity = 1

                         Standard orientation:
 ---------------------------------------------------------------------
 Center     Atomic      Atomic             Coordinates (Angstroms)
 Number     Number       Type             X           Y           Z
 ---------------------------------------------------------------------
      1          6           0        2.787980    1.136994    0.286415
      2          6           0        2.053967    0.064906   -0.527798
      3          6           0        0.545071    0.143524   -0.365055
      4          6           0       -0.319120   -1.082144   -0.764554
      5          8           0        0.211755   -1.828705    0.390250
      6          6           0       -0.118484   -0.471708    0.905066
      7          6           0       -1.478491   -0.579298    0.172701
      8          6           0       -2.330648    0.606954   -0.177026
      9          8           0       -2.076064    1.758215    0.080817
     10          1           0        3.869399    1.075303    0.132156
     11          1           0        2.466610    2.145052    0.002310
     12          1           0        2.599132    1.020481    1.358977
     13          1           0        2.296666    0.187255   -1.591505
     14          1           0        2.393306   -0.932877   -0.236379
     15          1           0        0.146774    1.118250   -0.654022
     16          1           0       -0.402779   -1.611966   -1.714572
     17          1           0        0.067106   -0.275585    1.960814
     18          1           0       -2.093817   -1.417994    0.510564
     19          1           0       -3.269560    0.340626   -0.715359
 ---------------------------------------------------------------------

 SCF Done:  E(RB3LYP) =  -423.118100898     A.U. after    1 cycles

 The electronic state is 1-A.
 Alpha  occ. eigenvalues --  -19.14918 -19.14199 -10.28007 -10.26397 -10.25701
 Alpha  occ. eigenvalues --  -10.21182 -10.20023 -10.18105 -10.17513  -1.06789
 Alpha  occ. eigenvalues --   -1.05336  -0.81172  -0.77296  -0.70226  -0.66283
 Alpha  occ. eigenvalues --   -0.63385  -0.58125  -0.53261  -0.52337  -0.48923
 Alpha  occ. eigenvalues --   -0.46863  -0.44399  -0.43046  -0.41209  -0.40912
 Alpha  occ. eigenvalues --   -0.38529  -0.37574  -0.36026  -0.33626  -0.33194
 Alpha  occ. eigenvalues --   -0.32737  -0.31276  -0.26841  -0.24184
 Alpha virt. eigenvalues --   -0.03822   0.08197   0.09341   0.11060   0.12104
 Alpha virt. eigenvalues --    0.12277   0.13146   0.13871   0.14754   0.15379
 Alpha virt. eigenvalues --    0.15792   0.17971   0.18326   0.19678   0.20159

 Mulliken charges:
               1
     1  C   -0.379351
     2  C   -0.220519
     3  C    0.030387
     4  C   -0.001478
     5  O   -0.308873
     6  C    0.026976
     7  C   -0.074167
     8  C    0.120087
     9  O   -0.249226
    10  H    0.115024
    11  H    0.118758
    12  H    0.117407
    13  H    0.094903
    14  H    0.118354
    15  H    0.101926
    16  H    0.099832
    17  H    0.103396
    18  H    0.103644
    19  H    0.082921
 Sum of Mulliken charges =   0.00000

 Dipole moment (field-independent basis, Debye):
    X=             -0.2792    Y=             -0.7261    Z=             -0.8811  Tot=              1.1754
 Quadrupole moment (field-independent basis, Debye-Ang):
   XX=            -51.1792   YY=            -62.0225   ZZ=            -50.2561
   XY=              5.8290   XZ=              0.6546   YZ=              1.2227

  Exact polarizability:  88.586   2.077  74.491   1.626   2.422  66.139
 Approx polarizability: 111.213  -0.660 122.838   2.179   4.436 104.673

                      1                      2                      3
                      A                      A                      A
 Frequencies --     75.5532                88.0718               129.8845
 Red. masses --      2.5869                 3.8955                 3.4421
 Frc consts  --      0.0087                 0.0178                 0.0342
 IR Inten    --      3.9303                 5.9951                 1.7778

                      4                      5                      6
                      A                      A                      A
 Frequencies --    189.6045               223.3481               247.2450
 Red. masses --      1.4721                 3.8696                 1.6635
 Frc consts  --      0.0312                 0.1137                 0.0599
 IR Inten    --      0.6557                 8.4492                 0.0364

                      7                      8                      9
                      A                      A                      A
 Frequencies --    323.4808               402.7234               453.0412
 Red. masses --      2.7326                 3.0556                 4.8627
 Frc consts  --      0.1685                 0.2920                 0.5880
 IR Inten    --      2.2119                 0.3925                 1.8488

                     10                     11                     12
                      A                      A                      A
 Frequencies --    609.9702               702.6466               730.1582
 Red. masses --      4.2998                 4.1339                 2.6311
 Frc consts  --      0.9426                 1.2025                 0.8264
 IR Inten    --      8.1904                27.4224                 4.8053

                     13                     14                     15
                      A                      A                      A
 Frequencies --    750.0126               802.6486               848.3640
 Red. masses --      2.5265                 2.1805                 2.6700
 Frc consts  --      0.8373                 0.8277                 1.1322
 IR Inten    --      1.4941                12.9435                 1.6827

                     16                     17                     18
                      A                      A                      A
 Frequencies --    871.8929               880.1497               928.4806
 Red. masses --      1.8775                 2.9620                 2.8610
 Frc consts  --      0.8409                 1.3519                 1.4532
 IR Inten    --      6.1412                26.2125                31.0315

                     19                     20                     21
                      A                      A                      A
 Frequencies --    963.7766              1014.4045              1018.5340
 Red. masses --      2.1398                 1.4633                 1.7133
 Frc consts  --      1.1711                 0.8872                 1.0472
 IR Inten    --      1.6970                 3.3009                16.9951

                     22                     23                     24
                      A                      A                      A
 Frequencies --   1064.4457              1072.5872              1099.0715
 Red. masses --      2.1713                 1.4625                 1.9222
 Frc consts  --      1.4495                 0.9913                 1.3681
 IR Inten    --      4.6572                 2.3738                 1.0438

                     25                     26                     27
                      A                      A                      A
 Frequencies --   1131.4353              1143.1647              1165.3599
 Red. masses --      2.2228                 1.4384                 2.2365
 Frc consts  --      1.6765                 1.1075                 1.7896
 IR Inten    --      4.3498                 7.4043                 3.2221

                     28                     29                     30
                      A                      A                      A
 Frequencies --   1188.2967              1202.6635              1241.6605
 Red. masses --      1.4038                 1.6111                 1.5512
 Frc consts  --      1.1679                 1.3730                 1.4090
 IR Inten    --      6.0537                 7.6538                19.5800

                     31                     32                     33
                      A                      A                      A
 Frequencies --   1270.1802              1291.9637              1346.1424
 Red. masses --      1.5856                 1.2123                 1.4245
 Frc consts  --      1.5072                 1.1923                 1.5209
 IR Inten    --      2.0995                 2.5977                 5.3567

                     34                     35                     36
                      A                      A                      A
 Frequencies --   1368.8228              1411.5244              1426.1466
 Red. masses --      1.7839                 1.2594                 1.2690
 Frc consts  --      1.9693                 1.4784                 1.5207
 IR Inten    --      9.6601                 1.8189                 5.9719

                     37                     38                     39
                      A                      A                      A
 Frequencies --   1432.4832              1489.5387              1500.2120
 Red. masses --      1.4262                 1.0627                 1.0401
 Frc consts  --      1.7243                 1.3892                 1.3792
 IR Inten    --      1.7122                 0.8786                 5.4799

                     40                     41                     42
                      A                      A                      A
 Frequencies --   1506.0866              1815.4192              2864.8322
 Red. masses --      1.0723                10.2394                 1.0822
 Frc consts  --      1.4331                19.8829                 5.2329
 IR Inten    --      3.9994               122.9008               143.3407

                     43                     44                     45
                      A                      A                      A
 Frequencies --   3025.3727              3032.5459              3082.4914
 Red. masses --      1.0679                 1.0360                 1.0843
 Frc consts  --      5.7589                 5.6131                 6.0700
 IR Inten    --     23.4837                26.3009                17.0303

                     46                     47                     48
                      A                      A                      A
 Frequencies --   3083.5300              3098.5939              3105.5927
 Red. masses --      1.0924                 1.0912                 1.1004
 Frc consts  --      6.1196                 6.1729                 6.2533
 IR Inten    --      2.2497                 5.0686                29.9708

                     49                     50                     51
                      A                      A                      A
 Frequencies --   3110.0657              3112.1509              3126.1049
 Red. masses --      1.0935                 1.0932                 1.0946
 Frc consts  --      6.2314                 6.2382                 6.3025
 IR Inten    --     46.3265                55.9220                18.5547

 - Thermochemistry -
 -------------------
 Temperature   298.150 Kelvin.  Pressure   1.00000 Atm.
 Atom     1 has atomic number  6 and mass  12.00000

 Molecular mass:   126.06808 amu.
 Principal axes and moments of inertia in atomic units:
                           1         2         3
     Eigenvalues --   698.197241440.079721863.09503
           X            0.99804   0.06222   0.00605
           Y           -0.06232   0.99791   0.01701
           Z           -0.00498  -0.01736   0.99984
 This molecule is an asymmetric top.
 Rotational symmetry number  1.
 Warning -- assumption of classical behavior for rotation
           may cause significant error
 Rotational temperatures (Kelvin)      0.12405     0.06015     0.04649
 Rotational constants (GHZ):           2.58486     1.25322     0.96868
 Zero-point vibrational energy     413085.3 (Joules/Mol)
                                   98.72977 (Kcal/Mol)
 Warning -- explicit consideration of  10 degrees of freedom as
           vibrations may cause significant error
 Vibrational temperatures:    108.70   126.72   186.87   272.80   321.35
          (Kelvin)            355.73   465.42   579.43   651.82   877.61
                             1010.95  1050.53  1079.10  1154.83  1220.61
                             1254.46  1266.34  1335.87  1386.66  1459.50
                             1465.44  1531.50  1543.21  1581.32  1627.88
                             1644.76  1676.69  1709.69  1730.36  1786.47
                             1827.50  1858.85  1936.80  1969.43  2030.87
                             2051.90  2061.02  2143.11  2158.47  2166.92
                             2611.98  4121.85  4352.83  4363.15  4435.01
                             4436.51  4458.18  4468.25  4474.69  4477.69
                             4497.76

 Zero-point correction=                           0.157336 (Hartree/Particle)
 Thermal correction to Energy=                    0.166093
 Thermal correction to Enthalpy=                  0.167037
 Thermal correction to Gibbs Free Energy=         0.123304
 Sum of electronic and zero-point Energies=           -422.960765
 Sum of electronic and thermal Energies=              -422.952008
 Sum of electronic and thermal Enthalpies=            -422.951064
 Sum of electronic and thermal Free Energies=         -422.994797

                     E (Thermal)             CV                S
                      KCal/Mol        Cal/Mol-Kelvin    Cal/Mol-Kelvin
 Total                  104.225             32.238             92.044
 Electronic               0.000              0.000              0.000
 Translational            0.889              2.981             40.409
 Rotational               0.889              2.981             29.017
 Vibrational            102.447             26.277             22.619
 Vibration     1          0.599              1.965              4.003
 Vibration     2          0.601              1.958              3.702
 Vibration     3          0.612              1.923              2.948
 Vibration     4          0.633              1.854              2.232
 Vibration     5          0.649              1.806              1.932
 Vibration     6          0.661              1.767              1.750
 Vibration     7          0.708              1.628              1.292
 Vibration     8          0.768              1.464              0.953
 Vibration     9          0.812              1.354              0.787
 Vibration    10          0.969              1.011              0.433

 Optimization completed.
    -- Stationary point found.
 Normal termination of Gaussian 09 at Tue Jan 28 14:50:52 2020.
