 Gaussian 09, Revision D.01,
 Gaussian 09:  ES64L-G09RevD.01 24-Apr-2013

 -----------------------------
 # b3lyp 6-31G(2df,p) opt Freq
 -----------------------------

 -----
 titel
 -----
 Symbolic Z-matrix:
 Charge =  0 Multiplicity = 1

 SCF Done:  E(RB3LYP) =  -423.102658670     A.U. after   13 cycles
 Optimization completed.
    -- Stationary point found.
 Normal termination of Gaussian 09 at Mon Jan 27 17:06:50 2020.

 ----------------------------------------------------------------------
 #N Geom=AllCheck Guess=TCheck SCRF=Check GenChk RB3LYP/6-31G(2df,p) Fr
 eq
 ----------------------------------------------------------------------

 Structure from the checkpoint file:  "/scratch/puck/g09_94d6978a-0693-4d7d-8166-823749259b3b/Gau-165918.chk"
 -----
 titel
 -----
 Charge =  0 Multiplicity = 1

                         Standard orientation:
 ---------------------------------------------------------------------
 Center     Atomic      Atomic             Coordinates (Angstroms)
 Number     Number       Type             X           Y           Z
 ---------------------------------------------------------------------
      1          6           0       -1.463517    1.777969    0.250319
      2          6           0       -1.009911    0.359735    0.116052
      3          6           0       -1.407425   -0.920964    0.898867
      4          6           0       -0.572867   -1.343626   -0.331121
      5          8           0       -1.332859   -0.370115   -1.145439
      6          6           0        0.429267   -0.217535    0.000178
      7          6           0        1.542159   -0.212094    1.061759
      8          6           0        2.416595    0.319224   -0.090023
      9          8           0        1.300367    0.284279   -1.008010
     10          1           0       -1.192579    2.172269    1.235124
     11          1           0       -0.987424    2.395150   -0.517221
     12          1           0       -2.549103    1.849301    0.136088
     13          1           0       -0.997165   -1.077153    1.900635
     14          1           0       -2.464519   -1.176376    0.824315
     15          1           0       -0.403046   -2.333215   -0.755228
     16          1           0        1.390211    0.478039    1.893976
     17          1           0        1.820682   -1.191963    1.453634
     18          1           0        2.808047    1.335068    0.034753
     19          1           0        3.229018   -0.340688   -0.414665
 ---------------------------------------------------------------------

 SCF Done:  E(RB3LYP) =  -423.102658670     A.U. after    1 cycles

 The electronic state is 1-A.
 Alpha  occ. eigenvalues --  -19.13570 -19.12504 -10.24441 -10.24291 -10.23891
 Alpha  occ. eigenvalues --  -10.23448 -10.19467 -10.19079 -10.18288  -1.06276
 Alpha  occ. eigenvalues --   -1.02878  -0.79091  -0.74447  -0.73657  -0.67847
 Alpha  occ. eigenvalues --   -0.61338  -0.60140  -0.50913  -0.49084  -0.48319
 Alpha  occ. eigenvalues --   -0.47752  -0.45928  -0.43279  -0.41793  -0.38482
 Alpha  occ. eigenvalues --   -0.38267  -0.37611  -0.36625  -0.34391  -0.32196
 Alpha  occ. eigenvalues --   -0.31756  -0.30034  -0.24122  -0.23137
 Alpha virt. eigenvalues --    0.08160   0.08641   0.10137   0.11032   0.11974
 Alpha virt. eigenvalues --    0.12861   0.14257   0.15062   0.15113   0.15504
 Alpha virt. eigenvalues --    0.17140   0.17637   0.18133   0.18842   0.20704

 Mulliken charges:
               1
     1  C   -0.521800
     2  C    0.324095
     3  C   -0.275719
     4  C   -0.040757
     5  O   -0.348955
     6  C    0.505981
     7  C   -0.390514
     8  C   -0.082125
     9  O   -0.320707
    10  H    0.122713
    11  H    0.144958
    12  H    0.135527
    13  H    0.095167
    14  H    0.110571
    15  H    0.094121
    16  H    0.115498
    17  H    0.117471
    18  H    0.106888
    19  H    0.107589
 Sum of Mulliken charges =   0.00000

 Dipole moment (field-independent basis, Debye):
    X=              1.0464    Y=             -0.1312    Z=              3.1190  Tot=              3.2924
 Quadrupole moment (field-independent basis, Debye-Ang):
   XX=            -51.0004   YY=            -49.5416   ZZ=            -56.9871
   XY=             -1.1676   XZ=             -0.6526   YZ=              0.6694

  Exact polarizability:  85.039   0.720  75.360  -1.086   0.373  66.511
 Approx polarizability: 112.023   0.648 108.179   1.396   0.312 107.895

                      1                      2                      3
                      A                      A                      A
 Frequencies --     85.1173               174.2804               186.8330
 Red. masses --      2.2328                 1.1579                 2.4548
 Frc consts  --      0.0095                 0.0207                 0.0505
 IR Inten    --      0.7586                 0.1153                 0.9484

                      4                      5                      6
                      A                      A                      A
 Frequencies --    198.5730               223.0408               332.6214
 Red. masses --      3.2781                 3.0090                 2.8404
 Frc consts  --      0.0762                 0.0882                 0.1852
 IR Inten    --      1.8159                 0.4574                 2.9273

                      7                      8                      9
                      A                      A                      A
 Frequencies --    429.4595               455.6771               544.1952
 Red. masses --      3.2399                 3.5969                 2.5885
 Frc consts  --      0.3521                 0.4400                 0.4517
 IR Inten    --      0.8247                 1.0293                 2.7353

                     10                     11                     12
                      A                      A                      A
 Frequencies --    648.8834               654.7419               742.4662
 Red. masses --      3.6714                 3.7538                 2.1067
 Frc consts  --      0.9108                 0.9481                 0.6842
 IR Inten    --      6.5225                12.9401                 6.1218

                     13                     14                     15
                      A                      A                      A
 Frequencies --    753.2008               803.3744               866.7025
 Red. masses --      3.9926                 1.2630                 4.5151
 Frc consts  --      1.3345                 0.4803                 1.9983
 IR Inten    --     14.7174                 1.3961                 7.2921

                     16                     17                     18
                      A                      A                      A
 Frequencies --    875.8252               909.0868               946.3794
 Red. masses --      2.5714                 2.4885                 2.0854
 Frc consts  --      1.1621                 1.2117                 1.1005
 IR Inten    --     20.9585                 8.2311                 6.2111

                     19                     20                     21
                      A                      A                      A
 Frequencies --    975.8370              1004.2156              1011.9605
 Red. masses --      2.8935                 2.0765                 1.1210
 Frc consts  --      1.6234                 1.2338                 0.6764
 IR Inten    --      4.4543                 0.1996                 0.7848

                     22                     23                     24
                      A                      A                      A
 Frequencies --   1022.6276              1101.0557              1123.0649
 Red. masses --      6.3715                 1.8635                 2.2255
 Frc consts  --      3.9258                 1.3311                 1.6538
 IR Inten    --    119.2546                14.9829                 3.1898

                     25                     26                     27
                      A                      A                      A
 Frequencies --   1133.4689              1152.4492              1163.6032
 Red. masses --      3.5586                 1.6678                 1.6089
 Frc consts  --      2.6937                 1.3051                 1.2835
 IR Inten    --     52.6890                12.5732                13.2916

                     28                     29                     30
                      A                      A                      A
 Frequencies --   1166.4485              1199.3611              1222.4912
 Red. masses --      1.4021                 1.6790                 1.2729
 Frc consts  --      1.1240                 1.4230                 1.1208
 IR Inten    --      6.3918                 5.0560                 1.5214

                     31                     32                     33
                      A                      A                      A
 Frequencies --   1228.4646              1249.8571              1293.0293
 Red. masses --      1.6571                 1.5426                 3.0351
 Frc consts  --      1.4734                 1.4198                 2.9898
 IR Inten    --      6.0073                 5.5179                33.7295

                     34                     35                     36
                      A                      A                      A
 Frequencies --   1352.9721              1363.7516              1412.1660
 Red. masses --      1.4621                 2.1728                 1.7211
 Frc consts  --      1.5769                 2.3809                 2.0222
 IR Inten    --      5.6600                17.2530                16.7410

                     37                     38                     39
                      A                      A                      A
 Frequencies --   1475.4280              1484.1323              1486.4369
 Red. masses --      1.0543                 1.1201                 1.1392
 Frc consts  --      1.3522                 1.4537                 1.4830
 IR Inten    --      3.5152                 4.3830                 4.5993

                     40                     41                     42
                      A                      A                      A
 Frequencies --   1491.1160              1531.5515              3026.9086
 Red. masses --      1.1716                 1.1209                 1.0551
 Frc consts  --      1.5348                 1.5491                 5.6958
 IR Inten    --     11.0330                 0.6085                86.7492

                     43                     44                     45
                      A                      A                      A
 Frequencies --   3039.4685              3059.3929              3068.6250
 Red. masses --      1.0347                 1.0580                 1.1118
 Frc consts  --      5.6319                 5.8347                 6.1681
 IR Inten    --     14.2714                27.5571                29.5142

                     46                     47                     48
                      A                      A                      A
 Frequencies --   3075.9443              3112.0108              3119.7262
 Red. masses --      1.0595                 1.1006                 1.1021
 Frc consts  --      5.9064                 6.2799                 6.3196
 IR Inten    --     21.5905                12.6372                 9.1666

                     49                     50                     51
                      A                      A                      A
 Frequencies --   3123.1712              3129.6631              3149.9209
 Red. masses --      1.0937                 1.1085                 1.1072
 Frc consts  --      6.2854                 6.3968                 6.4724
 IR Inten    --     42.2195                20.7627                19.4280

 - Thermochemistry -
 -------------------
 Temperature   298.150 Kelvin.  Pressure   1.00000 Atm.
 Atom     1 has atomic number  6 and mass  12.00000

 Molecular mass:   126.06808 amu.
 Principal axes and moments of inertia in atomic units:
                           1         2         3
     Eigenvalues --   634.960751204.112131302.21093
           X            0.99974  -0.02242  -0.00452
           Y            0.02240   0.99974  -0.00308
           Z            0.00459   0.00298   0.99999
 This molecule is an asymmetric top.
 Rotational symmetry number  1.
 Warning -- assumption of classical behavior for rotation
           may cause significant error
 Rotational temperatures (Kelvin)      0.13641     0.07193     0.06651
 Rotational constants (GHZ):           2.84229     1.49881     1.38591
 Zero-point vibrational energy     414989.2 (Joules/Mol)
                                   99.18480 (Kcal/Mol)
 Warning -- explicit consideration of   9 degrees of freedom as
           vibrations may cause significant error
 Vibrational temperatures:    122.46   250.75   268.81   285.70   320.91
          (Kelvin)            478.57   617.90   655.62   782.97   933.60
                              942.03  1068.24  1083.69  1155.88  1246.99
                             1260.12  1307.97  1361.63  1404.01  1444.84
                             1455.98  1471.33  1584.17  1615.84  1630.81
                             1658.12  1674.16  1678.26  1725.61  1758.89
                             1767.48  1798.26  1860.38  1946.62  1962.13
                             2031.79  2122.81  2135.33  2138.65  2145.38
                             2203.56  4355.04  4373.11  4401.78  4415.06
                             4425.59  4477.48  4488.58  4493.54  4502.88
                             4532.03

 Zero-point correction=                           0.158061 (Hartree/Particle)
 Thermal correction to Energy=                    0.166193
 Thermal correction to Enthalpy=                  0.167137
 Thermal correction to Gibbs Free Energy=         0.125449
 Sum of electronic and zero-point Energies=           -422.944598
 Sum of electronic and thermal Energies=              -422.936466
 Sum of electronic and thermal Enthalpies=            -422.935522
 Sum of electronic and thermal Free Energies=         -422.977209

                     E (Thermal)             CV                S
                      KCal/Mol        Cal/Mol-Kelvin    Cal/Mol-Kelvin
 Total                  104.288             31.423             87.739
 Electronic               0.000              0.000              0.000
 Translational            0.889              2.981             40.409
 Rotational               0.889              2.981             28.389
 Vibrational            102.510             25.462             18.942
 Vibration     1          0.601              1.960              3.769
 Vibration     2          0.627              1.874              2.389
 Vibration     3          0.632              1.858              2.259
 Vibration     4          0.637              1.842              2.146
 Vibration     5          0.649              1.806              1.934
 Vibration     6          0.715              1.610              1.247
 Vibration     7          0.791              1.406              0.860
 Vibration     8          0.814              1.348              0.779
 Vibration     9          0.899              1.152              0.556

 Normal termination of Gaussian 09 at Mon Jan 27 17:54:21 2020.
