 Gaussian 09, Revision D.01,
 Gaussian 09:  ES64L-G09RevD.01 24-Apr-2013

 -----------------------------
 # b3lyp 6-31G(2df,p) opt Freq
 -----------------------------

 -----
 titel
 -----
 Symbolic Z-matrix:
 Charge =  0 Multiplicity = 1

 SCF Done:  E(RB3LYP) =  -423.126863848     A.U. after   12 cycles
 Optimization completed.
    -- Stationary point found.
 Normal termination of Gaussian 09 at Tue Jan 28 12:09:28 2020.

 ----------------------------------------------------------------------
 #N Geom=AllCheck Guess=TCheck SCRF=Check GenChk RB3LYP/6-31G(2df,p) Fr
 eq
 ----------------------------------------------------------------------

 Structure from the checkpoint file:  "/scratch/puck/g09_63260d63-6907-47fa-b0fa-f21d0218f747/Gau-129345.chk"
 -----
 titel
 -----
 Charge =  0 Multiplicity = 1

                         Standard orientation:
 ---------------------------------------------------------------------
 Center     Atomic      Atomic             Coordinates (Angstroms)
 Number     Number       Type             X           Y           Z
 ---------------------------------------------------------------------
      1          6           0        2.601893   -0.138579    0.345456
      2          8           0        1.602381    0.240398   -0.584434
      3          6           0        0.310495   -0.095375   -0.218882
      4          6           0       -0.107477   -1.572707   -0.168408
      5          8           0       -1.495540   -1.439458    0.154154
      6          6           0       -1.657927   -0.031500    0.223251
      7          6           0       -0.859755    0.674061   -0.907896
      8          6           0       -0.616516    1.870717    0.041825
      9          6           0       -0.459698    0.632306    0.955486
     10          1           0        2.690952   -1.229899    0.434889
     11          1           0        3.547714    0.260068   -0.027447
     12          1           0        2.405820    0.280342    1.341994
     13          1           0        0.021926   -2.076797   -1.134234
     14          1           0        0.405508   -2.153783    0.607423
     15          1           0       -2.687342    0.236369    0.451544
     16          1           0       -1.084346    0.680949   -1.974786
     17          1           0        0.290028    2.446923   -0.145402
     18          1           0       -1.471288    2.522852    0.240424
     19          1           0       -0.239786    0.591923    2.022836
 ---------------------------------------------------------------------

 SCF Done:  E(RB3LYP) =  -423.126863848     A.U. after    1 cycles

 The electronic state is 1-A.
 Alpha  occ. eigenvalues --  -19.15265 -19.13645 -10.24523 -10.23649 -10.23179
 Alpha  occ. eigenvalues --  -10.22356 -10.19470 -10.19430 -10.18693  -1.05670
 Alpha  occ. eigenvalues --   -1.03588  -0.89366  -0.73392  -0.69119  -0.65928
 Alpha  occ. eigenvalues --   -0.63639  -0.58575  -0.54650  -0.50683  -0.49351
 Alpha  occ. eigenvalues --   -0.46579  -0.45806  -0.44761  -0.43737  -0.39366
 Alpha  occ. eigenvalues --   -0.38780  -0.36125  -0.34209  -0.33996  -0.32124
 Alpha  occ. eigenvalues --   -0.31694  -0.29190  -0.25563  -0.23898
 Alpha virt. eigenvalues --    0.07983   0.10362   0.11846   0.12433   0.12919
 Alpha virt. eigenvalues --    0.14044   0.15053   0.15725   0.16129   0.17348
 Alpha virt. eigenvalues --    0.17929   0.18490   0.19137   0.19403   0.20474

 Mulliken charges:
               1
     1  C   -0.262884
     2  O   -0.303815
     3  C    0.424851
     4  C   -0.156067
     5  O   -0.280494
     6  C    0.143275
     7  C   -0.148906
     8  C   -0.263648
     9  C   -0.163195
    10  H    0.115243
    11  H    0.132096
    12  H    0.115161
    13  H    0.106629
    14  H    0.099632
    15  H    0.091753
    16  H    0.076313
    17  H    0.111193
    18  H    0.091535
    19  H    0.071330
 Sum of Mulliken charges =   0.00000

 Dipole moment (field-independent basis, Debye):
    X=              1.1425    Y=              0.5196    Z=              0.7498  Tot=              1.4621
 Quadrupole moment (field-independent basis, Debye-Ang):
   XX=            -51.3769   YY=            -54.7760   ZZ=            -52.9900
   XY=             -4.5567   XZ=              2.3550   YZ=              0.9277

  Exact polarizability:  80.921  -4.702  76.976   1.303   1.113  65.463
 Approx polarizability: 111.681  -3.235 110.048   0.083   0.479 104.493

                      1                      2                      3
                      A                      A                      A
 Frequencies --     73.3667               169.3363               201.9512
 Red. masses --      2.2062                 1.1899                 2.8238
 Frc consts  --      0.0070                 0.0201                 0.0679
 IR Inten    --      1.7955                 0.3086                 2.0440

                      4                      5                      6
                      A                      A                      A
 Frequencies --    293.2619               324.9077               399.5961
 Red. masses --      2.3730                 3.3976                 3.5759
 Frc consts  --      0.1202                 0.2113                 0.3364
 IR Inten    --      4.8089                 3.7209                 1.5620

                      7                      8                      9
                      A                      A                      A
 Frequencies --    438.9232               484.4563               625.2591
 Red. masses --      3.3591                 2.8901                 4.4455
 Frc consts  --      0.3813                 0.3996                 1.0240
 IR Inten    --      3.0428                 1.1442                 3.1862

                     10                     11                     12
                      A                      A                      A
 Frequencies --    686.1824               718.6261               761.5358
 Red. masses --      5.0307                 4.0127                 3.2780
 Frc consts  --      1.3956                 1.2209                 1.1201
 IR Inten    --      0.2912                 2.1414                 2.3459

                     13                     14                     15
                      A                      A                      A
 Frequencies --    849.1308               895.1805               909.6667
 Red. masses --      2.2099                 1.8878                 1.9572
 Frc consts  --      0.9388                 0.8913                 0.9542
 IR Inten    --      2.0615                 9.2445                 9.3329

                     16                     17                     18
                      A                      A                      A
 Frequencies --    935.7806               959.7059              1001.5854
 Red. masses --      2.7815                 2.3047                 1.1226
 Frc consts  --      1.4351                 1.2507                 0.6635
 IR Inten    --      9.6678                25.1169                 0.2070

                     19                     20                     21
                      A                      A                      A
 Frequencies --   1027.8486              1041.2050              1082.8143
 Red. masses --      3.2889                 3.5772                 2.7171
 Frc consts  --      2.0472                 2.2849                 1.8770
 IR Inten    --     25.0422                 9.8890                56.3438

                     22                     23                     24
                      A                      A                      A
 Frequencies --   1084.7467              1091.9739              1102.2618
 Red. masses --      2.1498                 2.7760                 1.5226
 Frc consts  --      1.4904                 1.9502                 1.0900
 IR Inten    --     18.3765                57.2691                11.1213

                     25                     26                     27
                      A                      A                      A
 Frequencies --   1151.3086              1172.5678              1177.5567
 Red. masses --      1.6177                 2.8532                 1.3652
 Frc consts  --      1.2634                 2.3113                 1.1154
 IR Inten    --      2.0404                11.3073                 0.9239

                     28                     29                     30
                      A                      A                      A
 Frequencies --   1180.4758              1196.4627              1212.6985
 Red. masses --      1.2880                 1.3299                 1.5844
 Frc consts  --      1.0575                 1.1216                 1.3729
 IR Inten    --      2.2710                 5.6882                 9.9863

                     31                     32                     33
                      A                      A                      A
 Frequencies --   1234.1007              1251.1326              1259.5342
 Red. masses --      1.9241                 1.9424                 1.8593
 Frc consts  --      1.7266                 1.7914                 1.7379
 IR Inten    --      1.2653                43.8842                17.4656

                     34                     35                     36
                      A                      A                      A
 Frequencies --   1286.1306              1317.5814              1384.8900
 Red. masses --      2.3173                 1.6369                 1.6829
 Frc consts  --      2.2584                 1.6743                 1.9017
 IR Inten    --     80.7529                74.6127                28.4836

                     37                     38                     39
                      A                      A                      A
 Frequencies --   1482.8235              1491.5633              1505.5567
 Red. masses --      1.1467                 1.0739                 1.0522
 Frc consts  --      1.4855                 1.4077                 1.4053
 IR Inten    --      3.2745                 2.6087                 9.7951

                     40                     41                     42
                      A                      A                      A
 Frequencies --   1515.2202              1522.5698              2995.7152
 Red. masses --      1.1340                 1.0950                 1.0354
 Frc consts  --      1.5340                 1.4956                 5.4748
 IR Inten    --      1.3283                 1.3445                34.7363

                     43                     44                     45
                      A                      A                      A
 Frequencies --   3018.7662              3049.8654              3059.1513
 Red. masses --      1.0555                 1.1040                 1.1088
 Frc consts  --      5.6670                 6.0505                 6.1135
 IR Inten    --     56.1488                56.9596                29.3509

                     46                     47                     48
                      A                      A                      A
 Frequencies --   3063.4946              3107.7392              3114.1219
 Red. masses --      1.0575                 1.0901                 1.0914
 Frc consts  --      5.8475                 6.2032                 6.2360
 IR Inten    --     48.4292                63.5304                20.2812

                     49                     50                     51
                      A                      A                      A
 Frequencies --   3123.0796              3135.8816              3152.3818
 Red. masses --      1.0984                 1.1071                 1.0927
 Frc consts  --      6.3120                 6.4141                 6.3979
 IR Inten    --     26.4810                21.8592                30.1182

 - Thermochemistry -
 -------------------
 Temperature   298.150 Kelvin.  Pressure   1.00000 Atm.
 Atom     1 has atomic number  6 and mass  12.00000

 Molecular mass:   126.06808 amu.
 Principal axes and moments of inertia in atomic units:
                           1         2         3
     Eigenvalues --   647.836701025.218891376.42481
           X            0.99750  -0.06712   0.02219
           Y            0.06692   0.99771   0.00958
           Z           -0.02278  -0.00807   0.99971
 This molecule is an asymmetric top.
 Rotational symmetry number  1.
 Warning -- assumption of classical behavior for rotation
           may cause significant error
 Rotational temperatures (Kelvin)      0.13370     0.08448     0.06293
 Rotational constants (GHZ):           2.78580     1.76035     1.31118
 Zero-point vibrational energy     420617.0 (Joules/Mol)
                                  100.52988 (Kcal/Mol)
 Warning -- explicit consideration of   8 degrees of freedom as
           vibrations may cause significant error
 Vibrational temperatures:    105.56   243.64   290.56   421.94   467.47
          (Kelvin)            574.93   631.51   697.02   899.61   987.26
                             1033.94  1095.68  1221.71  1287.96  1308.81
                             1346.38  1380.80  1441.06  1478.84  1498.06
                             1557.93  1560.71  1571.10  1585.91  1656.47
                             1687.06  1694.24  1698.44  1721.44  1744.80
                             1775.59  1800.10  1812.19  1850.45  1895.70
                             1992.55  2133.45  2146.02  2166.16  2180.06
                             2190.64  4310.16  4343.33  4388.07  4401.43
                             4407.68  4471.34  4480.52  4493.41  4511.83
                             4535.57

 Zero-point correction=                           0.160205 (Hartree/Particle)
 Thermal correction to Energy=                    0.167762
 Thermal correction to Enthalpy=                  0.168706
 Thermal correction to Gibbs Free Energy=         0.128074
 Sum of electronic and zero-point Energies=           -422.966659
 Sum of electronic and thermal Energies=              -422.959102
 Sum of electronic and thermal Enthalpies=            -422.958158
 Sum of electronic and thermal Free Energies=         -422.998790

                     E (Thermal)             CV                S
                      KCal/Mol        Cal/Mol-Kelvin    Cal/Mol-Kelvin
 Total                  105.272             29.706             85.517
 Electronic               0.000              0.000              0.000
 Translational            0.889              2.981             40.409
 Rotational               0.889              2.981             28.304
 Vibrational            103.495             23.744             16.804
 Vibration     1          0.599              1.967              4.061
 Vibration     2          0.625              1.880              2.443
 Vibration     3          0.639              1.837              2.115
 Vibration     4          0.688              1.686              1.455
 Vibration     5          0.709              1.626              1.285
 Vibration     6          0.766              1.471              0.964
 Vibration     7          0.799              1.385              0.830
 Vibration     8          0.841              1.285              0.698

 Optimization completed.
    -- Stationary point found.
 Normal termination of Gaussian 09 at Tue Jan 28 13:01:41 2020.
