 Gaussian 09, Revision D.01,
 Gaussian 09:  ES64L-G09RevD.01 24-Apr-2013

 -----------------------------
 # b3lyp 6-31G(2df,p) opt Freq
 -----------------------------

 -----
 titel
 -----
 Symbolic Z-matrix:
 Charge =  0 Multiplicity = 1

 SCF Done:  E(RB3LYP) =  -423.193724039     A.U. after   14 cycles
 Optimization completed.
    -- Stationary point found.
 Normal termination of Gaussian 09 at Mon Jan 27 12:26:08 2020.

 ----------------------------------------------------------------------
 #N Geom=AllCheck Guess=TCheck SCRF=Check GenChk RB3LYP/6-31G(2df,p) Fr
 eq
 ----------------------------------------------------------------------

 Structure from the checkpoint file:  "/scratch/puck/g09_e6406b73-2202-4a8d-b8b5-1188e8003a47/Gau-133998.chk"
 -----
 titel
 -----
 Charge =  0 Multiplicity = 1

                         Standard orientation:
 ---------------------------------------------------------------------
 Center     Atomic      Atomic             Coordinates (Angstroms)
 Number     Number       Type             X           Y           Z
 ---------------------------------------------------------------------
      1          6           0        0.504086   -0.629062    1.391700
      2          8           0        1.149042    0.602349    1.054828
      3          6           0        0.645950    1.189235   -0.123763
      4          8           0        0.966485    0.406085   -1.261483
      5          6           0        0.857436   -0.996213   -1.032852
      6          6           0       -0.070371   -1.325399    0.140453
      7          6           0       -1.538140   -0.927359   -0.119240
      8          6           0       -1.793775    0.555269   -0.064060
      9          6           0       -0.845045    1.488335   -0.049276
     10          1           0        1.279177   -1.247430    1.855836
     11          1           0       -0.283152   -0.452018    2.137788
     12          1           0        1.204248    2.121232   -0.242743
     13          1           0        0.493143   -1.446838   -1.963061
     14          1           0        1.855731   -1.410930   -0.826851
     15          1           0       -0.036692   -2.409902    0.294841
     16          1           0       -1.868356   -1.331046   -1.088020
     17          1           0       -2.176531   -1.416537    0.629492
     18          1           0       -2.837647    0.858831   -0.019283
     19          1           0       -1.114980    2.538325    0.017466
 ---------------------------------------------------------------------

 SCF Done:  E(RB3LYP) =  -423.193724039     A.U. after    1 cycles

 The electronic state is 1-A.
 Alpha  occ. eigenvalues --  -19.14040 -19.13181 -10.27413 -10.22976 -10.22793
 Alpha  occ. eigenvalues --  -10.19702 -10.19339 -10.18830 -10.17823  -1.06545
 Alpha  occ. eigenvalues --   -0.99390  -0.81969  -0.78842  -0.68362  -0.67457
 Alpha  occ. eigenvalues --   -0.67326  -0.55138  -0.53565  -0.51469  -0.50352
 Alpha  occ. eigenvalues --   -0.46985  -0.44024  -0.43739  -0.42300  -0.42039
 Alpha  occ. eigenvalues --   -0.39555  -0.38205  -0.35823  -0.33829  -0.32351
 Alpha  occ. eigenvalues --   -0.31593  -0.26265  -0.25483  -0.23720
 Alpha virt. eigenvalues --    0.01087   0.07442   0.11016   0.12313   0.12890
 Alpha virt. eigenvalues --    0.14427   0.14705   0.15356   0.15815   0.16571
 Alpha virt. eigenvalues --    0.17612   0.19120   0.19910   0.21102   0.23623

 Mulliken charges:
               1
     1  C   -0.074969
     2  O   -0.255584
     3  C    0.139741
     4  O   -0.263753
     5  C   -0.057135
     6  C   -0.084153
     7  C   -0.260762
     8  C   -0.062727
     9  C   -0.056894
    10  H    0.109256
    11  H    0.098119
    12  H    0.089480
    13  H    0.102210
    14  H    0.097229
    15  H    0.077651
    16  H    0.111293
    17  H    0.106766
    18  H    0.091931
    19  H    0.092300
 Sum of Mulliken charges =   0.00000

 Dipole moment (field-independent basis, Debye):
    X=             -1.5873    Y=             -1.5331    Z=              0.4713  Tot=              2.2565
 Quadrupole moment (field-independent basis, Debye-Ang):
   XX=            -53.5283   YY=            -48.7237   ZZ=            -56.1011
   XY=             -1.2973   XZ=             -0.1030   YZ=             -0.2142

  Exact polarizability:  78.210   1.990  81.880   0.028   0.067  63.107
 Approx polarizability: 115.607  11.987 121.815   0.591  -0.288  95.425

                      1                      2                      3
                      A                      A                      A
 Frequencies --    110.3327               249.3017               273.8793
 Red. masses --      2.6114                 2.7927                 3.5377
 Frc consts  --      0.0187                 0.1023                 0.1563
 IR Inten    --      2.1881                 3.3046                 0.9568

                      4                      5                      6
                      A                      A                      A
 Frequencies --    320.3737               365.4847               455.5045
 Red. masses --      2.4447                 3.3972                 2.2545
 Frc consts  --      0.1478                 0.2674                 0.2756
 IR Inten    --      0.6515                 2.6604                 0.3578

                      7                      8                      9
                      A                      A                      A
 Frequencies --    502.3729               560.0487               574.5395
 Red. masses --      4.3164                 3.9217                 5.5522
 Frc consts  --      0.6418                 0.7247                 1.0798
 IR Inten    --      4.8925                 5.7742                 3.8030

                     10                     11                     12
                      A                      A                      A
 Frequencies --    721.7146               762.6186               808.0119
 Red. masses --      1.6639                 4.0248                 4.1738
 Frc consts  --      0.5106                 1.3791                 1.6055
 IR Inten    --      7.7345                 1.9612                 7.6679

                     13                     14                     15
                      A                      A                      A
 Frequencies --    867.0821               884.0269               897.5525
 Red. masses --      2.7845                 3.0019                 3.1364
 Frc consts  --      1.2334                 1.3822                 1.4887
 IR Inten    --      7.7772                19.0856                17.3338

                     16                     17                     18
                      A                      A                      A
 Frequencies --    926.5873               969.2512               988.1325
 Red. masses --      1.9105                 2.4055                 2.5886
 Frc consts  --      0.9664                 1.3315                 1.4892
 IR Inten    --      2.5032                 7.2052                34.5768

                     19                     20                     21
                      A                      A                      A
 Frequencies --    995.1486               997.9829              1024.1954
 Red. masses --      2.1210                 1.3680                 3.5469
 Frc consts  --      1.2376                 0.8028                 2.1921
 IR Inten    --     16.2357                 7.8451               105.5156

                     22                     23                     24
                      A                      A                      A
 Frequencies --   1039.2821              1103.1764              1122.4811
 Red. masses --      2.3983                 2.0757                 2.0443
 Frc consts  --      1.5263                 1.4883                 1.5176
 IR Inten    --      4.1526                11.0433                22.1388

                     25                     26                     27
                      A                      A                      A
 Frequencies --   1176.2803              1221.8646              1224.9349
 Red. masses --      2.8774                 1.1241                 1.2768
 Frc consts  --      2.3457                 0.9888                 1.1288
 IR Inten    --    114.1929                 7.7153                22.7979

                     28                     29                     30
                      A                      A                      A
 Frequencies --   1250.7978              1259.2806              1340.3036
 Red. masses --      1.2010                 1.1241                 1.7091
 Frc consts  --      1.1071                 1.0502                 1.8090
 IR Inten    --      2.9533                 9.4213                 4.9155

                     31                     32                     33
                      A                      A                      A
 Frequencies --   1344.5687              1366.2667              1372.7409
 Red. masses --      1.6603                 1.2783                 1.1742
 Frc consts  --      1.7685                 1.4058                 1.3037
 IR Inten    --      0.3599                 2.8560                 0.6060

                     34                     35                     36
                      A                      A                      A
 Frequencies --   1390.1687              1406.5286              1418.3776
 Red. masses --      1.3777                 1.3039                 1.4821
 Frc consts  --      1.5687                 1.5198                 1.7568
 IR Inten    --      9.0727                 5.5802                 4.7711

                     37                     38                     39
                      A                      A                      A
 Frequencies --   1422.0462              1473.2167              1505.8505
 Red. masses --      1.3681                 1.0928                 1.0851
 Frc consts  --      1.6301                 1.3974                 1.4497
 IR Inten    --      9.0349                 6.5325                 2.6349

                     40                     41                     42
                      A                      A                      A
 Frequencies --   1518.6563              1725.4962              2989.1837
 Red. masses --      1.0922                 6.6663                 1.0672
 Frc consts  --      1.4841                11.6939                 5.6181
 IR Inten    --      0.4834                 5.8583                63.7354

                     43                     44                     45
                      A                      A                      A
 Frequencies --   2998.0186              3004.8812              3024.2231
 Red. masses --      1.0620                 1.0667                 1.0979
 Frc consts  --      5.6239                 5.6746                 5.9159
 IR Inten    --     28.3452                47.3496                23.7426

                     46                     47                     48
                      A                      A                      A
 Frequencies --   3042.9565              3054.3302              3070.8630
 Red. masses --      1.0875                 1.0959                 1.0965
 Frc consts  --      5.9332                 6.0235                 6.0925
 IR Inten    --     31.2297                45.0738                49.9945

                     49                     50                     51
                      A                      A                      A
 Frequencies --   3080.4080              3143.6707              3174.5618
 Red. masses --      1.0893                 1.0849                 1.0960
 Frc consts  --      6.0898                 6.3168                 6.5075
 IR Inten    --     34.8892                12.0713                25.8804

 - Thermochemistry -
 -------------------
 Temperature   298.150 Kelvin.  Pressure   1.00000 Atm.
 Atom     1 has atomic number  6 and mass  12.00000

 Molecular mass:   126.06808 amu.
 Principal axes and moments of inertia in atomic units:
                           1         2         3
     Eigenvalues --   804.02719 883.923981014.12139
           X            0.99701  -0.07708  -0.00615
           Y            0.07709   0.99702   0.00188
           Z            0.00599  -0.00235   0.99998
 This molecule is an asymmetric top.
 Rotational symmetry number  1.
 Warning -- assumption of classical behavior for rotation
           may cause significant error
 Rotational temperatures (Kelvin)      0.10772     0.09799     0.08541
 Rotational constants (GHZ):           2.24463     2.04174     1.77961
 Zero-point vibrational energy     427781.9 (Joules/Mol)
                                  102.24234 (Kcal/Mol)
 Warning -- explicit consideration of   9 degrees of freedom as
           vibrations may cause significant error
 Vibrational temperatures:    158.74   358.69   394.05   460.95   525.85
          (Kelvin)            655.37   722.80   805.78   826.63  1038.39
                             1097.24  1162.55  1247.54  1271.92  1291.38
                             1333.15  1394.53  1421.70  1431.80  1435.87
                             1473.59  1495.29  1587.22  1615.00  1692.40
                             1757.99  1762.41  1799.62  1811.82  1928.40
                             1934.53  1965.75  1975.07  2000.14  2023.68
                             2040.73  2046.00  2119.63  2166.58  2185.00
                             2482.60  4300.76  4313.47  4323.35  4351.18
                             4378.13  4394.49  4418.28  4432.01  4523.04
                             4567.48

 Zero-point correction=                           0.162934 (Hartree/Particle)
 Thermal correction to Energy=                    0.169918
 Thermal correction to Enthalpy=                  0.170862
 Thermal correction to Gibbs Free Energy=         0.131777
 Sum of electronic and zero-point Energies=           -423.030790
 Sum of electronic and thermal Energies=              -423.023806
 Sum of electronic and thermal Enthalpies=            -423.022862
 Sum of electronic and thermal Free Energies=         -423.061947

                     E (Thermal)             CV                S
                      KCal/Mol        Cal/Mol-Kelvin    Cal/Mol-Kelvin
 Total                  106.625             28.438             82.261
 Electronic               0.000              0.000              0.000
 Translational            0.889              2.981             40.409
 Rotational               0.889              2.981             28.068
 Vibrational            104.848             22.477             13.784
 Vibration     1          0.606              1.941              3.263
 Vibration     2          0.662              1.764              1.736
 Vibration     3          0.676              1.722              1.572
 Vibration     4          0.706              1.635              1.308
 Vibration     5          0.739              1.543              1.099
 Vibration     6          0.814              1.349              0.779
 Vibration     7          0.858              1.245              0.652
 Vibration     8          0.916              1.118              0.524
 Vibration     9          0.931              1.086              0.496

 Optimization completed.
    -- Stationary point found.
 Normal termination of Gaussian 09 at Mon Jan 27 13:26:53 2020.
