 Gaussian 09, Revision D.01,
 Gaussian 09:  ES64L-G09RevD.01 24-Apr-2013

 -----------------------------
 # b3lyp 6-31G(2df,p) opt Freq
 -----------------------------

 -----
 titel
 -----
 Symbolic Z-matrix:
 Charge =  0 Multiplicity = 1

 SCF Done:  E(RB3LYP) =  -423.120232411     A.U. after   14 cycles
 Optimization completed.
    -- Stationary point found.
 Normal termination of Gaussian 09 at Tue Jan 28 02:24:34 2020.

 ----------------------------------------------------------------------
 #N Geom=AllCheck Guess=TCheck SCRF=Check GenChk RB3LYP/6-31G(2df,p) Fr
 eq
 ----------------------------------------------------------------------

 Structure from the checkpoint file:  "/scratch/puck/g09_5e6f99e6-3fc3-48ab-8b3d-c2d4dd28533c/Gau-194499.chk"
 -----
 titel
 -----
 Charge =  0 Multiplicity = 1

                         Standard orientation:
 ---------------------------------------------------------------------
 Center     Atomic      Atomic             Coordinates (Angstroms)
 Number     Number       Type             X           Y           Z
 ---------------------------------------------------------------------
      1          6           0        0.714635    2.198392   -0.304006
      2          6           0        0.439409    0.769689    0.104746
      3          6           0       -0.688755    0.462922    1.135125
      4          6           0       -1.315911   -0.576272    0.168226
      5          8           0       -2.610715   -0.160323   -0.222402
      6          6           0       -0.192044   -0.279428   -0.879171
      7          6           0        1.101743   -1.115073   -0.759599
      8          8           0        1.280017   -1.451192    0.626659
      9          6           0        1.690770   -0.152952    0.187314
     10          1           0        1.174748    2.762602    0.516828
     11          1           0        1.397748    2.243753   -1.160626
     12          1           0       -0.210663    2.711056   -0.585563
     13          1           0       -0.365266    0.072796    2.101054
     14          1           0       -1.365279    1.308106    1.283960
     15          1           0       -1.316949   -1.605937    0.543154
     16          1           0       -2.945666   -0.795557   -0.863773
     17          1           0       -0.503807    0.006077   -1.884697
     18          1           0        1.560221   -1.782197   -1.481348
     19          1           0        2.721414    0.127764    0.381147
 ---------------------------------------------------------------------

 SCF Done:  E(RB3LYP) =  -423.120232411     A.U. after    1 cycles

 The electronic state is 1-A.
 Alpha  occ. eigenvalues --  -19.15253 -19.13357 -10.23713 -10.23416 -10.22622
 Alpha  occ. eigenvalues --  -10.19444 -10.18286 -10.17898 -10.17150  -1.07757
 Alpha  occ. eigenvalues --   -1.01521  -0.84560  -0.72937  -0.71318  -0.65116
 Alpha  occ. eigenvalues --   -0.59910  -0.59142  -0.52970  -0.51128  -0.49454
 Alpha  occ. eigenvalues --   -0.47576  -0.43679  -0.42451  -0.40729  -0.39952
 Alpha  occ. eigenvalues --   -0.37864  -0.37115  -0.35291  -0.32860  -0.32128
 Alpha  occ. eigenvalues --   -0.30142  -0.27108  -0.25608  -0.24089
 Alpha virt. eigenvalues --    0.07026   0.07977   0.09768   0.10257   0.11853
 Alpha virt. eigenvalues --    0.14362   0.14714   0.15410   0.15781   0.16323
 Alpha virt. eigenvalues --    0.16994   0.18709   0.19165   0.20637   0.21132

 Mulliken charges:
               1
     1  C   -0.496724
     2  C    0.329107
     3  C   -0.299360
     4  C    0.144757
     5  O   -0.442237
     6  C   -0.169078
     7  C    0.006572
     8  O   -0.240120
     9  C   -0.033757
    10  H    0.118585
    11  H    0.114511
    12  H    0.126403
    13  H    0.107048
    14  H    0.109499
    15  H    0.077136
    16  H    0.278523
    17  H    0.069646
    18  H    0.102382
    19  H    0.097107
 Sum of Mulliken charges =   0.00000

 Dipole moment (field-independent basis, Debye):
    X=              0.6003    Y=              0.2086    Z=             -1.7756  Tot=              1.8859
 Quadrupole moment (field-independent basis, Debye-Ang):
   XX=            -53.3124   YY=            -53.2670   ZZ=            -51.4587
   XY=              4.7523   XZ=              1.2582   YZ=              3.7589

  Exact polarizability:  79.251   1.171  75.442   1.223   4.009  67.998
 Approx polarizability: 109.620   0.805 109.921   4.986   4.852 107.286

                      1                      2                      3
                      A                      A                      A
 Frequencies --     95.1539               225.0250               233.4553
 Red. masses --      3.3167                 1.1703                 2.3275
 Frc consts  --      0.0177                 0.0349                 0.0747
 IR Inten    --      1.3135                 0.4341                 1.4005

                      4                      5                      6
                      A                      A                      A
 Frequencies --    260.5676               289.9127               301.6593
 Red. masses --      3.9778                 1.2851                 2.2322
 Frc consts  --      0.1591                 0.0636                 0.1197
 IR Inten    --      3.7757                73.8558                 9.5779

                      7                      8                      9
                      A                      A                      A
 Frequencies --    350.3339               360.7833               488.1690
 Red. masses --      2.7937                 3.4233                 2.1850
 Frc consts  --      0.2020                 0.2625                 0.3068
 IR Inten    --      3.2580                27.0214                 8.2387

                     10                     11                     12
                      A                      A                      A
 Frequencies --    537.9314               625.6760               709.1919
 Red. masses --      4.5866                 4.3675                 3.9586
 Frc consts  --      0.7820                 1.0073                 1.1731
 IR Inten    --      9.3366                 5.2993                 1.9808

                     13                     14                     15
                      A                      A                      A
 Frequencies --    803.5452               811.2299               844.9473
 Red. masses --      4.4529                 2.7035                 1.6406
 Frc consts  --      1.6940                 1.0482                 0.6901
 IR Inten    --      2.7296                 2.0723                20.9131

                     16                     17                     18
                      A                      A                      A
 Frequencies --    867.1290               894.7888               905.3878
 Red. masses --      2.2496                 2.4684                 2.0670
 Frc consts  --      0.9966                 1.1644                 0.9983
 IR Inten    --      1.5281                 5.6907                 2.4962

                     19                     20                     21
                      A                      A                      A
 Frequencies --    938.8124               972.1385               996.4955
 Red. masses --      2.1067                 1.9502                 2.1536
 Frc consts  --      1.0940                 1.0859                 1.2600
 IR Inten    --      3.8671                 2.5977                 4.1539

                     22                     23                     24
                      A                      A                      A
 Frequencies --   1000.6619              1022.0196              1051.7531
 Red. masses --      2.4891                 2.1511                 1.3703
 Frc consts  --      1.4685                 1.3238                 0.8931
 IR Inten    --     17.2177                60.7702                 5.2116

                     25                     26                     27
                      A                      A                      A
 Frequencies --   1109.0589              1132.9819              1167.6419
 Red. masses --      1.7777                 1.7409                 2.0095
 Frc consts  --      1.2883                 1.3167                 1.6142
 IR Inten    --     15.5070                 3.7269                10.9220

                     28                     29                     30
                      A                      A                      A
 Frequencies --   1199.4876              1211.1548              1224.5111
 Red. masses --      1.3441                 1.8110                 1.8031
 Frc consts  --      1.1394                 1.5652                 1.5930
 IR Inten    --      5.9429                 1.0716                17.1144

                     31                     32                     33
                      A                      A                      A
 Frequencies --   1233.7097              1258.7725              1267.3214
 Red. masses --      1.4400                 1.6210                 1.5298
 Frc consts  --      1.2914                 1.5133                 1.4477
 IR Inten    --     20.5537                 7.1142                15.7099

                     34                     35                     36
                      A                      A                      A
 Frequencies --   1309.5560              1323.8601              1375.7439
 Red. masses --      1.5661                 2.2883                 3.3999
 Frc consts  --      1.5824                 2.3629                 3.7914
 IR Inten    --     50.8343                15.0422                 6.3845

                     37                     38                     39
                      A                      A                      A
 Frequencies --   1408.4605              1413.0516              1457.4418
 Red. masses --      1.3069                 1.3851                 1.1587
 Frc consts  --      1.5275                 1.6295                 1.4501
 IR Inten    --      6.6413                 2.4207                 5.9934

                     40                     41                     42
                      A                      A                      A
 Frequencies --   1491.6831              1493.2404              3017.6250
 Red. masses --      1.0498                 1.0500                 1.0362
 Frc consts  --      1.3763                 1.3795                 5.5592
 IR Inten    --      3.8989                 2.8629                32.6883

                     43                     44                     45
                      A                      A                      A
 Frequencies --   3035.4581              3070.9068              3077.5647
 Red. masses --      1.0859                 1.0589                 1.1001
 Frc consts  --      5.8949                 5.8837                 6.1391
 IR Inten    --     40.5767                18.8100                24.5342

                     46                     47                     48
                      A                      A                      A
 Frequencies --   3097.7844              3109.3383              3135.2991
 Red. masses --      1.1001                 1.0884                 1.1078
 Frc consts  --      6.2200                 6.2000                 6.4161
 IR Inten    --     18.5633                19.4528                13.6395

                     49                     50                     51
                      A                      A                      A
 Frequencies --   3160.0404              3178.6224              3809.2018
 Red. masses --      1.0879                 1.1002                 1.0660
 Frc consts  --      6.4004                 6.5495                 9.1131
 IR Inten    --     21.3849                30.5213                18.9103

 - Thermochemistry -
 -------------------
 Temperature   298.150 Kelvin.  Pressure   1.00000 Atm.
 Atom     1 has atomic number  6 and mass  12.00000

 Molecular mass:   126.06808 amu.
 Principal axes and moments of inertia in atomic units:
                           1         2         3
     Eigenvalues --   733.696821077.339331412.83498
           X            0.99800   0.06247  -0.00946
           Y           -0.06232   0.99794   0.01529
           Z            0.01040  -0.01467   0.99984
 This molecule is an asymmetric top.
 Rotational symmetry number  1.
 Warning -- assumption of classical behavior for rotation
           may cause significant error
 Rotational temperatures (Kelvin)      0.11805     0.08040     0.06130
 Rotational constants (GHZ):           2.45979     1.67518     1.27739
 Zero-point vibrational energy     414842.7 (Joules/Mol)
                                   99.14979 (Kcal/Mol)
 Warning -- explicit consideration of  10 degrees of freedom as
           vibrations may cause significant error
 Vibrational temperatures:    136.91   323.76   335.89   374.90   417.12
          (Kelvin)            434.02   504.05   519.09   702.37   773.96
                              900.21  1020.37  1156.12  1167.18  1215.69
                             1247.60  1287.40  1302.65  1350.74  1398.69
                             1433.73  1439.73  1470.46  1513.24  1595.69
                             1630.11  1679.97  1725.79  1742.58  1761.80
                             1775.03  1811.09  1823.39  1884.16  1904.74
                             1979.39  2026.46  2033.06  2096.93  2146.20
                             2148.44  4341.68  4367.34  4418.34  4427.92
                             4457.02  4473.64  4510.99  4546.59  4573.32
                             5480.58

 Zero-point correction=                           0.158005 (Hartree/Particle)
 Thermal correction to Energy=                    0.166160
 Thermal correction to Enthalpy=                  0.167105
 Thermal correction to Gibbs Free Energy=         0.125706
 Sum of electronic and zero-point Energies=           -422.962227
 Sum of electronic and thermal Energies=              -422.954072
 Sum of electronic and thermal Enthalpies=            -422.953128
 Sum of electronic and thermal Free Energies=         -422.994526

                     E (Thermal)             CV                S
                      KCal/Mol        Cal/Mol-Kelvin    Cal/Mol-Kelvin
 Total                  104.267             32.375             87.130
 Electronic               0.000              0.000              0.000
 Translational            0.889              2.981             40.409
 Rotational               0.889              2.981             28.503
 Vibrational            102.490             26.413             18.218
 Vibration     1          0.603              1.953              3.551
 Vibration     2          0.650              1.803              1.918
 Vibration     3          0.654              1.790              1.852
 Vibration     4          0.669              1.745              1.658
 Vibration     5          0.686              1.692              1.474
 Vibration     6          0.694              1.671              1.408
 Vibration     7          0.727              1.575              1.165
 Vibration     8          0.735              1.553              1.119
 Vibration     9          0.844              1.276              0.688
 Vibration    10          0.893              1.166              0.570

 Optimization completed.
    -- Stationary point found.
 Normal termination of Gaussian 09 at Tue Jan 28 03:10:01 2020.
