 Gaussian 09, Revision D.01,
 Gaussian 09:  ES64L-G09RevD.01 24-Apr-2013

 -----------------------------
 # b3lyp 6-31G(2df,p) opt Freq
 -----------------------------

 -----
 titel
 -----
 Symbolic Z-matrix:
 Charge =  0 Multiplicity = 1

 SCF Done:  E(RB3LYP) =  -423.208626847     A.U. after   14 cycles
 Optimization completed.
    -- Stationary point found.
 Normal termination of Gaussian 09 at Mon Jan 27 22:03:36 2020.

 ----------------------------------------------------------------------
 #N Geom=AllCheck Guess=TCheck SCRF=Check GenChk RB3LYP/6-31G(2df,p) Fr
 eq
 ----------------------------------------------------------------------

 Structure from the checkpoint file:  "/scratch/puck/g09_f121e85d-b069-4653-b6d9-76f85bb77759/Gau-192809.chk"
 -----
 titel
 -----
 Charge =  0 Multiplicity = 1

                         Standard orientation:
 ---------------------------------------------------------------------
 Center     Atomic      Atomic             Coordinates (Angstroms)
 Number     Number       Type             X           Y           Z
 ---------------------------------------------------------------------
      1          6           0       -2.824407   -0.537459   -0.528609
      2          6           0       -1.436070   -0.261149   -0.011334
      3          6           0       -0.605547   -1.248827    0.335344
      4          6           0        0.820919   -1.120701    0.834031
      5          6           0        1.652902   -0.286375   -0.133208
      6          8           0        2.571069   -0.721056   -0.782480
      7          6           0        1.241531    1.187610   -0.241553
      8          8           0        0.164509    1.540762    0.593190
      9          6           0       -1.107567    1.212097    0.075588
     10          1           0       -2.963716   -0.125119   -1.536481
     11          1           0       -3.029652   -1.609475   -0.570643
     12          1           0       -3.587226   -0.069622    0.107156
     13          1           0       -0.960374   -2.269479    0.216898
     14          1           0        0.846183   -0.639543    1.818785
     15          1           0        1.288175   -2.103489    0.914034
     16          1           0        2.102369    1.790988    0.067486
     17          1           0        1.041009    1.421767   -1.298598
     18          1           0       -1.831537    1.705484    0.737052
     19          1           0       -1.240426    1.669664   -0.922925
 ---------------------------------------------------------------------

 SCF Done:  E(RB3LYP) =  -423.208626847     A.U. after    1 cycles

 The electronic state is 1-A.
 Alpha  occ. eigenvalues --  -19.15489 -19.12993 -10.26877 -10.24213 -10.23878
 Alpha  occ. eigenvalues --  -10.19815 -10.19255 -10.19104 -10.19010  -1.05324
 Alpha  occ. eigenvalues --   -1.03847  -0.82186  -0.77659  -0.72562  -0.66817
 Alpha  occ. eigenvalues --   -0.66140  -0.55468  -0.53717  -0.50132  -0.48517
 Alpha  occ. eigenvalues --   -0.46815  -0.44648  -0.43550  -0.42788  -0.41832
 Alpha  occ. eigenvalues --   -0.40417  -0.39422  -0.37910  -0.36219  -0.34358
 Alpha  occ. eigenvalues --   -0.32392  -0.28688  -0.25755  -0.22941
 Alpha virt. eigenvalues --   -0.01399   0.01468   0.08046   0.09645   0.11022
 Alpha virt. eigenvalues --    0.13324   0.14381   0.15481   0.16321   0.16742
 Alpha virt. eigenvalues --    0.16972   0.17711   0.20238   0.22264   0.23166

 Mulliken charges:
               1
     1  C   -0.470562
     2  C    0.295524
     3  C   -0.174652
     4  C   -0.345753
     5  C    0.357837
     6  O   -0.297690
     7  C   -0.183951
     8  O   -0.231530
     9  C   -0.164280
    10  H    0.127170
    11  H    0.128823
    12  H    0.126381
    13  H    0.093306
    14  H    0.136541
    15  H    0.120038
    16  H    0.140521
    17  H    0.121938
    18  H    0.121878
    19  H    0.098460
 Sum of Mulliken charges =   0.00000

 Dipole moment (field-independent basis, Debye):
    X=             -2.5889    Y=              0.5226    Z=              0.3720  Tot=              2.6672
 Quadrupole moment (field-independent basis, Debye-Ang):
   XX=            -56.6033   YY=            -52.8002   ZZ=            -54.2318
   XY=              2.8264   XZ=              4.1096   YZ=             -3.0928

  Exact polarizability:  96.447  -5.873  78.921   2.221  -4.128  60.864
 Approx polarizability: 132.770 -16.941 117.625   0.643  -4.381  97.831

                      1                      2                      3
                      A                      A                      A
 Frequencies --     72.4571                95.4757               169.7752
 Red. masses --      4.4311                 2.3865                 1.0904
 Frc consts  --      0.0137                 0.0128                 0.0185
 IR Inten    --      3.9940                 0.4725                 0.4450

                      4                      5                      6
                      A                      A                      A
 Frequencies --    264.4097               296.9603               318.2491
 Red. masses --      2.3067                 5.2654                 2.5950
 Frc consts  --      0.0950                 0.2736                 0.1549
 IR Inten    --      2.3335                 8.7046                 0.3047

                      7                      8                      9
                      A                      A                      A
 Frequencies --    353.9913               412.9116               438.5054
 Red. masses --      2.8452                 3.8830                 1.9492
 Frc consts  --      0.2101                 0.3901                 0.2208
 IR Inten    --      0.4816                 3.7502                 2.3739

                     10                     11                     12
                      A                      A                      A
 Frequencies --    469.4007               494.1745               569.6800
 Red. masses --      3.5628                 3.1545                 4.2435
 Frc consts  --      0.4625                 0.4539                 0.8114
 IR Inten    --     15.9977                 0.6249                 4.3980

                     13                     14                     15
                      A                      A                      A
 Frequencies --    654.3487               752.9504               818.9381
 Red. masses --      3.0071                 3.1056                 1.9697
 Frc consts  --      0.7586                 1.0374                 0.7783
 IR Inten    --      4.6422                 6.8619                 6.2280

                     16                     17                     18
                      A                      A                      A
 Frequencies --    863.2183               924.2479               945.1631
 Red. masses --      1.9171                 2.0415                 2.2882
 Frc consts  --      0.8417                 1.0275                 1.2043
 IR Inten    --     11.8299                 2.4953                 5.8806

                     19                     20                     21
                      A                      A                      A
 Frequencies --    995.6578              1006.2457              1038.2949
 Red. masses --      1.9109                 1.9688                 2.0785
 Frc consts  --      1.1161                 1.1745                 1.3202
 IR Inten    --      1.7060                12.9050                 8.5229

                     22                     23                     24
                      A                      A                      A
 Frequencies --   1082.9476              1093.5023              1125.5350
 Red. masses --      2.7432                 1.8049                 2.2235
 Frc consts  --      1.8955                 1.2716                 1.6596
 IR Inten    --     11.5448                 2.5982                11.4443

                     25                     26                     27
                      A                      A                      A
 Frequencies --   1147.8048              1213.0788              1240.7621
 Red. masses --      3.1339                 2.0567                 1.6162
 Frc consts  --      2.4326                 1.7832                 1.4660
 IR Inten    --     47.3226                28.3465                32.4527

                     28                     29                     30
                      A                      A                      A
 Frequencies --   1274.1434              1303.1500              1320.8965
 Red. masses --      1.5010                 1.4788                 1.1675
 Frc consts  --      1.4357                 1.4796                 1.2001
 IR Inten    --     63.4443                 5.3161                 2.0806

                     31                     32                     33
                      A                      A                      A
 Frequencies --   1354.2087              1371.8347              1409.9299
 Red. masses --      1.2883                 1.3280                 1.4303
 Frc consts  --      1.3920                 1.4725                 1.6752
 IR Inten    --      3.4734                 7.5036                 1.5321

                     34                     35                     36
                      A                      A                      A
 Frequencies --   1419.4070              1451.9159              1463.8927
 Red. masses --      1.2809                 1.0794                 1.0970
 Frc consts  --      1.5204                 1.3406                 1.3850
 IR Inten    --      5.2846                 5.9438                 5.2213

                     37                     38                     39
                      A                      A                      A
 Frequencies --   1478.5002              1478.8952              1492.8916
 Red. masses --      1.0914                 1.0437                 1.0677
 Frc consts  --      1.4057                 1.3450                 1.4020
 IR Inten    --      3.0258                 6.9722                 9.7826

                     40                     41                     42
                      A                      A                      A
 Frequencies --   1733.4889              1826.8855              2930.5739
 Red. masses --      7.1573                11.7346                 1.0717
 Frc consts  --     12.6718                23.0749                 5.4228
 IR Inten    --      2.0056               202.7828                56.6507

                     43                     44                     45
                      A                      A                      A
 Frequencies --   2994.5633              3016.0330              3038.9630
 Red. masses --      1.0660                 1.0396                 1.0862
 Frc consts  --      5.6320                 5.5714                 5.9103
 IR Inten    --     26.5144                31.7197                27.0539

                     46                     47                     48
                      A                      A                      A
 Frequencies --   3041.3458              3061.1284              3074.8894
 Red. masses --      1.0643                 1.0985                 1.0950
 Frc consts  --      5.8000                 6.0649                 6.0998
 IR Inten    --     10.3184                23.2139                11.0491

                     49                     50                     51
                      A                      A                      A
 Frequencies --   3119.5900              3120.7414              3156.2492
 Red. masses --      1.0977                 1.0979                 1.0894
 Frc consts  --      6.2940                 6.2999                 6.3938
 IR Inten    --     20.3416                 3.3944                18.5304

 - Thermochemistry -
 -------------------
 Temperature   298.150 Kelvin.  Pressure   1.00000 Atm.
 Atom     1 has atomic number  6 and mass  12.00000

 Molecular mass:   126.06808 amu.
 Principal axes and moments of inertia in atomic units:
                           1         2         3
     Eigenvalues --   652.972241388.743711761.96818
           X            0.99950   0.02298   0.02180
           Y           -0.02206   0.99889  -0.04155
           Z           -0.02273   0.04105   0.99890
 This molecule is an asymmetric top.
 Rotational symmetry number  1.
 Warning -- assumption of classical behavior for rotation
           may cause significant error
 Rotational temperatures (Kelvin)      0.13265     0.06237     0.04916
 Rotational constants (GHZ):           2.76389     1.29955     1.02428
 Zero-point vibrational energy     417453.7 (Joules/Mol)
                                   99.77382 (Kcal/Mol)
 Warning -- explicit consideration of  12 degrees of freedom as
           vibrations may cause significant error
 Vibrational temperatures:    104.25   137.37   244.27   380.43   427.26
          (Kelvin)            457.89   509.31   594.09   630.91   675.36
                              711.01   819.64   941.46  1083.33  1178.27
                             1241.98  1329.78  1359.88  1432.53  1447.76
                             1493.87  1558.12  1573.30  1619.39  1651.43
                             1745.35  1785.18  1833.21  1874.94  1900.47
                             1948.40  1973.76  2028.57  2042.21  2088.98
                             2106.21  2127.23  2127.80  2147.94  2494.10
                             2628.48  4216.44  4308.50  4339.39  4372.38
                             4375.81  4404.28  4424.07  4488.39  4490.05
                             4541.13

 Zero-point correction=                           0.159000 (Hartree/Particle)
 Thermal correction to Energy=                    0.167625
 Thermal correction to Enthalpy=                  0.168570
 Thermal correction to Gibbs Free Energy=         0.125543
 Sum of electronic and zero-point Energies=           -423.049627
 Sum of electronic and thermal Energies=              -423.041001
 Sum of electronic and thermal Enthalpies=            -423.040057
 Sum of electronic and thermal Free Energies=         -423.083084

                     E (Thermal)             CV                S
                      KCal/Mol        Cal/Mol-Kelvin    Cal/Mol-Kelvin
 Total                  105.187             32.524             90.557
 Electronic               0.000              0.000              0.000
 Translational            0.889              2.981             40.409
 Rotational               0.889              2.981             28.859
 Vibrational            103.409             26.563             21.289
 Vibration     1          0.599              1.967              4.085
 Vibration     2          0.603              1.952              3.545
 Vibration     3          0.625              1.880              2.438
 Vibration     4          0.671              1.738              1.632
 Vibration     5          0.691              1.679              1.434
 Vibration     6          0.705              1.639              1.319
 Vibration     7          0.730              1.567              1.148
 Vibration     8          0.777              1.442              0.916
 Vibration     9          0.799              1.386              0.831
 Vibration    10          0.827              1.318              0.739
 Vibration    11          0.850              1.263              0.673
 Vibration    12          0.926              1.097              0.505

 Normal termination of Gaussian 09 at Mon Jan 27 22:49:17 2020.
