 Gaussian 09, Revision D.01,
 Gaussian 09:  ES64L-G09RevD.01 24-Apr-2013

 -----------------------------
 # b3lyp 6-31G(2df,p) opt Freq
 -----------------------------

 -----
 titel
 -----
 Symbolic Z-matrix:
 Charge =  0 Multiplicity = 1

 SCF Done:  E(RB3LYP) =  -423.193216927     A.U. after   14 cycles
 Optimization completed.
    -- Stationary point found.
 Normal termination of Gaussian 09 at Mon Jan 27 13:20:11 2020.

 ----------------------------------------------------------------------
 #N Geom=AllCheck Guess=TCheck SCRF=Check GenChk RB3LYP/6-31G(2df,p) Fr
 eq
 ----------------------------------------------------------------------

 Structure from the checkpoint file:  "/scratch/puck/g09_a8d64c8f-5d4c-4e2c-af31-f3a63fb5efd2/Gau-168465.chk"
 -----
 titel
 -----
 Charge =  0 Multiplicity = 1

                         Standard orientation:
 ---------------------------------------------------------------------
 Center     Atomic      Atomic             Coordinates (Angstroms)
 Number     Number       Type             X           Y           Z
 ---------------------------------------------------------------------
      1          8           0       -3.254644   -0.041128   -0.660221
      2          6           0       -2.364631   -0.014379    0.148829
      3          6           0       -0.888805   -0.005664   -0.164163
      4          6           0       -0.149835   -1.204687    0.488276
      5          6           0        1.314309   -0.758297    0.617550
      6          6           0        2.115480   -0.669926   -0.696762
      7          8           0        1.944658    0.762290   -0.762378
      8          6           0        1.295049    0.792593    0.529767
      9          6           0       -0.165596    1.224242    0.437851
     10          1           0       -2.585849    0.005628    1.245084
     11          1           0       -0.771222   -0.019460   -1.250432
     12          1           0       -0.565630   -1.391315    1.487008
     13          1           0       -0.267324   -2.126929   -0.088259
     14          1           0        1.833616   -1.222163    1.456516
     15          1           0        3.173580   -0.947684   -0.610855
     16          1           0        1.683782   -1.178604   -1.568148
     17          1           0        1.879135    1.367680    1.256537
     18          1           0       -0.545299    1.431420    1.447849
     19          1           0       -0.290731    2.128843   -0.162592
 ---------------------------------------------------------------------

 SCF Done:  E(RB3LYP) =  -423.193216927     A.U. after    1 cycles

 The electronic state is 1-A.
 Alpha  occ. eigenvalues --  -19.13949 -19.13659 -10.27041 -10.24030 -10.23511
 Alpha  occ. eigenvalues --  -10.20185 -10.20145 -10.20061 -10.19633  -1.04674
 Alpha  occ. eigenvalues --   -1.04318  -0.84307  -0.75381  -0.72292  -0.66869
 Alpha  occ. eigenvalues --   -0.61787  -0.57493  -0.54260  -0.51737  -0.49324
 Alpha  occ. eigenvalues --   -0.46608  -0.45246  -0.43593  -0.43133  -0.40954
 Alpha  occ. eigenvalues --   -0.40629  -0.38022  -0.36912  -0.34663  -0.34294
 Alpha  occ. eigenvalues --   -0.31929  -0.30363  -0.25586  -0.25002
 Alpha virt. eigenvalues --   -0.02266   0.07598   0.08258   0.09659   0.10898
 Alpha virt. eigenvalues --    0.12545   0.13762   0.14277   0.15346   0.16188
 Alpha virt. eigenvalues --    0.17315   0.17908   0.18880   0.19950   0.20874

 Mulliken charges:
               1
     1  O   -0.248295
     2  C    0.150731
     3  C   -0.063590
     4  C   -0.252348
     5  C   -0.072249
     6  C   -0.078813
     7  O   -0.295450
     8  C    0.128116
     9  C   -0.248501
    10  H    0.064568
    11  H    0.107045
    12  H    0.103932
    13  H    0.115782
    14  H    0.080744
    15  H    0.102803
    16  H    0.103232
    17  H    0.075486
    18  H    0.100325
    19  H    0.126481
 Sum of Mulliken charges =   0.00000

 Dipole moment (field-independent basis, Debye):
    X=              1.9787    Y=             -1.0801    Z=              2.4038  Tot=              3.2955
 Quadrupole moment (field-independent basis, Debye-Ang):
   XX=            -64.8322   YY=            -51.7051   ZZ=            -53.1465
   XY=             -3.2639   XZ=             -2.1102   YZ=              1.9040

  Exact polarizability:  89.303  -2.383  68.232   0.946   2.845  69.825
 Approx polarizability: 118.474  -1.329 101.013   6.041   2.733 112.079

                      1                      2                      3
                      A                      A                      A
 Frequencies --     71.0797                95.9214               136.1805
 Red. masses --      4.5346                 4.1332                 2.9551
 Frc consts  --      0.0135                 0.0224                 0.0323
 IR Inten    --      4.4588                 1.9716                 3.9662

                      4                      5                      6
                      A                      A                      A
 Frequencies --    283.1675               310.2982               368.4382
 Red. masses --      2.2099                 4.2939                 2.0908
 Frc consts  --      0.1044                 0.2436                 0.1672
 IR Inten    --      0.6181                 5.2134                 0.9642

                      7                      8                      9
                      A                      A                      A
 Frequencies --    370.7106               461.3722               612.1322
 Red. masses --      1.8887                 3.9876                 3.5373
 Frc consts  --      0.1529                 0.5001                 0.7809
 IR Inten    --      4.3775                 3.2726                 4.0224

                     10                     11                     12
                      A                      A                      A
 Frequencies --    654.9261               798.7670               850.9084
 Red. masses --      3.4265                 2.4560                 1.9817
 Frc consts  --      0.8659                 0.9232                 0.8454
 IR Inten    --      9.5993                 2.4967                 4.9407

                     13                     14                     15
                      A                      A                      A
 Frequencies --    852.7147               872.2772               894.6260
 Red. masses --      2.1780                 2.4012                 3.1109
 Frc consts  --      0.9331                 1.0764                 1.4670
 IR Inten    --      0.7487                 5.5897                 2.2595

                     16                     17                     18
                      A                      A                      A
 Frequencies --    916.1940               942.6020               988.3998
 Red. masses --      2.4165                 2.2131                 1.8130
 Frc consts  --      1.1951                 1.1585                 1.0436
 IR Inten    --     12.9172                 0.6701                 8.6013

                     19                     20                     21
                      A                      A                      A
 Frequencies --   1024.5344              1027.9756              1060.8105
 Red. masses --      1.8921                 4.0242                 2.4766
 Frc consts  --      1.1702                 2.5055                 1.6421
 IR Inten    --      7.1508                75.9192                45.5290

                     22                     23                     24
                      A                      A                      A
 Frequencies --   1076.0164              1103.5147              1130.3907
 Red. masses --      1.9223                 2.4901                 1.9421
 Frc consts  --      1.3113                 1.7866                 1.4621
 IR Inten    --      8.3297                 3.3868                 6.7132

                     25                     26                     27
                      A                      A                      A
 Frequencies --   1153.7401              1165.5495              1200.3133
 Red. masses --      1.3659                 1.1817                 1.8923
 Frc consts  --      1.0712                 0.9459                 1.6063
 IR Inten    --      4.7269                 2.5383                 9.8437

                     28                     29                     30
                      A                      A                      A
 Frequencies --   1241.0899              1265.9762              1290.9926
 Red. masses --      1.3368                 1.4472                 1.5041
 Frc consts  --      1.2132                 1.3666                 1.4770
 IR Inten    --      3.4742                 0.6083                 1.5834

                     31                     32                     33
                      A                      A                      A
 Frequencies --   1296.1421              1323.3739              1326.0340
 Red. masses --      1.4029                 1.3972                 1.5197
 Frc consts  --      1.3886                 1.4417                 1.5744
 IR Inten    --      2.0353                 3.9675                 0.7548

                     34                     35                     36
                      A                      A                      A
 Frequencies --   1342.0809              1364.2300              1375.7395
 Red. masses --      1.3187                 1.3509                 1.5133
 Frc consts  --      1.3995                 1.4813                 1.6875
 IR Inten    --      2.0722                10.1659                 0.9178

                     37                     38                     39
                      A                      A                      A
 Frequencies --   1427.3713              1467.3552              1488.8464
 Red. masses --      1.1938                 1.0943                 1.0927
 Frc consts  --      1.4331                 1.3883                 1.4271
 IR Inten    --      3.5613                 4.8210                 4.3908

                     40                     41                     42
                      A                      A                      A
 Frequencies --   1524.4771              1836.2653              2823.2688
 Red. masses --      1.1011                10.5197                 1.0805
 Frc consts  --      1.5077                20.8990                 5.0745
 IR Inten    --      0.3194               225.7841               102.6717

                     43                     44                     45
                      A                      A                      A
 Frequencies --   3009.1632              3021.0111              3026.3914
 Red. masses --      1.0550                 1.0671                 1.0664
 Frc consts  --      5.6286                 5.7380                 5.7549
 IR Inten    --     77.6751                10.4150                26.6705

                     46                     47                     48
                      A                      A                      A
 Frequencies --   3048.8368              3051.4000              3083.0317
 Red. masses --      1.0867                 1.1109                 1.0899
 Frc consts  --      5.9515                 6.0941                 6.1036
 IR Inten    --     57.8497                35.2616                 3.8033

                     49                     50                     51
                      A                      A                      A
 Frequencies --   3094.6719              3107.2340              3108.2892
 Red. masses --      1.0920                 1.0900                 1.0946
 Frc consts  --      6.1618                 6.2004                 6.2310
 IR Inten    --     20.5063                49.9385                 5.3744

 - Thermochemistry -
 -------------------
 Temperature   298.150 Kelvin.  Pressure   1.00000 Atm.
 Atom     1 has atomic number  8 and mass  15.99491

 Molecular mass:   126.06808 amu.
 Principal axes and moments of inertia in atomic units:
                           1         2         3
     Eigenvalues --   475.213081711.792771832.51766
           X            0.99987  -0.01297  -0.00933
           Y            0.01356   0.99775   0.06559
           Z            0.00846  -0.06571   0.99780
 This molecule is an asymmetric top.
 Rotational symmetry number  1.
 Warning -- assumption of classical behavior for rotation
           may cause significant error
 Rotational temperatures (Kelvin)      0.18226     0.05060     0.04726
 Rotational constants (GHZ):           3.79775     1.05430     0.98484
 Zero-point vibrational energy     420887.1 (Joules/Mol)
                                  100.59444 (Kcal/Mol)
 Warning -- explicit consideration of   9 degrees of freedom as
           vibrations may cause significant error
 Vibrational temperatures:    102.27   138.01   195.93   407.41   446.45
          (Kelvin)            530.10   533.37   663.81   880.72   942.29
                             1149.25  1224.27  1226.86  1255.01  1287.17
                             1318.20  1356.19  1422.09  1474.07  1479.03
                             1526.27  1548.15  1587.71  1626.38  1659.97
                             1676.96  1726.98  1785.65  1821.46  1857.45
                             1864.86  1904.04  1907.86  1930.95  1962.82
                             1979.38  2053.67  2111.19  2142.12  2193.38
                             2641.97  4062.05  4329.51  4346.56  4354.30
                             4386.59  4390.28  4435.79  4452.54  4470.61
                             4472.13

 Zero-point correction=                           0.160307 (Hartree/Particle)
 Thermal correction to Energy=                    0.168215
 Thermal correction to Enthalpy=                  0.169159
 Thermal correction to Gibbs Free Energy=         0.127178
 Sum of electronic and zero-point Energies=           -423.032909
 Sum of electronic and thermal Energies=              -423.025002
 Sum of electronic and thermal Enthalpies=            -423.024058
 Sum of electronic and thermal Free Energies=         -423.066039

                     E (Thermal)             CV                S
                      KCal/Mol        Cal/Mol-Kelvin    Cal/Mol-Kelvin
 Total                  105.556             29.789             88.357
 Electronic               0.000              0.000              0.000
 Translational            0.889              2.981             40.409
 Rotational               0.889              2.981             28.790
 Vibrational            103.779             23.827             19.158
 Vibration     1          0.598              1.968              4.123
 Vibration     2          0.603              1.952              3.536
 Vibration     3          0.614              1.917              2.857
 Vibration     4          0.682              1.705              1.514
 Vibration     5          0.699              1.654              1.361
 Vibration     6          0.741              1.537              1.086
 Vibration     7          0.743              1.532              1.077
 Vibration     8          0.819              1.336              0.762
 Vibration     9          0.971              1.006              0.429

 Optimization completed.
    -- Stationary point found.
 Normal termination of Gaussian 09 at Mon Jan 27 14:06:02 2020.
