 Gaussian 09, Revision D.01,
 Gaussian 09:  ES64L-G09RevD.01 24-Apr-2013

 -----------------------------
 # b3lyp 6-31G(2df,p) opt Freq
 -----------------------------

 -----
 titel
 -----
 Symbolic Z-matrix:
 Charge =  0 Multiplicity = 1

 SCF Done:  E(RB3LYP) =  -423.099044926     A.U. after   14 cycles
 Optimization completed.
    -- Stationary point found.
 Normal termination of Gaussian 09 at Mon Jan 27 16:08:12 2020.

 ----------------------------------------------------------------------
 #N Geom=AllCheck Guess=TCheck SCRF=Check GenChk RB3LYP/6-31G(2df,p) Fr
 eq
 ----------------------------------------------------------------------

 Structure from the checkpoint file:  "/scratch/puck/g09_d6ad71d6-6c13-455b-9f0c-9c5c24685cee/Gau-10617.chk"
 -----
 titel
 -----
 Charge =  0 Multiplicity = 1

                         Standard orientation:
 ---------------------------------------------------------------------
 Center     Atomic      Atomic             Coordinates (Angstroms)
 Number     Number       Type             X           Y           Z
 ---------------------------------------------------------------------
      1          6           0        2.454138   -0.530329   -0.004082
      2          6           0        1.109999    0.180836   -0.004396
      3          8           0        1.273446    1.588548   -0.087513
      4          6           0        0.012077   -0.318666    0.968558
      5          6           0       -0.396550   -1.469084    0.001682
      6          8           0       -1.812409   -1.140771    0.001215
      7          6           0       -1.132969    0.160605    0.004528
      8          6           0       -1.954441    1.407084    0.005461
      9          6           0        0.012061   -0.314416   -0.961095
     10          1           0        3.043090   -0.249856    0.878623
     11          1           0        2.337028   -1.617972    0.012673
     12          1           0        3.030726   -0.256374   -0.893097
     13          1           0        1.881702    1.861614    0.607504
     14          1           0       -0.012997   -0.336694    2.059292
     15          1           0       -0.103332   -2.517419   -0.002127
     16          1           0       -2.591888    1.444149    0.894583
     17          1           0       -1.293121    2.276192    0.000002
     18          1           0       -2.597090    1.440726   -0.879890
     19          1           0       -0.008301   -0.322771   -2.051113
 ---------------------------------------------------------------------

 SCF Done:  E(RB3LYP) =  -423.099044926     A.U. after    1 cycles

 The electronic state is 1-A.
 Alpha  occ. eigenvalues --  -19.14037 -19.12001 -10.24789 -10.24447 -10.24424
 Alpha  occ. eigenvalues --  -10.19324 -10.19246 -10.18265 -10.17595  -1.05675
 Alpha  occ. eigenvalues --   -1.02238  -0.85819  -0.74407  -0.72498  -0.64636
 Alpha  occ. eigenvalues --   -0.62140  -0.59469  -0.51291  -0.50387  -0.47200
 Alpha  occ. eigenvalues --   -0.46179  -0.45558  -0.42753  -0.41230  -0.39968
 Alpha  occ. eigenvalues --   -0.38890  -0.37630  -0.35984  -0.32635  -0.31342
 Alpha  occ. eigenvalues --   -0.29913  -0.29327  -0.26604  -0.22407
 Alpha virt. eigenvalues --    0.06794   0.09346   0.10884   0.11408   0.12822
 Alpha virt. eigenvalues --    0.13674   0.13908   0.14585   0.15464   0.16637
 Alpha virt. eigenvalues --    0.18004   0.18081   0.18818   0.19642   0.22244

 Mulliken charges:
               1
     1  C   -0.463982
     2  C    0.395918
     3  O   -0.477811
     4  C   -0.214999
     5  C    0.069107
     6  O   -0.366059
     7  C    0.477255
     8  C   -0.528354
     9  C   -0.178244
    10  H    0.108312
    11  H    0.122386
    12  H    0.128665
    13  H    0.276971
    14  H    0.073332
    15  H    0.093504
    16  H    0.127953
    17  H    0.146635
    18  H    0.130485
    19  H    0.078923
 Sum of Mulliken charges =   0.00000

 Dipole moment (field-independent basis, Debye):
    X=              2.3118    Y=              0.4398    Z=              0.9329  Tot=              2.5315
 Quadrupole moment (field-independent basis, Debye-Ang):
   XX=            -54.1905   YY=            -53.1168   ZZ=            -51.2363
   XY=             -3.3375   XZ=              2.1214   YZ=              2.2959

  Exact polarizability:  83.261  -2.887  74.950   1.071   0.850  67.015
 Approx polarizability: 112.586   1.164 112.241   1.831   0.633 106.025

                      1                      2                      3
                      A                      A                      A
 Frequencies --    172.8812               187.7605               204.7728
 Red. masses --      3.4711                 2.8520                 1.0195
 Frc consts  --      0.0611                 0.0592                 0.0252
 IR Inten    --      1.8178                 1.0025                 0.8193

                      4                      5                      6
                      A                      A                      A
 Frequencies --    228.7396               282.1436               303.3333
 Red. masses --      1.0484                 1.0640                 3.0007
 Frc consts  --      0.0323                 0.0499                 0.1627
 IR Inten    --      0.0406                89.3624                 1.1019

                      7                      8                      9
                      A                      A                      A
 Frequencies --    330.3535               375.8780               384.2684
 Red. masses --      2.6515                 3.4541                 4.1826
 Frc consts  --      0.1705                 0.2875                 0.3639
 IR Inten    --      1.8195                 3.2156                11.9187

                     10                     11                     12
                      A                      A                      A
 Frequencies --    543.3913               579.4568               620.3607
 Red. masses --      4.5387                 3.0400                 4.1042
 Frc consts  --      0.7896                 0.6014                 0.9306
 IR Inten    --      8.8940                 2.1743                 2.8750

                     13                     14                     15
                      A                      A                      A
 Frequencies --    675.0420               756.4799               776.4085
 Red. masses --      3.3806                 3.8740                 3.2531
 Frc consts  --      0.9076                 1.3062                 1.1554
 IR Inten    --      5.3160                 0.5408                12.5645

                     16                     17                     18
                      A                      A                      A
 Frequencies --    811.0213               831.3934               888.3720
 Red. masses --      2.1964                 2.0315                 2.8538
 Frc consts  --      0.8512                 0.8273                 1.3270
 IR Inten    --      5.1317                 1.0598                27.3281

                     19                     20                     21
                      A                      A                      A
 Frequencies --    897.5781               950.5167               960.3784
 Red. masses --      1.6531                 2.5294                 2.1626
 Frc consts  --      0.7847                 1.3465                 1.1752
 IR Inten    --      1.9482                31.6441                16.7354

                     22                     23                     24
                      A                      A                      A
 Frequencies --    999.1835              1061.6969              1087.5238
 Red. masses --      1.4024                 2.6056                 2.0528
 Frc consts  --      0.8249                 1.7304                 1.4305
 IR Inten    --      1.7055                16.6881                14.3622

                     25                     26                     27
                      A                      A                      A
 Frequencies --   1094.5847              1116.3705              1126.9553
 Red. masses --      1.6002                 1.5198                 1.7038
 Frc consts  --      1.1296                 1.1159                 1.2749
 IR Inten    --     11.4630                 3.9294                11.2499

                     28                     29                     30
                      A                      A                      A
 Frequencies --   1150.0797              1171.6468              1189.1346
 Red. masses --      1.6448                 2.1098                 2.3082
 Frc consts  --      1.2818                 1.7064                 1.9230
 IR Inten    --      1.2144                22.5065                10.7030

                     31                     32                     33
                      A                      A                      A
 Frequencies --   1201.3671              1263.5234              1281.1814
 Red. masses --      3.5336                 2.1360                 1.8751
 Frc consts  --      3.0049                 2.0091                 1.8134
 IR Inten    --     78.1480                78.3470                15.7961

                     34                     35                     36
                      A                      A                      A
 Frequencies --   1361.8125              1389.6590              1413.3363
 Red. masses --      1.9172                 1.7545                 1.3334
 Frc consts  --      2.0948                 1.9963                 1.5693
 IR Inten    --      2.0831                 7.1696                12.2428

                     37                     38                     39
                      A                      A                      A
 Frequencies --   1418.1923              1482.6886              1487.0672
 Red. masses --      2.3832                 1.0458                 1.0547
 Frc consts  --      2.8241                 1.3545                 1.3742
 IR Inten    --     32.4796                 2.1457                 6.0573

                     40                     41                     42
                      A                      A                      A
 Frequencies --   1488.1364              1496.8528              3022.7007
 Red. masses --      1.0505                 1.0783                 1.0398
 Frc consts  --      1.3707                 1.4234                 5.5977
 IR Inten    --      2.1684                 5.9897                25.4997

                     43                     44                     45
                      A                      A                      A
 Frequencies --   3041.4305              3087.6676              3105.7371
 Red. masses --      1.0356                 1.0954                 1.0902
 Frc consts  --      5.6439                 6.1527                 6.1957
 IR Inten    --     20.4167                19.9338                45.8301

                     46                     47                     48
                      A                      A                      A
 Frequencies --   3107.9866              3113.5593              3117.4317
 Red. masses --      1.1014                 1.1011                 1.0904
 Frc consts  --      6.2682                 6.2891                 6.2435
 IR Inten    --     12.5629                12.2103                38.7011

                     49                     50                     51
                      A                      A                      A
 Frequencies --   3135.7350              3138.9638              3806.0453
 Red. masses --      1.0968                 1.1001                 1.0660
 Frc consts  --      6.3538                 6.3864                 9.0979
 IR Inten    --     36.2449                 5.7761                16.9467

 - Thermochemistry -
 -------------------
 Temperature   298.150 Kelvin.  Pressure   1.00000 Atm.
 Atom     1 has atomic number  6 and mass  12.00000

 Molecular mass:   126.06808 amu.
 Principal axes and moments of inertia in atomic units:
                           1         2         3
     Eigenvalues --   617.926381096.486171468.00236
           X            0.99606  -0.08857   0.00416
           Y            0.08853   0.99602   0.01016
           Z           -0.00504  -0.00976   0.99994
 This molecule is an asymmetric top.
 Rotational symmetry number  1.
 Warning -- assumption of classical behavior for rotation
           may cause significant error
 Rotational temperatures (Kelvin)      0.14017     0.07899     0.05900
 Rotational constants (GHZ):           2.92064     1.64593     1.22939
 Zero-point vibrational energy     411029.6 (Joules/Mol)
                                   98.23843 (Kcal/Mol)
 Warning -- explicit consideration of  12 degrees of freedom as
           vibrations may cause significant error
 Vibrational temperatures:    248.74   270.15   294.62   329.10   405.94
          (Kelvin)            436.43   475.30   540.80   552.88   781.82
                              833.71   892.56   971.23  1088.40  1117.08
                             1166.88  1196.19  1278.17  1291.41  1367.58
                             1381.77  1437.60  1527.54  1564.70  1574.86
                             1606.21  1621.44  1654.71  1685.74  1710.90
                             1728.50  1817.93  1843.33  1959.34  1999.41
                             2033.47  2040.46  2133.26  2139.56  2141.09
                             2153.63  4348.99  4375.93  4442.46  4468.46
                             4471.69  4479.71  4485.28  4511.62  4516.26
                             5476.04

 Zero-point correction=                           0.156553 (Hartree/Particle)
 Thermal correction to Energy=                    0.165013
 Thermal correction to Enthalpy=                  0.165957
 Thermal correction to Gibbs Free Energy=         0.124324
 Sum of electronic and zero-point Energies=           -422.942492
 Sum of electronic and thermal Energies=              -422.934032
 Sum of electronic and thermal Enthalpies=            -422.933088
 Sum of electronic and thermal Free Energies=         -422.974721

                     E (Thermal)             CV                S
                      KCal/Mol        Cal/Mol-Kelvin    Cal/Mol-Kelvin
 Total                  103.547             33.701             87.624
 Electronic               0.000              0.000              0.000
 Translational            0.889              2.981             40.409
 Rotational               0.889              2.981             28.388
 Vibrational            101.770             27.739             18.827
 Vibration     1          0.626              1.876              2.404
 Vibration     2          0.632              1.857              2.250
 Vibration     3          0.640              1.833              2.090
 Vibration     4          0.651              1.797              1.889
 Vibration     5          0.681              1.707              1.521
 Vibration     6          0.695              1.667              1.398
 Vibration     7          0.713              1.615              1.258
 Vibration     8          0.747              1.522              1.056
 Vibration     9          0.753              1.504              1.022
 Vibration    10          0.899              1.154              0.558
 Vibration    11          0.936              1.076              0.486
 Vibration    12          0.980              0.989              0.416

 Optimization completed.
    -- Stationary point found.
 Normal termination of Gaussian 09 at Mon Jan 27 18:03:58 2020.
