 Gaussian 09, Revision D.01,
 Gaussian 09:  ES64L-G09RevD.01 24-Apr-2013

 -----------------------------
 # b3lyp 6-31G(2df,p) opt Freq
 -----------------------------

 -----
 titel
 -----
 Symbolic Z-matrix:
 Charge =  0 Multiplicity = 1

 SCF Done:  E(RB3LYP) =  -423.122662032     A.U. after   13 cycles
 Optimization completed.
    -- Stationary point found.
 Normal termination of Gaussian 09 at Tue Jan 28 04:05:13 2020.

 ----------------------------------------------------------------------
 #N Geom=AllCheck Guess=TCheck SCRF=Check GenChk RB3LYP/6-31G(2df,p) Fr
 eq
 ----------------------------------------------------------------------

 Structure from the checkpoint file:  "/scratch/puck/g09_d00ce413-bf4a-475e-998a-5aad7f5434f6/Gau-4035.chk"
 -----
 titel
 -----
 Charge =  0 Multiplicity = 1

                         Standard orientation:
 ---------------------------------------------------------------------
 Center     Atomic      Atomic             Coordinates (Angstroms)
 Number     Number       Type             X           Y           Z
 ---------------------------------------------------------------------
      1          6           0       -1.655220    1.648733    0.222968
      2          6           0       -1.194461    0.427648   -0.547554
      3          8           0       -2.051554   -0.724969   -0.332584
      4          6           0       -0.974286   -1.496570    0.232383
      5          6           0        0.022089   -0.350508    0.004727
      6          8           0        0.700360    0.161993    1.178923
      7          6           0        1.972070   -0.105699    0.574629
      8          6           0        2.155731    0.720309   -0.655714
      9          6           0        1.343223   -0.561719   -0.718036
     10          1           0       -2.671478    1.915063   -0.083384
     11          1           0       -1.648256    1.457904    1.298705
     12          1           0       -0.998820    2.501456    0.021617
     13          1           0       -1.112928    0.649563   -1.620848
     14          1           0       -1.134533   -1.738019    1.290018
     15          1           0       -0.781096   -2.418788   -0.330546
     16          1           0        2.755921   -0.513239    1.200980
     17          1           0        1.674120    1.691382   -0.727217
     18          1           0        3.131999    0.653594   -1.126336
     19          1           0        1.579747   -1.388274   -1.374113
 ---------------------------------------------------------------------

 SCF Done:  E(RB3LYP) =  -423.122662032     A.U. after    1 cycles

 The electronic state is 1-A.
 Alpha  occ. eigenvalues --  -19.14551 -19.12877 -10.24652 -10.24595 -10.23014
 Alpha  occ. eigenvalues --  -10.22597 -10.20233 -10.19804 -10.17279  -1.06387
 Alpha  occ. eigenvalues --   -1.02938  -0.83933  -0.75341  -0.72868  -0.64729
 Alpha  occ. eigenvalues --   -0.61681  -0.59259  -0.52934  -0.52517  -0.49597
 Alpha  occ. eigenvalues --   -0.47314  -0.45224  -0.44367  -0.41583  -0.39858
 Alpha  occ. eigenvalues --   -0.38424  -0.37815  -0.36250  -0.34607  -0.33582
 Alpha  occ. eigenvalues --   -0.30125  -0.27177  -0.24798  -0.24200
 Alpha virt. eigenvalues --    0.07313   0.08731   0.09357   0.10347   0.11324
 Alpha virt. eigenvalues --    0.12126   0.14440   0.15048   0.16079   0.16308
 Alpha virt. eigenvalues --    0.17696   0.18366   0.19473   0.20757   0.21613

 Mulliken charges:
               1
     1  C   -0.396367
     2  C    0.087956
     3  O   -0.298123
     4  C   -0.136078
     5  C    0.364402
     6  O   -0.320076
     7  C    0.100735
     8  C   -0.305186
     9  C   -0.211986
    10  H    0.123372
    11  H    0.133131
    12  H    0.117116
    13  H    0.075202
    14  H    0.112023
    15  H    0.099656
    16  H    0.109648
    17  H    0.120545
    18  H    0.118470
    19  H    0.105559
 Sum of Mulliken charges =   0.00000

 Dipole moment (field-independent basis, Debye):
    X=              2.2229    Y=             -0.1667    Z=             -0.9238  Tot=              2.4130
 Quadrupole moment (field-independent basis, Debye-Ang):
   XX=            -53.8270   YY=            -50.7626   ZZ=            -54.3329
   XY=             -3.0007   XZ=             -1.7318   YZ=             -1.4531

  Exact polarizability:  82.804   0.477  75.363  -1.394  -2.446  65.525
 Approx polarizability: 110.346   3.385 106.708   0.672  -2.024 104.481

                      1                      2                      3
                      A                      A                      A
 Frequencies --     57.1329               135.6635               187.9451
 Red. masses --      3.3155                 3.1645                 3.1413
 Frc consts  --      0.0064                 0.0343                 0.0654
 IR Inten    --      2.9968                 0.1310                 1.9070

                      4                      5                      6
                      A                      A                      A
 Frequencies --    215.8186               265.1458               346.5694
 Red. masses --      1.0661                 2.3214                 3.0419
 Frc consts  --      0.0293                 0.0962                 0.2153
 IR Inten    --      0.1265                 1.2881                 0.2098

                      7                      8                      9
                      A                      A                      A
 Frequencies --    446.1011               452.2886               505.3177
 Red. masses --      4.0918                 2.8451                 2.9762
 Frc consts  --      0.4798                 0.3429                 0.4478
 IR Inten    --      0.5452                 6.7456                 2.3581

                     10                     11                     12
                      A                      A                      A
 Frequencies --    538.5412               759.2333               788.6797
 Red. masses --      3.6514                 1.7757                 2.2165
 Frc consts  --      0.6240                 0.6031                 0.8123
 IR Inten    --      5.1597                 5.6077                 3.4368

                     13                     14                     15
                      A                      A                      A
 Frequencies --    808.9432               861.8430               877.2327
 Red. masses --      1.8334                 3.1280                 2.7981
 Frc consts  --      0.7069                 1.3689                 1.2687
 IR Inten    --      9.9656                25.9390                15.2736

                     16                     17                     18
                      A                      A                      A
 Frequencies --    909.6905               959.0152               968.6607
 Red. masses --      2.2510                 1.6621                 1.9978
 Frc consts  --      1.0975                 0.9007                 1.1044
 IR Inten    --      5.1553                 3.2458                30.6806

                     19                     20                     21
                      A                      A                      A
 Frequencies --    996.1988              1005.6174              1019.3480
 Red. masses --      1.7353                 2.3298                 5.6074
 Frc consts  --      1.0147                 1.3882                 3.4329
 IR Inten    --     22.3037                20.8773                58.1112

                     22                     23                     24
                      A                      A                      A
 Frequencies --   1046.0596              1053.1942              1079.3937
 Red. masses --      1.4164                 1.7401                 2.1832
 Frc consts  --      0.9132                 1.1372                 1.4987
 IR Inten    --     21.5690                19.1700                28.1537

                     25                     26                     27
                      A                      A                      A
 Frequencies --   1087.3046              1106.8668              1137.3159
 Red. masses --      1.8952                 2.0657                 2.2177
 Frc consts  --      1.3201                 1.4911                 1.6901
 IR Inten    --     42.6928                 2.6091                 2.7484

                     28                     29                     30
                      A                      A                      A
 Frequencies --   1152.3201              1165.3352              1181.8070
 Red. masses --      1.5818                 1.9936                 1.6697
 Frc consts  --      1.2375                 1.5951                 1.3740
 IR Inten    --      3.7844                32.5637                 2.6480

                     31                     32                     33
                      A                      A                      A
 Frequencies --   1237.9661              1275.1099              1307.1275
 Red. masses --      2.4041                 1.4847                 1.5927
 Frc consts  --      2.1708                 1.4223                 1.6033
 IR Inten    --      8.9033                 8.8807                11.9196

                     34                     35                     36
                      A                      A                      A
 Frequencies --   1349.2202              1364.7924              1386.7547
 Red. masses --      1.8558                 1.5043                 2.1383
 Frc consts  --      1.9904                 1.6509                 2.4228
 IR Inten    --      5.3331                 4.1422                 7.9683

                     37                     38                     39
                      A                      A                      A
 Frequencies --   1404.9478              1474.0592              1483.3177
 Red. masses --      1.2823                 1.2600                 1.0658
 Frc consts  --      1.4913                 1.6131                 1.3817
 IR Inten    --      9.3296                 5.1223                 4.5292

                     40                     41                     42
                      A                      A                      A
 Frequencies --   1487.7116              1510.5064              3003.4672
 Red. masses --      1.0514                 1.1040                 1.0777
 Frc consts  --      1.3711                 1.4841                 5.7277
 IR Inten    --      5.7337                 0.6927                61.0106

                     43                     44                     45
                      A                      A                      A
 Frequencies --   3013.3976              3041.9725              3062.3859
 Red. masses --      1.0625                 1.0355                 1.1096
 Frc consts  --      5.6845                 5.6455                 6.1312
 IR Inten    --     40.7542                11.6093                28.7044

                     46                     47                     48
                      A                      A                      A
 Frequencies --   3111.2600              3117.4271              3130.4529
 Red. masses --      1.1004                 1.0545                 1.1017
 Frc consts  --      6.2759                 6.0381                 6.3613
 IR Inten    --     18.1783                13.0432                16.7575

                     49                     50                     51
                      A                      A                      A
 Frequencies --   3189.7912              3203.2045              3212.8111
 Red. masses --      1.0912                 1.1067                 1.1071
 Frc consts  --      6.5418                 6.6902                 6.7332
 IR Inten    --     18.9599                 0.9448                16.9041

 - Thermochemistry -
 -------------------
 Temperature   298.150 Kelvin.  Pressure   1.00000 Atm.
 Atom     1 has atomic number  6 and mass  12.00000

 Molecular mass:   126.06808 amu.
 Principal axes and moments of inertia in atomic units:
                           1         2         3
     Eigenvalues --   586.692061261.290281452.91516
           X            0.99936  -0.02995  -0.01970
           Y            0.02947   0.99928  -0.02401
           Z            0.02041   0.02341   0.99952
 This molecule is an asymmetric top.
 Rotational symmetry number  1.
 Warning -- assumption of classical behavior for rotation
           may cause significant error
 Rotational temperatures (Kelvin)      0.14763     0.06867     0.05961
 Rotational constants (GHZ):           3.07613     1.43087     1.24215
 Zero-point vibrational energy     415596.2 (Joules/Mol)
                                   99.32989 (Kcal/Mol)
 Warning -- explicit consideration of  10 degrees of freedom as
           vibrations may cause significant error
 Vibrational temperatures:     82.20   195.19   270.41   310.51   381.49
          (Kelvin)            498.64   641.84   650.74   727.04   774.84
                             1092.37  1134.73  1163.89  1240.00  1262.14
                             1308.84  1379.81  1393.68  1433.31  1446.86
                             1466.61  1505.04  1515.31  1553.00  1564.39
                             1592.53  1636.34  1657.93  1676.66  1700.35
                             1781.15  1834.60  1880.66  1941.22  1963.63
                             1995.23  2021.40  2120.84  2134.16  2140.48
                             2173.28  4321.31  4335.60  4376.71  4406.08
                             4476.40  4485.28  4504.02  4589.39  4608.69
                             4622.51

 Zero-point correction=                           0.158292 (Hartree/Particle)
 Thermal correction to Energy=                    0.166429
 Thermal correction to Enthalpy=                  0.167374
 Thermal correction to Gibbs Free Energy=         0.125316
 Sum of electronic and zero-point Energies=           -422.964370
 Sum of electronic and thermal Energies=              -422.956233
 Sum of electronic and thermal Enthalpies=            -422.955289
 Sum of electronic and thermal Free Energies=         -422.997346

                     E (Thermal)             CV                S
                      KCal/Mol        Cal/Mol-Kelvin    Cal/Mol-Kelvin
 Total                  104.436             31.228             88.517
 Electronic               0.000              0.000              0.000
 Translational            0.889              2.981             40.409
 Rotational               0.889              2.981             28.466
 Vibrational            102.659             25.266             19.643
 Vibration     1          0.596              1.975              4.554
 Vibration     2          0.613              1.918              2.864
 Vibration     3          0.633              1.856              2.248
 Vibration     4          0.645              1.817              1.994
 Vibration     5          0.671              1.737              1.628
 Vibration     6          0.725              1.582              1.182
 Vibration     7          0.805              1.369              0.808
 Vibration     8          0.811              1.356              0.789
 Vibration     9          0.861              1.238              0.645
 Vibration    10          0.894              1.165              0.568

 Optimization completed.
    -- Stationary point found.
 Normal termination of Gaussian 09 at Tue Jan 28 04:46:27 2020.
