 Gaussian 09, Revision D.01,
 Gaussian 09:  ES64L-G09RevD.01 24-Apr-2013

 -----------------------------
 # b3lyp 6-31G(2df,p) opt Freq
 -----------------------------

 -----
 titel
 -----
 Symbolic Z-matrix:
 Charge =  0 Multiplicity = 1

 SCF Done:  E(RB3LYP) =  -423.130574858     A.U. after   13 cycles
 Optimization completed.
    -- Stationary point found.
 Normal termination of Gaussian 09 at Tue Jan 28 09:59:25 2020.

 ----------------------------------------------------------------------
 #N Geom=AllCheck Guess=TCheck SCRF=Check GenChk RB3LYP/6-31G(2df,p) Fr
 eq
 ----------------------------------------------------------------------

 Structure from the checkpoint file:  "/scratch/puck/g09_d75332bf-54c2-4a90-a4a0-13a53c94f13d/Gau-21626.chk"
 -----
 titel
 -----
 Charge =  0 Multiplicity = 1

                         Standard orientation:
 ---------------------------------------------------------------------
 Center     Atomic      Atomic             Coordinates (Angstroms)
 Number     Number       Type             X           Y           Z
 ---------------------------------------------------------------------
      1          6           0       -2.690408   -0.082891   -0.431638
      2          8           0       -1.689338   -0.642133    0.393463
      3          6           0       -0.435439   -0.068194    0.289996
      4          6           0       -0.128507    1.447158    0.497380
      5          6           0        1.171937    1.114675   -0.252050
      6          6           0        1.800568   -0.213354    0.337545
      7          6           0        0.627971   -0.725308    1.187731
      8          8           0        1.564822   -0.908944   -0.926718
      9          6           0        0.469847    0.002753   -1.055518
     10          1           0       -2.432108   -0.156724   -1.497393
     11          1           0       -3.602830   -0.655865   -0.252579
     12          1           0       -2.882918    0.971552   -0.189986
     13          1           0       -0.755566    2.104717   -0.111690
     14          1           0       -0.088192    1.819792    1.524561
     15          1           0        1.832723    1.854056   -0.697708
     16          1           0        2.823971   -0.293836    0.700607
     17          1           0        0.584538   -1.815603    1.181111
     18          1           0        0.598312   -0.349498    2.213569
     19          1           0        0.022386    0.080987   -2.045122
 ---------------------------------------------------------------------

 SCF Done:  E(RB3LYP) =  -423.130574858     A.U. after    1 cycles

 The electronic state is 1-A.
 Alpha  occ. eigenvalues --  -19.14766 -19.13129 -10.24002 -10.23933 -10.23251
 Alpha  occ. eigenvalues --  -10.22785 -10.19429 -10.18555 -10.17896  -1.05585
 Alpha  occ. eigenvalues --   -1.03702  -0.85201  -0.73530  -0.70725  -0.65485
 Alpha  occ. eigenvalues --   -0.64678  -0.56130  -0.53556  -0.52906  -0.48176
 Alpha  occ. eigenvalues --   -0.46190  -0.45466  -0.44441  -0.42830  -0.39552
 Alpha  occ. eigenvalues --   -0.38328  -0.36932  -0.35358  -0.34526  -0.32530
 Alpha  occ. eigenvalues --   -0.29927  -0.29561  -0.26336  -0.22633
 Alpha virt. eigenvalues --    0.08228   0.09344   0.10624   0.11625   0.12765
 Alpha virt. eigenvalues --    0.14028   0.14436   0.15448   0.15783   0.16444
 Alpha virt. eigenvalues --    0.18034   0.18326   0.19319   0.20265   0.21225

 Mulliken charges:
               1
     1  C   -0.260668
     2  O   -0.298671
     3  C    0.405820
     4  C   -0.327135
     5  C   -0.076834
     6  C    0.066540
     7  C   -0.267266
     8  O   -0.293597
     9  C    0.034903
    10  H    0.110244
    11  H    0.130724
    12  H    0.111951
    13  H    0.101159
    14  H    0.099954
    15  H    0.081742
    16  H    0.082043
    17  H    0.115351
    18  H    0.098805
    19  H    0.084935
 Sum of Mulliken charges =   0.00000

 Dipole moment (field-independent basis, Debye):
    X=             -0.7136    Y=              1.9591    Z=              0.1910  Tot=              2.0938
 Quadrupole moment (field-independent basis, Debye-Ang):
   XX=            -51.0815   YY=            -54.8243   ZZ=            -52.6476
   XY=              0.6854   XZ=              4.9669   YZ=             -1.4817

  Exact polarizability:  83.741  -0.848  68.835   3.062  -1.051  69.456
 Approx polarizability: 113.028  -2.036 105.292   1.904   0.414 107.632

                      1                      2                      3
                      A                      A                      A
 Frequencies --     84.7473               188.1070               222.1208
 Red. masses --      2.3444                 1.2542                 2.6598
 Frc consts  --      0.0099                 0.0261                 0.0773
 IR Inten    --      2.5276                 0.6220                 0.5409

                      4                      5                      6
                      A                      A                      A
 Frequencies --    292.7659               381.9581               445.0850
 Red. masses --      4.2561                 2.3679                 2.5770
 Frc consts  --      0.2149                 0.2035                 0.3008
 IR Inten    --      4.2645                 0.4312                 0.1723

                      7                      8                      9
                      A                      A                      A
 Frequencies --    493.4726               540.9080               621.0818
 Red. masses --      2.0626                 4.4033                 4.3177
 Frc consts  --      0.2959                 0.7591                 0.9813
 IR Inten    --      0.2872                 3.2490                22.5820

                     10                     11                     12
                      A                      A                      A
 Frequencies --    671.4234               718.2402               806.2308
 Red. masses --      4.4022                 3.9722                 2.5777
 Frc consts  --      1.1693                 1.2073                 0.9872
 IR Inten    --      2.2569                 1.3247                 9.1123

                     13                     14                     15
                      A                      A                      A
 Frequencies --    835.4909               850.2054               884.1778
 Red. masses --      4.0116                 1.6780                 4.2910
 Frc consts  --      1.6499                 0.7146                 1.9764
 IR Inten    --      9.5093                 5.4977                 9.1902

                     16                     17                     18
                      A                      A                      A
 Frequencies --    914.2259               933.1514               964.9403
 Red. masses --      2.2123                 1.8142                 2.1304
 Frc consts  --      1.0894                 0.9308                 1.1687
 IR Inten    --     13.9405                 5.4108                11.0352

                     19                     20                     21
                      A                      A                      A
 Frequencies --    988.9491              1024.7092              1028.5588
 Red. masses --      1.9831                 1.4920                 3.0381
 Frc consts  --      1.1427                 0.9230                 1.8937
 IR Inten    --      7.6475                 4.0944                34.0420

                     22                     23                     24
                      A                      A                      A
 Frequencies --   1060.9833              1070.1491              1116.1146
 Red. masses --      2.4106                 1.8286                 1.8703
 Frc consts  --      1.5988                 1.2339                 1.3727
 IR Inten    --     22.0813                13.6207                13.1222

                     25                     26                     27
                      A                      A                      A
 Frequencies --   1131.7205              1168.1237              1180.5411
 Red. masses --      2.0857                 1.8431                 1.2847
 Frc consts  --      1.5739                 1.4818                 1.0549
 IR Inten    --     26.3180                 5.7959                 2.0701

                     28                     29                     30
                      A                      A                      A
 Frequencies --   1190.3537              1208.9271              1216.6828
 Red. masses --      1.5456                 1.4985                 1.7014
 Frc consts  --      1.2904                 1.2903                 1.4839
 IR Inten    --      2.5549                 8.6817                 8.1856

                     31                     32                     33
                      A                      A                      A
 Frequencies --   1231.5959              1243.3497              1272.9186
 Red. masses --      1.5502                 1.6102                 2.1414
 Frc consts  --      1.3854                 1.4666                 2.0443
 IR Inten    --      2.3470                 1.4407                69.6537

                     34                     35                     36
                      A                      A                      A
 Frequencies --   1294.8566              1326.4221              1351.0758
 Red. masses --      1.9712                 1.8105                 2.1426
 Frc consts  --      1.9472                 1.8768                 2.3044
 IR Inten    --     13.5618                55.5453                99.2385

                     37                     38                     39
                      A                      A                      A
 Frequencies --   1477.0042              1485.6584              1491.9076
 Red. masses --      1.1098                 1.1668                 1.0486
 Frc consts  --      1.4264                 1.5174                 1.3751
 IR Inten    --      3.2221                 1.0725                 4.7038

                     40                     41                     42
                      A                      A                      A
 Frequencies --   1503.0010              1508.6376              2993.3405
 Red. masses --      1.1089                 1.0989                 1.0355
 Frc consts  --      1.4759                 1.4736                 5.4665
 IR Inten    --     17.3570                 2.1748                42.2170

                     43                     44                     45
                      A                      A                      A
 Frequencies --   3045.3495              3054.3521              3070.5263
 Red. masses --      1.0969                 1.0625                 1.0596
 Frc consts  --      5.9939                 5.8402                 5.8862
 IR Inten    --     20.3474                53.3569                20.4126

                     46                     47                     48
                      A                      A                      A
 Frequencies --   3108.2152              3120.9230              3132.3795
 Red. masses --      1.1080                 1.0975                 1.0913
 Frc consts  --      6.3069                 6.2981                 6.3090
 IR Inten    --     25.6241                30.6642                37.9542

                     49                     50                     51
                      A                      A                      A
 Frequencies --   3133.5658              3133.8989              3152.6727
 Red. masses --      1.0925                 1.1033                 1.0940
 Frc consts  --      6.3205                 6.3844                 6.4065
 IR Inten    --     42.8537                 5.2030                30.3737

 - Thermochemistry -
 -------------------
 Temperature   298.150 Kelvin.  Pressure   1.00000 Atm.
 Atom     1 has atomic number  6 and mass  12.00000

 Molecular mass:   126.06808 amu.
 Principal axes and moments of inertia in atomic units:
                           1         2         3
     Eigenvalues --   549.195131241.915641287.14234
           X            0.99931   0.00255   0.03695
           Y            0.00282   0.98952  -0.14438
           Z           -0.03693   0.14439   0.98883
 This molecule is an asymmetric top.
 Rotational symmetry number  1.
 Warning -- assumption of classical behavior for rotation
           may cause significant error
 Rotational temperatures (Kelvin)      0.15771     0.06974     0.06729
 Rotational constants (GHZ):           3.28616     1.45319     1.40213
 Zero-point vibrational energy     420880.9 (Joules/Mol)
                                  100.59296 (Kcal/Mol)
 Warning -- explicit consideration of   8 degrees of freedom as
           vibrations may cause significant error
 Vibrational temperatures:    121.93   270.64   319.58   421.22   549.55
          (Kelvin)            640.38   710.00   778.25   893.60   966.03
                             1033.39  1159.98  1202.08  1223.25  1272.13
                             1315.37  1342.60  1388.33  1422.88  1474.33
                             1479.86  1526.52  1539.70  1605.84  1628.29
                             1680.67  1698.53  1712.65  1739.37  1750.53
                             1771.99  1788.90  1831.44  1863.01  1908.42
                             1943.89  2125.08  2137.53  2146.52  2162.48
                             2170.59  4306.74  4381.57  4394.53  4417.80
                             4472.02  4490.31  4506.79  4508.50  4508.98
                             4535.99

 Zero-point correction=                           0.160305 (Hartree/Particle)
 Thermal correction to Energy=                    0.167636
 Thermal correction to Enthalpy=                  0.168580
 Thermal correction to Gibbs Free Energy=         0.128548
 Sum of electronic and zero-point Energies=           -422.970270
 Sum of electronic and thermal Energies=              -422.962939
 Sum of electronic and thermal Enthalpies=            -422.961994
 Sum of electronic and thermal Free Energies=         -423.002026

                     E (Thermal)             CV                S
                      KCal/Mol        Cal/Mol-Kelvin    Cal/Mol-Kelvin
 Total                  105.193             29.526             84.254
 Electronic               0.000              0.000              0.000
 Translational            0.889              2.981             40.409
 Rotational               0.889              2.981             28.264
 Vibrational            103.416             23.565             15.582
 Vibration     1          0.601              1.960              3.778
 Vibration     2          0.633              1.856              2.246
 Vibration     3          0.648              1.807              1.942
 Vibration     4          0.688              1.687              1.458
 Vibration     5          0.751              1.509              1.031
 Vibration     6          0.804              1.372              0.811
 Vibration     7          0.849              1.265              0.675
 Vibration     8          0.896              1.160              0.563

 Optimization completed.
    -- Stationary point found.
 Normal termination of Gaussian 09 at Tue Jan 28 10:46:09 2020.
