 Gaussian 09, Revision D.01,
 Gaussian 09:  ES64L-G09RevD.01 24-Apr-2013

 -----------------------------
 # b3lyp 6-31G(2df,p) opt Freq
 -----------------------------

 -----
 titel
 -----
 Symbolic Z-matrix:
 Charge =  0 Multiplicity = 1

 SCF Done:  E(RB3LYP) =  -423.200360317     A.U. after   14 cycles
 Optimization completed.
    -- Stationary point found.
 Normal termination of Gaussian 09 at Mon Jan 27 18:51:17 2020.

 ----------------------------------------------------------------------
 #N Geom=AllCheck Guess=TCheck SCRF=Check GenChk RB3LYP/6-31G(2df,p) Fr
 eq
 ----------------------------------------------------------------------

 Structure from the checkpoint file:  "/scratch/puck/g09_f97e39e9-0648-4142-96e1-db9ca9028652/Gau-64444.chk"
 -----
 titel
 -----
 Charge =  0 Multiplicity = 1

                         Standard orientation:
 ---------------------------------------------------------------------
 Center     Atomic      Atomic             Coordinates (Angstroms)
 Number     Number       Type             X           Y           Z
 ---------------------------------------------------------------------
      1          6           0        0.270732    1.835009    1.109290
      2          6           0       -0.098119    0.689939    0.177776
      3          6           0       -1.079939    0.978571   -1.006211
      4          6           0       -1.848826   -0.331175   -0.674879
      5          6           0       -1.018351   -0.469737    0.636205
      6          8           0       -0.243600   -1.654412    0.794351
      7          6           0        0.918746   -1.558596   -0.005474
      8          6           0        1.143556   -0.069903   -0.295645
      9          8           0        2.124377    0.408185   -0.802883
     10          1           0        0.769109    1.469427    2.013677
     11          1           0        0.956033    2.522921    0.604173
     12          1           0       -0.620466    2.392129    1.414671
     13          1           0       -1.668094    1.880380   -0.817969
     14          1           0       -0.631967    1.061928   -1.999040
     15          1           0       -2.929277   -0.239985   -0.548806
     16          1           0       -1.652410   -1.149255   -1.372308
     17          1           0       -1.584880   -0.326016    1.558443
     18          1           0        1.771980   -1.987410    0.529735
     19          1           0        0.816962   -2.098950   -0.960691
 ---------------------------------------------------------------------

 SCF Done:  E(RB3LYP) =  -423.200360317     A.U. after    1 cycles

 The electronic state is 1-A.
 Alpha  occ. eigenvalues --  -19.14904 -19.13991 -10.27277 -10.23800 -10.23691
 Alpha  occ. eigenvalues --  -10.20136 -10.19519 -10.18853 -10.18603  -1.05714
 Alpha  occ. eigenvalues --   -1.03995  -0.85287  -0.75160  -0.72475  -0.66660
 Alpha  occ. eigenvalues --   -0.64060  -0.57360  -0.53879  -0.50153  -0.48197
 Alpha  occ. eigenvalues --   -0.45770  -0.44753  -0.43443  -0.42211  -0.41388
 Alpha  occ. eigenvalues --   -0.39771  -0.38180  -0.36910  -0.36074  -0.34919
 Alpha  occ. eigenvalues --   -0.31899  -0.30587  -0.26369  -0.23711
 Alpha virt. eigenvalues --   -0.02713   0.07729   0.08774   0.10033   0.12182
 Alpha virt. eigenvalues --    0.13754   0.13971   0.15424   0.16404   0.16834
 Alpha virt. eigenvalues --    0.17930   0.18470   0.19046   0.21071   0.22390

 Mulliken charges:
               1
     1  C   -0.477518
     2  C    0.185072
     3  C   -0.272877
     4  C   -0.257519
     5  C    0.081681
     6  O   -0.264575
     7  C   -0.193875
     8  C    0.337638
     9  O   -0.316006
    10  H    0.124965
    11  H    0.141495
    12  H    0.115324
    13  H    0.110301
    14  H    0.115600
    15  H    0.108655
    16  H    0.113320
    17  H    0.086272
    18  H    0.139117
    19  H    0.122929
 Sum of Mulliken charges =   0.00000

 Dipole moment (field-independent basis, Debye):
    X=             -1.8882    Y=              0.3172    Z=              0.2819  Tot=              1.9353
 Quadrupole moment (field-independent basis, Debye-Ang):
   XX=            -56.4757   YY=            -54.0001   ZZ=            -53.3394
   XY=             -4.0579   XZ=              2.8356   YZ=              3.1972

  Exact polarizability:  79.938  -2.290  76.228  -0.388   1.550  66.889
 Approx polarizability: 117.015  -0.196 107.252  -6.052  -1.957 100.924

                      1                      2                      3
                      A                      A                      A
 Frequencies --     56.8414               144.8203               196.3719
 Red. masses --      3.0556                 2.4040                 2.4146
 Frc consts  --      0.0058                 0.0297                 0.0549
 IR Inten    --      2.5286                 6.4801                 0.2988

                      4                      5                      6
                      A                      A                      A
 Frequencies --    219.6492               253.3593               275.5669
 Red. masses --      1.1666                 3.3204                 2.3736
 Frc consts  --      0.0332                 0.1256                 0.1062
 IR Inten    --      0.9364                 1.3669                 1.9045

                      7                      8                      9
                      A                      A                      A
 Frequencies --    398.2853               475.0265               536.0206
 Red. masses --      3.2314                 3.4125                 3.1965
 Frc consts  --      0.3020                 0.4537                 0.5411
 IR Inten    --      5.3971                 5.5727                 2.2918

                     10                     11                     12
                      A                      A                      A
 Frequencies --    615.5655               619.2795               663.4817
 Red. masses --      3.7034                 3.2202                 6.9192
 Frc consts  --      0.8268                 0.7276                 1.7946
 IR Inten    --      1.3254                 1.3153                 8.5351

                     13                     14                     15
                      A                      A                      A
 Frequencies --    710.0186               806.3871               814.9208
 Red. masses --      1.7510                 1.6800                 2.2242
 Frc consts  --      0.5201                 0.6437                 0.8703
 IR Inten    --      3.4919                 0.4846                 9.4671

                     16                     17                     18
                      A                      A                      A
 Frequencies --    901.9958               919.9641               944.5652
 Red. masses --      2.3331                 1.9916                 2.6861
 Frc consts  --      1.1184                 0.9931                 1.4120
 IR Inten    --      4.1054                19.6451                 0.9730

                     19                     20                     21
                      A                      A                      A
 Frequencies --    966.7429              1005.9208              1017.3417
 Red. masses --      1.7689                 2.9798                 1.9607
 Frc consts  --      0.9740                 1.7765                 1.1956
 IR Inten    --      2.0942                15.2580                 0.1768

                     22                     23                     24
                      A                      A                      A
 Frequencies --   1074.0704              1090.9800              1129.4963
 Red. masses --      2.8028                 4.6487                 2.0451
 Frc consts  --      1.9050                 3.2600                 1.5372
 IR Inten    --     33.8209                43.1423                33.4792

                     25                     26                     27
                      A                      A                      A
 Frequencies --   1164.5790              1190.2764              1206.8704
 Red. masses --      2.0307                 2.2383                 1.7400
 Frc consts  --      1.6227                 1.8684                 1.4932
 IR Inten    --      4.7692                25.8170                29.7358

                     28                     29                     30
                      A                      A                      A
 Frequencies --   1215.4107              1232.9041              1248.9572
 Red. masses --      1.2310                 1.3987                 1.8506
 Frc consts  --      1.0714                 1.2526                 1.7008
 IR Inten    --      0.4788                 2.4033                18.3931

                     31                     32                     33
                      A                      A                      A
 Frequencies --   1261.5379              1317.7880              1322.1414
 Red. masses --      1.5040                 2.0705                 1.2870
 Frc consts  --      1.4102                 2.1185                 1.3255
 IR Inten    --      1.2944                 6.9998                 3.7665

                     34                     35                     36
                      A                      A                      A
 Frequencies --   1371.5202              1403.5019              1474.3382
 Red. masses --      1.4437                 1.2143                 1.0859
 Frc consts  --      1.6000                 1.4093                 1.3907
 IR Inten    --     10.9577                 2.0754                 0.7741

                     37                     38                     39
                      A                      A                      A
 Frequencies --   1484.2045              1490.7159              1492.1268
 Red. masses --      1.0829                 1.0522                 1.0742
 Frc consts  --      1.4055                 1.3777                 1.4091
 IR Inten    --      9.1849                 5.4211                 3.5652

                     40                     41                     42
                      A                      A                      A
 Frequencies --   1498.6755              1847.3561              2979.1062
 Red. masses --      1.0852                12.6525                 1.0698
 Frc consts  --      1.4361                25.4406                 5.5942
 IR Inten    --      7.2620               170.5030                30.8151

                     43                     44                     45
                      A                      A                      A
 Frequencies --   3030.8370              3061.5750              3070.9409
 Red. masses --      1.0343                 1.0580                 1.0603
 Frc consts  --      5.5981                 5.8427                 5.8916
 IR Inten    --     22.1549                30.3910                21.5158

                     46                     47                     48
                      A                      A                      A
 Frequencies --   3076.6384              3090.3360              3100.0988
 Red. masses --      1.0904                 1.0907                 1.1015
 Frc consts  --      6.0814                 6.1370                 6.2372
 IR Inten    --     18.1197                22.7168                20.5752

                     49                     50                     51
                      A                      A                      A
 Frequencies --   3109.0523              3109.9874              3128.7878
 Red. masses --      1.1069                 1.1025                 1.1070
 Frc consts  --      6.3040                 6.2828                 6.3848
 IR Inten    --      3.3376                11.6874                36.4787

 - Thermochemistry -
 -------------------
 Temperature   298.150 Kelvin.  Pressure   1.00000 Atm.
 Atom     1 has atomic number  6 and mass  12.00000

 Molecular mass:   126.06808 amu.
 Principal axes and moments of inertia in atomic units:
                           1         2         3
     Eigenvalues --   861.43007 951.811011274.46151
           X            0.98390  -0.17314   0.04432
           Y            0.16996   0.98313   0.06758
           Z           -0.05527  -0.05896   0.99673
 This molecule is an asymmetric top.
 Rotational symmetry number  1.
 Warning -- assumption of classical behavior for rotation
           may cause significant error
 Rotational temperatures (Kelvin)      0.10055     0.09100     0.06796
 Rotational constants (GHZ):           2.09505     1.89611     1.41608
 Zero-point vibrational energy     417598.0 (Joules/Mol)
                                   99.80832 (Kcal/Mol)
 Warning -- explicit consideration of  11 degrees of freedom as
           vibrations may cause significant error
 Vibrational temperatures:     81.78   208.36   282.53   316.03   364.53
          (Kelvin)            396.48   573.04   683.46   771.21   885.66
                              891.00   954.60  1021.56  1160.21  1172.49
                             1297.77  1323.62  1359.02  1390.93  1447.29
                             1463.73  1545.35  1569.67  1625.09  1675.57
                             1712.54  1736.42  1748.70  1773.87  1796.97
                             1815.07  1896.00  1902.26  1973.31  2019.32
                             2121.24  2135.44  2144.80  2146.84  2156.26
                             2657.93  4286.26  4360.69  4404.92  4418.39
                             4426.59  4446.30  4460.35  4473.23  4474.57
                             4501.62

 Zero-point correction=                           0.159055 (Hartree/Particle)
 Thermal correction to Energy=                    0.167344
 Thermal correction to Enthalpy=                  0.168288
 Thermal correction to Gibbs Free Energy=         0.126009
 Sum of electronic and zero-point Energies=           -423.041306
 Sum of electronic and thermal Energies=              -423.033017
 Sum of electronic and thermal Enthalpies=            -423.032073
 Sum of electronic and thermal Free Energies=         -423.074351

                     E (Thermal)             CV                S
                      KCal/Mol        Cal/Mol-Kelvin    Cal/Mol-Kelvin
 Total                  105.010             31.572             88.982
 Electronic               0.000              0.000              0.000
 Translational            0.889              2.981             40.409
 Rotational               0.889              2.981             28.437
 Vibrational            103.232             25.611             20.136
 Vibration     1          0.596              1.975              4.564
 Vibration     2          0.616              1.908              2.739
 Vibration     3          0.636              1.845              2.167
 Vibration     4          0.647              1.811              1.962
 Vibration     5          0.665              1.757              1.707
 Vibration     6          0.677              1.719              1.561
 Vibration     7          0.765              1.474              0.969
 Vibration     8          0.832              1.305              0.724
 Vibration     9          0.891              1.170              0.574
 Vibration    10          0.975              0.999              0.424
 Vibration    11          0.979              0.991              0.418

 Optimization completed.
    -- Stationary point found.
 Normal termination of Gaussian 09 at Mon Jan 27 19:35:31 2020.
