 Gaussian 09, Revision D.01,
 Gaussian 09:  ES64L-G09RevD.01 24-Apr-2013

 -----------------------------
 # b3lyp 6-31G(2df,p) opt Freq
 -----------------------------

 -----
 titel
 -----
 Symbolic Z-matrix:
 Charge =  0 Multiplicity = 1

 SCF Done:  E(RB3LYP) =  -423.126531482     A.U. after   12 cycles
 Optimization completed.
    -- Stationary point found.
 Normal termination of Gaussian 09 at Mon Jan 27 18:05:11 2020.

 ----------------------------------------------------------------------
 #N Geom=AllCheck Guess=TCheck SCRF=Check GenChk RB3LYP/6-31G(2df,p) Fr
 eq
 ----------------------------------------------------------------------

 Structure from the checkpoint file:  "/scratch/puck/g09_f996bcb8-b315-4db7-89e5-a06ed3241aa4/Gau-40834.chk"
 -----
 titel
 -----
 Charge =  0 Multiplicity = 1

                         Standard orientation:
 ---------------------------------------------------------------------
 Center     Atomic      Atomic             Coordinates (Angstroms)
 Number     Number       Type             X           Y           Z
 ---------------------------------------------------------------------
      1          6           0       -2.406384    0.100145   -0.657921
      2          6           0       -1.046190   -0.249353   -0.116597
      3          6           0       -0.846000   -0.728340    1.354811
      4          6           0        0.558570   -0.146458    1.253144
      5          6           0        1.056403   -0.407260   -0.206718
      6          8           0        2.393967   -0.349294   -0.538631
      7          6           0       -0.060256   -1.154598   -0.925859
      8          6           0        0.177562    0.765256    0.114926
      9          8           0        0.312499    2.122900    0.000444
     10          1           0       -3.049692   -0.786841   -0.707058
     11          1           0       -2.905806    0.840154   -0.023501
     12          1           0       -2.341803    0.517246   -1.669198
     13          1           0       -1.469990   -0.163439    2.054552
     14          1           0       -0.961601   -1.802026    1.545220
     15          1           0        1.288274    0.052567    2.028273
     16          1           0        2.845715   -1.097927   -0.133644
     17          1           0       -0.074118   -0.917902   -1.994600
     18          1           0       -0.154597   -2.238289   -0.784369
     19          1           0        0.569661    2.331250   -0.904893
 ---------------------------------------------------------------------

 SCF Done:  E(RB3LYP) =  -423.126531482     A.U. after    1 cycles

 The electronic state is 1-A.
 Alpha  occ. eigenvalues --  -19.15388 -19.14970 -10.23243 -10.22803 -10.19469
 Alpha  occ. eigenvalues --  -10.18140 -10.17829 -10.17770 -10.17467  -1.04346
 Alpha  occ. eigenvalues --   -1.02877  -0.91209  -0.74514  -0.71389  -0.67299
 Alpha  occ. eigenvalues --   -0.60204  -0.56510  -0.55944  -0.49303  -0.46896
 Alpha  occ. eigenvalues --   -0.45938  -0.44393  -0.42659  -0.40706  -0.40227
 Alpha  occ. eigenvalues --   -0.39049  -0.36737  -0.35298  -0.34045  -0.32233
 Alpha  occ. eigenvalues --   -0.30097  -0.27531  -0.23179  -0.22792
 Alpha virt. eigenvalues --    0.06140   0.08689   0.10562   0.12458   0.13408
 Alpha virt. eigenvalues --    0.14451   0.14629   0.14953   0.16358   0.16668
 Alpha virt. eigenvalues --    0.18230   0.19437   0.19710   0.21620   0.22870

 Mulliken charges:
               1
     1  C   -0.501176
     2  C    0.243388
     3  C   -0.271052
     4  C   -0.191041
     5  C    0.308089
     6  O   -0.470222
     7  C   -0.335824
     8  C    0.292239
     9  O   -0.453245
    10  H    0.118078
    11  H    0.122791
    12  H    0.111908
    13  H    0.099440
    14  H    0.083335
    15  H    0.087173
    16  H    0.286037
    17  H    0.093291
    18  H    0.082369
    19  H    0.294425
 Sum of Mulliken charges =   0.00000

 Dipole moment (field-independent basis, Debye):
    X=             -0.0567    Y=             -1.2773    Z=             -0.5131  Tot=              1.3777
 Quadrupole moment (field-independent basis, Debye-Ang):
   XX=            -52.0484   YY=            -52.7006   ZZ=            -51.8947
   XY=             -2.5527   XZ=              1.6698   YZ=             -3.6027

  Exact polarizability:  81.306  -0.619  71.992   0.444  -1.402  72.979
 Approx polarizability: 110.753  -1.303 110.766  -1.613  -2.549 109.728

                      1                      2                      3
                      A                      A                      A
 Frequencies --    162.4219               180.2187               186.9306
 Red. masses --      2.2709                 3.4960                 1.1117
 Frc consts  --      0.0353                 0.0669                 0.0229
 IR Inten    --     18.5488                 4.7330                 0.6349

                      4                      5                      6
                      A                      A                      A
 Frequencies --    208.7042               281.3101               292.4634
 Red. masses --      2.9261                 1.6744                 1.1333
 Frc consts  --      0.0751                 0.0781                 0.0571
 IR Inten    --      3.7906                59.8662                88.1800

                      7                      8                      9
                      A                      A                      A
 Frequencies --    330.5716               374.9734               394.0452
 Red. masses --      1.9480                 2.7875                 2.4723
 Frc consts  --      0.1254                 0.2309                 0.2262
 IR Inten    --     16.4205                 1.6935                14.1123

                     10                     11                     12
                      A                      A                      A
 Frequencies --    471.9427               543.9328               571.1174
 Red. masses --      2.2599                 3.1584                 4.1675
 Frc consts  --      0.2966                 0.5506                 0.8009
 IR Inten    --      3.1638                 4.6164                 8.0287

                     13                     14                     15
                      A                      A                      A
 Frequencies --    619.1203               689.5513               725.4959
 Red. masses --      3.9626                 4.0581                 3.8127
 Frc consts  --      0.8949                 1.1369                 1.1824
 IR Inten    --      2.6349                 7.1019                 2.0123

                     16                     17                     18
                      A                      A                      A
 Frequencies --    781.5813               849.3905               895.2978
 Red. masses --      2.9787                 2.7428                 2.5610
 Frc consts  --      1.0721                 1.1659                 1.2095
 IR Inten    --      3.5009                25.4559                 6.7023

                     19                     20                     21
                      A                      A                      A
 Frequencies --    933.3706               954.8215               981.2774
 Red. masses --      1.7390                 1.6449                 1.4368
 Frc consts  --      0.8926                 0.8835                 0.8151
 IR Inten    --      4.0887                 2.1648                 5.5733

                     22                     23                     24
                      A                      A                      A
 Frequencies --   1001.4070              1031.1010              1094.8576
 Red. masses --      2.0000                 1.6846                 1.4981
 Frc consts  --      1.1817                 1.0552                 1.0580
 IR Inten    --     12.8167                 5.4293                 0.8190

                     25                     26                     27
                      A                      A                      A
 Frequencies --   1107.9373              1132.8842              1162.6278
 Red. masses --      1.4272                 2.3760                 2.0464
 Frc consts  --      1.0322                 1.7967                 1.6298
 IR Inten    --      3.9476                 8.8688                 5.2481

                     28                     29                     30
                      A                      A                      A
 Frequencies --   1188.3363              1206.0964              1237.9709
 Red. masses --      1.7378                 2.1321                 2.1173
 Frc consts  --      1.4459                 1.8273                 1.9119
 IR Inten    --     13.4987                30.9193                28.8616

                     31                     32                     33
                      A                      A                      A
 Frequencies --   1243.3993              1284.0718              1292.1823
 Red. masses --      1.8460                 1.8663                 1.3785
 Frc consts  --      1.6815                 1.8130                 1.3562
 IR Inten    --      5.8871               132.6415               117.4193

                     34                     35                     36
                      A                      A                      A
 Frequencies --   1341.1745              1387.5081              1413.9980
 Red. masses --      2.8811                 2.3542                 1.3832
 Frc consts  --      3.0534                 2.6704                 1.6294
 IR Inten    --      9.1510                19.0135                 0.3958

                     37                     38                     39
                      A                      A                      A
 Frequencies --   1483.0615              1488.5031              1491.4768
 Red. masses --      1.3566                 1.0760                 1.0999
 Frc consts  --      1.7580                 1.4047                 1.4416
 IR Inten    --      4.6588                 3.8623                 2.8888

                     40                     41                     42
                      A                      A                      A
 Frequencies --   1498.3833              1530.1339              3020.1090
 Red. masses --      1.2150                 2.2854                 1.0447
 Frc consts  --      1.6072                 3.1526                 5.6142
 IR Inten    --     15.4818                38.8659                32.2939

                     43                     44                     45
                      A                      A                      A
 Frequencies --   3020.8153              3029.7381              3082.2141
 Red. masses --      1.0515                 1.0571                 1.1013
 Frc consts  --      5.6534                 5.7171                 6.1642
 IR Inten    --     38.3491                70.1008                 8.2702

                     46                     47                     48
                      A                      A                      A
 Frequencies --   3083.4551              3087.5443              3093.8826
 Red. masses --      1.1037                 1.1054                 1.1007
 Frc consts  --      6.1827                 6.2086                 6.2076
 IR Inten    --     15.8695                49.9491                29.0421

                     49                     50                     51
                      A                      A                      A
 Frequencies --   3195.7405              3787.6687              3789.1342
 Red. masses --      1.0929                 1.0663                 1.0662
 Frc consts  --      6.5764                 9.0133                 9.0192
 IR Inten    --     13.5510                29.8012                17.5217

 - Thermochemistry -
 -------------------
 Temperature   298.150 Kelvin.  Pressure   1.00000 Atm.
 Atom     1 has atomic number  6 and mass  12.00000

 Molecular mass:   126.06808 amu.
 Principal axes and moments of inertia in atomic units:
                           1         2         3
     Eigenvalues --   733.092181141.865251294.55008
           X            0.99973  -0.00252   0.02304
           Y            0.00343   0.99921  -0.03972
           Z           -0.02293   0.03979   0.99895
 This molecule is an asymmetric top.
 Rotational symmetry number  1.
 Warning -- assumption of classical behavior for rotation
           may cause significant error
 Rotational temperatures (Kelvin)      0.11815     0.07585     0.06691
 Rotational constants (GHZ):           2.46182     1.58052     1.39411
 Zero-point vibrational energy     414123.0 (Joules/Mol)
                                   98.97776 (Kcal/Mol)
 Warning -- explicit consideration of  13 degrees of freedom as
           vibrations may cause significant error
 Vibrational temperatures:    233.69   259.29   268.95   300.28   404.74
          (Kelvin)            420.79   475.62   539.50   566.94   679.02
                              782.60   821.71   890.77   992.11  1043.83
                             1124.52  1222.08  1288.13  1342.91  1373.77
                             1411.84  1440.80  1483.52  1575.25  1594.07
                             1629.97  1672.76  1709.75  1735.30  1781.16
                             1788.97  1847.49  1859.16  1929.65  1996.31
                             2034.43  2133.79  2141.62  2145.90  2155.84
                             2201.52  4345.26  4346.27  4359.11  4434.61
                             4436.40  4442.28  4451.40  4597.95  5449.60
                             5451.71

 Zero-point correction=                           0.157731 (Hartree/Particle)
 Thermal correction to Energy=                    0.166429
 Thermal correction to Enthalpy=                  0.167373
 Thermal correction to Gibbs Free Energy=         0.125212
 Sum of electronic and zero-point Energies=           -422.968800
 Sum of electronic and thermal Energies=              -422.960102
 Sum of electronic and thermal Enthalpies=            -422.959158
 Sum of electronic and thermal Free Energies=         -423.001320

                     E (Thermal)             CV                S
                      KCal/Mol        Cal/Mol-Kelvin    Cal/Mol-Kelvin
 Total                  104.436             34.205             88.737
 Electronic               0.000              0.000              0.000
 Translational            0.889              2.981             40.409
 Rotational               0.889              2.981             28.473
 Vibrational            102.658             28.244             19.855
 Vibration     1          0.623              1.889              2.521
 Vibration     2          0.629              1.867              2.326
 Vibration     3          0.632              1.858              2.258
 Vibration     4          0.642              1.827              2.055
 Vibration     5          0.681              1.708              1.526
 Vibration     6          0.688              1.688              1.460
 Vibration     7          0.713              1.614              1.257
 Vibration     8          0.746              1.523              1.059
 Vibration     9          0.761              1.483              0.985
 Vibration    10          0.829              1.312              0.732
 Vibration    11          0.899              1.153              0.557
 Vibration    12          0.927              1.094              0.502
 Vibration    13          0.979              0.992              0.418

 Normal termination of Gaussian 09 at Mon Jan 27 19:06:20 2020.
