 Gaussian 09, Revision D.01,
 Gaussian 09:  ES64L-G09RevD.01 24-Apr-2013

 -----------------------------
 # b3lyp 6-31G(2df,p) opt Freq
 -----------------------------

 -----
 titel
 -----
 Symbolic Z-matrix:
 Charge =  0 Multiplicity = 1

 SCF Done:  E(RB3LYP) =  -423.152456023     A.U. after   15 cycles
 Optimization completed.
    -- Stationary point found.
 Normal termination of Gaussian 09 at Tue Jan 28 08:21:17 2020.

 ----------------------------------------------------------------------
 #N Geom=AllCheck Guess=TCheck SCRF=Check GenChk RB3LYP/6-31G(2df,p) Fr
 eq
 ----------------------------------------------------------------------

 Structure from the checkpoint file:  "/scratch/puck/g09_4c2ce8ed-fbcf-489c-bf40-258f02066040/Gau-60347.chk"
 -----
 titel
 -----
 Charge =  0 Multiplicity = 1

                         Standard orientation:
 ---------------------------------------------------------------------
 Center     Atomic      Atomic             Coordinates (Angstroms)
 Number     Number       Type             X           Y           Z
 ---------------------------------------------------------------------
      1          6           0       -0.989984    1.982628   -0.752995
      2          8           0       -1.272194    1.184785    0.385152
      3          6           0       -0.646723   -0.097242    0.400110
      4          6           0       -1.026534   -0.713987    1.759088
      5          6           0       -1.325637   -0.968486   -0.682167
      6          8           0       -0.792070   -1.793382   -1.368256
      7          6           0        0.804628   -0.038565    0.229049
      8          6           0        1.999765    0.008631    0.092806
      9          6           0        3.444675    0.054813   -0.073922
     10          1           0       -1.560863    2.905344   -0.630113
     11          1           0        0.078236    2.219617   -0.824099
     12          1           0       -1.301199    1.496149   -1.689232
     13          1           0       -0.653099   -0.067547    2.556035
     14          1           0       -2.115025   -0.782420    1.845438
     15          1           0       -0.588017   -1.708595    1.862900
     16          1           0       -2.419180   -0.758128   -0.734863
     17          1           0        3.865678    0.964664    0.367411
     18          1           0        3.922988   -0.802186    0.412456
     19          1           0        3.723450    0.035128   -1.132908
 ---------------------------------------------------------------------

 SCF Done:  E(RB3LYP) =  -423.152456023     A.U. after    1 cycles

 The electronic state is 1-A.
 Alpha  occ. eigenvalues --  -19.15275 -19.14791 -10.27316 -10.26722 -10.22730
 Alpha  occ. eigenvalues --  -10.20835 -10.18987 -10.18432 -10.17217  -1.05838
 Alpha  occ. eigenvalues --   -1.04074  -0.80582  -0.77354  -0.70403  -0.68209
 Alpha  occ. eigenvalues --   -0.65439  -0.59541  -0.51587  -0.49011  -0.46885
 Alpha  occ. eigenvalues --   -0.46105  -0.44600  -0.43743  -0.43082  -0.42986
 Alpha  occ. eigenvalues --   -0.41089  -0.39264  -0.38688  -0.36883  -0.33674
 Alpha  occ. eigenvalues --   -0.28944  -0.26482  -0.26284  -0.24126
 Alpha virt. eigenvalues --   -0.02991   0.03955   0.05114   0.10321   0.11241
 Alpha virt. eigenvalues --    0.12408   0.13631   0.15498   0.16071   0.16668
 Alpha virt. eigenvalues --    0.17332   0.17727   0.17964   0.19538   0.20538

 Mulliken charges:
               1
     1  C   -0.249739
     2  O   -0.257359
     3  C    0.037510
     4  C   -0.422593
     5  C    0.141887
     6  O   -0.240731
     7  C    0.133642
     8  C    0.029531
     9  C   -0.501452
    10  H    0.131135
    11  H    0.125909
    12  H    0.112858
    13  H    0.142120
    14  H    0.126966
    15  H    0.139438
    16  H    0.089875
    17  H    0.151511
    18  H    0.154840
    19  H    0.154651
 Sum of Mulliken charges =   0.00000

 Dipole moment (field-independent basis, Debye):
    X=              0.8498    Y=              1.3591    Z=              0.7263  Tot=              1.7597
 Quadrupole moment (field-independent basis, Debye-Ang):
   XX=            -44.8181   YY=            -55.3891   ZZ=            -54.3883
   XY=              0.4111   XZ=             -0.0953   YZ=             -5.9513

  Exact polarizability: 104.663  -0.998  71.097  -2.659  -0.687  68.009
 Approx polarizability: 151.361  -4.578 101.226  -9.129   5.441  98.334

                      1                      2                      3
                      A                      A                      A
 Frequencies --     23.4656                61.1296                84.2322
 Red. masses --      1.0186                 4.2150                 4.4226
 Frc consts  --      0.0003                 0.0093                 0.0185
 IR Inten    --      0.0048                 5.5466                 1.9513

                      4                      5                      6
                      A                      A                      A
 Frequencies --     94.7485               142.0847               191.9021
 Red. masses --      3.1034                 2.1078                 1.3455
 Frc consts  --      0.0164                 0.0251                 0.0292
 IR Inten    --      0.0330                 4.9635                 1.0665

                      7                      8                      9
                      A                      A                      A
 Frequencies --    221.6387               251.1717               266.0827
 Red. masses --      1.0948                 2.6062                 3.5050
 Frc consts  --      0.0317                 0.0969                 0.1462
 IR Inten    --      0.9443                 6.0868                 2.2328

                     10                     11                     12
                      A                      A                      A
 Frequencies --    300.1565               324.9938               354.3315
 Red. masses --      2.7963                 2.5468                 4.2877
 Frc consts  --      0.1484                 0.1585                 0.3172
 IR Inten    --      4.6043                 2.2984                12.3387

                     13                     14                     15
                      A                      A                      A
 Frequencies --    438.0933               456.7520               575.9727
 Red. masses --      3.9208                 7.4781                 4.5906
 Frc consts  --      0.4434                 0.9192                 0.8973
 IR Inten    --      0.7554                 0.3960                 3.5939

                     16                     17                     18
                      A                      A                      A
 Frequencies --    595.4387               672.1196               875.4223
 Red. masses --      4.3663                 5.3600                 2.0859
 Frc consts  --      0.9121                 1.4266                 0.9418
 IR Inten    --      3.3817                27.2662                 9.1603

                     19                     20                     21
                      A                      A                      A
 Frequencies --    917.9896               951.6282              1051.6803
 Red. masses --      2.2080                 2.6920                 1.4287
 Frc consts  --      1.0963                 1.4364                 0.9310
 IR Inten    --     22.4431                 0.5810                 2.2580

                     22                     23                     24
                      A                      A                      A
 Frequencies --   1053.7630              1059.9594              1097.1378
 Red. masses --      1.4056                 2.3444                 3.8786
 Frc consts  --      0.9196                 1.5519                 2.7507
 IR Inten    --      1.4215                 2.2304                39.8819

                     25                     26                     27
                      A                      A                      A
 Frequencies --   1137.7343              1149.8578              1184.3454
 Red. masses --      5.1744                 2.0697                 1.3102
 Frc consts  --      3.9463                 1.6123                 1.0828
 IR Inten    --    122.0420                11.0912                 6.3821

                     28                     29                     30
                      A                      A                      A
 Frequencies --   1227.0836              1271.4902              1385.0332
 Red. masses --      1.7108                 3.8088                 1.2269
 Frc consts  --      1.5177                 3.6280                 1.3866
 IR Inten    --      3.4042                27.4781                14.1891

                     31                     32                     33
                      A                      A                      A
 Frequencies --   1397.3466              1413.2564              1474.3113
 Red. masses --      1.2126                 1.2428                 1.1213
 Frc consts  --      1.3950                 1.4625                 1.4360
 IR Inten    --     15.3422                 4.0374                 0.6144

                     34                     35                     36
                      A                      A                      A
 Frequencies --   1475.5621              1477.6213              1478.1462
 Red. masses --      1.0394                 1.0457                 1.0512
 Frc consts  --      1.3334                 1.3452                 1.3532
 IR Inten    --      6.3991                 2.6048                 5.1625

                     37                     38                     39
                      A                      A                      A
 Frequencies --   1487.4878              1489.3932              1510.8513
 Red. masses --      1.0489                 1.0605                 1.0556
 Frc consts  --      1.3674                 1.3860                 1.4197
 IR Inten    --      3.1899                 2.3924                 8.8630

                     40                     41                     42
                      A                      A                      A
 Frequencies --   1848.7263              2368.9950              2870.0790
 Red. masses --     11.1634                11.8960                 1.0837
 Frc consts  --     22.4798                39.3350                 5.2594
 IR Inten    --    127.9758                20.3563               103.0288

                     43                     44                     45
                      A                      A                      A
 Frequencies --   2993.8455              3030.5270              3048.9031
 Red. masses --      1.0416                 1.0347                 1.0338
 Frc consts  --      5.5004                 5.5986                 5.6623
 IR Inten    --     44.2606                25.2898                12.3285

                     46                     47                     48
                      A                      A                      A
 Frequencies --   3062.9442              3093.1966              3093.8829
 Red. masses --      1.0947                 1.1001                 1.1004
 Frc consts  --      6.0508                 6.2018                 6.2058
 IR Inten    --     35.7254                 7.9545                 7.6415

                     49                     50                     51
                      A                      A                      A
 Frequencies --   3126.8729              3128.4356              3145.6215
 Red. masses --      1.1001                 1.1012                 1.1036
 Frc consts  --      6.3371                 6.3502                 6.4341
 IR Inten    --     21.8691                15.5766                 7.9224

 - Thermochemistry -
 -------------------
 Temperature   298.150 Kelvin.  Pressure   1.00000 Atm.
 Atom     1 has atomic number  6 and mass  12.00000

 Molecular mass:   126.06808 amu.
 Principal axes and moments of inertia in atomic units:
                           1         2         3
     Eigenvalues --   943.026181595.302961807.84266
           X            0.99991  -0.00799  -0.01101
           Y            0.00594   0.98447  -0.17547
           Z            0.01224   0.17539   0.98442
 This molecule is an asymmetric top.
 Rotational symmetry number  1.
 Warning -- assumption of classical behavior for rotation
           may cause significant error
 Rotational temperatures (Kelvin)      0.09185     0.05429     0.04791
 Rotational constants (GHZ):           1.91378     1.13128     0.99828
 Zero-point vibrational energy     403341.6 (Joules/Mol)
                                   96.40095 (Kcal/Mol)
 Warning -- explicit consideration of  16 degrees of freedom as
           vibrations may cause significant error
 Vibrational temperatures:     33.76    87.95   121.19   136.32   204.43
          (Kelvin)            276.10   318.89   361.38   382.83   431.86
                              467.59   509.80   630.32   657.16   828.70
                              856.70   967.03  1259.54  1320.78  1369.18
                             1513.13  1516.13  1525.04  1578.53  1636.94
                             1654.39  1704.01  1765.50  1829.39  1992.75
                             2010.47  2033.36  2121.20  2123.00  2125.96
                             2126.72  2140.16  2142.90  2173.78  2659.90
                             3408.45  4129.40  4307.47  4360.25  4386.69
                             4406.89  4450.41  4451.40  4498.87  4501.12
                             4525.84

 Zero-point correction=                           0.153625 (Hartree/Particle)
 Thermal correction to Energy=                    0.164954
 Thermal correction to Enthalpy=                  0.165898
 Thermal correction to Gibbs Free Energy=         0.115557
 Sum of electronic and zero-point Energies=           -422.998831
 Sum of electronic and thermal Energies=              -422.987502
 Sum of electronic and thermal Enthalpies=            -422.986558
 Sum of electronic and thermal Free Energies=         -423.036899

                     E (Thermal)             CV                S
                      KCal/Mol        Cal/Mol-Kelvin    Cal/Mol-Kelvin
 Total                  103.510             38.147            105.951
 Electronic               0.000              0.000              0.000
 Translational            0.889              2.981             40.409
 Rotational               0.889              2.981             29.388
 Vibrational            101.732             32.185             36.155
 Vibration     1          0.593              1.985              6.317
 Vibration     2          0.597              1.973              4.420
 Vibration     3          0.601              1.960              3.790
 Vibration     4          0.603              1.953              3.560
 Vibration     5          0.616              1.911              2.776
 Vibration     6          0.634              1.851              2.209
 Vibration     7          0.648              1.808              1.946
 Vibration     8          0.663              1.761              1.722
 Vibration     9          0.672              1.735              1.622
 Vibration    10          0.693              1.673              1.416
 Vibration    11          0.709              1.625              1.285
 Vibration    12          0.730              1.566              1.147
 Vibration    13          0.798              1.387              0.833
 Vibration    14          0.815              1.346              0.776
 Vibration    15          0.932              1.083              0.493
 Vibration    16          0.953              1.041              0.458

 Normal termination of Gaussian 09 at Tue Jan 28 10:01:31 2020.
