 Gaussian 09, Revision D.01,
 Gaussian 09:  ES64L-G09RevD.01 24-Apr-2013

 -----------------------------
 # b3lyp 6-31G(2df,p) opt Freq
 -----------------------------

 -----
 titel
 -----
 Symbolic Z-matrix:
 Charge =  0 Multiplicity = 1

 SCF Done:  E(RB3LYP) =  -423.125114813     A.U. after   13 cycles
 Optimization completed.
    -- Stationary point found.
 Normal termination of Gaussian 09 at Mon Jan 27 17:17:12 2020.

 ----------------------------------------------------------------------
 #N Geom=AllCheck Guess=TCheck SCRF=Check GenChk RB3LYP/6-31G(2df,p) Fr
 eq
 ----------------------------------------------------------------------

 Structure from the checkpoint file:  "/scratch/puck/g09_977997bd-7a4b-4aac-93b5-3655186e09c0/Gau-179488.chk"
 -----
 titel
 -----
 Charge =  0 Multiplicity = 1

                         Standard orientation:
 ---------------------------------------------------------------------
 Center     Atomic      Atomic             Coordinates (Angstroms)
 Number     Number       Type             X           Y           Z
 ---------------------------------------------------------------------
      1          6           0       -2.372173   -0.801665   -0.656111
      2          6           0       -1.146181   -0.409085    0.096596
      3          6           0       -1.063369    0.488856    1.312651
      4          6           0       -0.200068    0.780804    0.114576
      5          8           0       -0.194831    2.022371   -0.483353
      6          6           0        0.897793   -0.250706    0.038689
      7          6           0        2.261449   -0.313340    0.631302
      8          6           0        2.072339   -0.280994   -0.882970
      9          8           0       -0.039320   -1.337186    0.112093
     10          1           0       -2.880556   -1.639713   -0.165774
     11          1           0       -3.072718    0.037204   -0.701002
     12          1           0       -2.123244   -1.107386   -1.677347
     13          1           0       -1.898018    1.176187    1.416763
     14          1           0       -0.633979    0.126405    2.242998
     15          1           0       -0.024997    1.899581   -1.424830
     16          1           0        2.654332    0.569751    1.124443
     17          1           0        2.565516   -1.257292    1.070142
     18          1           0        2.337723    0.629623   -1.411703
     19          1           0        2.250415   -1.199057   -1.432017
 ---------------------------------------------------------------------

 SCF Done:  E(RB3LYP) =  -423.125114813     A.U. after    1 cycles

 The electronic state is 1-A.
 Alpha  occ. eigenvalues --  -19.15816 -19.13748 -10.24088 -10.23950 -10.23765
 Alpha  occ. eigenvalues --  -10.18786 -10.18540 -10.18477 -10.18346  -1.06068
 Alpha  occ. eigenvalues --   -1.03232  -0.85105  -0.82392  -0.73233  -0.63014
 Alpha  occ. eigenvalues --   -0.60704  -0.57599  -0.56429  -0.51266  -0.50099
 Alpha  occ. eigenvalues --   -0.45705  -0.44959  -0.42606  -0.40963  -0.40115
 Alpha  occ. eigenvalues --   -0.38494  -0.37234  -0.37137  -0.35187  -0.33164
 Alpha  occ. eigenvalues --   -0.31376  -0.28312  -0.24162  -0.21926
 Alpha virt. eigenvalues --    0.06619   0.07921   0.11026   0.11465   0.11833
 Alpha virt. eigenvalues --    0.13105   0.14443   0.15205   0.16518   0.17902
 Alpha virt. eigenvalues --    0.19360   0.19630   0.20181   0.22185   0.22636

 Mulliken charges:
               1
     1  C   -0.491854
     2  C    0.367176
     3  C   -0.374243
     4  C    0.189185
     5  O   -0.444455
     6  C    0.402572
     7  C   -0.339575
     8  C   -0.359386
     9  O   -0.348014
    10  H    0.134445
    11  H    0.128791
    12  H    0.125755
    13  H    0.118198
    14  H    0.113558
    15  H    0.289719
    16  H    0.122279
    17  H    0.126979
    18  H    0.112097
    19  H    0.126773
 Sum of Mulliken charges =   0.00000

 Dipole moment (field-independent basis, Debye):
    X=             -0.1682    Y=              0.4432    Z=             -1.1479  Tot=              1.2419
 Quadrupole moment (field-independent basis, Debye-Ang):
   XX=            -49.7443   YY=            -57.8618   ZZ=            -49.3748
   XY=              0.2895   XZ=              0.0538   YZ=             -1.5149

  Exact polarizability:  88.813   0.605  68.450  -1.852   1.225  72.710
 Approx polarizability: 113.961   2.021 106.614  -3.657   0.876 107.797

                      1                      2                      3
                      A                      A                      A
 Frequencies --    117.9491               166.4873               188.4809
 Red. masses --      3.4457                 2.6627                 1.2554
 Frc consts  --      0.0282                 0.0435                 0.0263
 IR Inten    --      0.7084                 0.2607                 0.3133

                      4                      5                      6
                      A                      A                      A
 Frequencies --    199.8756               218.3948               326.3578
 Red. masses --      2.3706                 2.1873                 2.0146
 Frc consts  --      0.0558                 0.0615                 0.1264
 IR Inten    --      1.0968                 0.9203                20.2086

                      7                      8                      9
                      A                      A                      A
 Frequencies --    358.9842               398.9888               455.1699
 Red. masses --      1.2999                 3.1897                 2.6974
 Frc consts  --      0.0987                 0.2992                 0.3293
 IR Inten    --     75.4716                18.3702                 5.7937

                     10                     11                     12
                      A                      A                      A
 Frequencies --    478.5892               506.3546               581.4947
 Red. masses --      2.9194                 4.1037                 3.1817
 Frc consts  --      0.3940                 0.6199                 0.6339
 IR Inten    --      8.3635                 2.7251                 2.8207

                     13                     14                     15
                      A                      A                      A
 Frequencies --    632.5433               742.3462               763.8286
 Red. masses --      3.6528                 3.1743                 1.2067
 Frc consts  --      0.8611                 1.0307                 0.4148
 IR Inten    --      6.0452                13.0793                 0.9164

                     16                     17                     18
                      A                      A                      A
 Frequencies --    810.2652               874.6583               879.7526
 Red. masses --      2.7722                 2.8655                 1.5688
 Frc consts  --      1.0723                 1.2916                 0.7154
 IR Inten    --      0.2988                31.4521                 2.2833

                     19                     20                     21
                      A                      A                      A
 Frequencies --    901.5900               948.0829               967.9798
 Red. masses --      2.0901                 1.2846                 2.8265
 Frc consts  --      1.0010                 0.6803                 1.5604
 IR Inten    --     19.1893                 6.0675                16.6460

                     22                     23                     24
                      A                      A                      A
 Frequencies --    980.7526              1005.6478              1042.4759
 Red. masses --      3.2722                 2.1666                 1.6091
 Frc consts  --      1.8544                 1.2910                 1.0303
 IR Inten    --     24.3203                 7.6537                 8.9934

                     25                     26                     27
                      A                      A                      A
 Frequencies --   1059.3790              1067.5901              1101.7589
 Red. masses --      1.3525                 1.4965                 1.9820
 Frc consts  --      0.8943                 1.0049                 1.4175
 IR Inten    --      3.1984                 0.0900                15.7503

                     28                     29                     30
                      A                      A                      A
 Frequencies --   1111.3074              1172.2800              1187.8976
 Red. masses --      1.7655                 2.5528                 1.2584
 Frc consts  --      1.2846                 2.0669                 1.0462
 IR Inten    --     16.4402                93.3755                 0.3157

                     31                     32                     33
                      A                      A                      A
 Frequencies --   1232.4902              1304.8792              1343.2338
 Red. masses --      3.1614                 1.9183                 2.5159
 Frc consts  --      2.8294                 1.9244                 2.6745
 IR Inten    --     86.6468                94.9943                 5.5598

                     34                     35                     36
                      A                      A                      A
 Frequencies --   1396.3364              1412.9478              1425.1891
 Red. masses --      1.6749                 1.6752                 1.4387
 Frc consts  --      1.9240                 1.9705                 1.7217
 IR Inten    --      9.2446                19.2702                 7.6045

                     37                     38                     39
                      A                      A                      A
 Frequencies --   1444.9343              1473.0197              1490.0195
 Red. masses --      1.0921                 1.0552                 1.4619
 Frc consts  --      1.3435                 1.3490                 1.9122
 IR Inten    --      1.8805                 1.5799                 5.6644

                     40                     41                     42
                      A                      A                      A
 Frequencies --   1501.1302              1525.1229              3031.3011
 Red. masses --      1.2407                 2.7076                 1.0358
 Frc consts  --      1.6473                 3.7106                 5.6075
 IR Inten    --      8.9715                32.7121                29.3645

                     43                     44                     45
                      A                      A                      A
 Frequencies --   3093.2519              3110.3633              3116.0385
 Red. masses --      1.1004                 1.0562                 1.0987
 Frc consts  --      6.2032                 6.0204                 6.2853
 IR Inten    --     16.6747                 7.6179                17.6690

                     46                     47                     48
                      A                      A                      A
 Frequencies --   3124.0842              3131.8259              3206.8560
 Red. masses --      1.0535                 1.0551                 1.1158
 Frc consts  --      6.0580                 6.0971                 6.7609
 IR Inten    --     10.9443                 6.4979                 6.4992

                     49                     50                     51
                      A                      A                      A
 Frequencies --   3211.6799              3226.2205              3785.5036
 Red. masses --      1.1175                 1.1153                 1.0657
 Frc consts  --      6.7915                 6.8395                 8.9978
 IR Inten    --      0.6057                 7.8358                17.3092

 - Thermochemistry -
 -------------------
 Temperature   298.150 Kelvin.  Pressure   1.00000 Atm.
 Atom     1 has atomic number  6 and mass  12.00000

 Molecular mass:   126.06808 amu.
 Principal axes and moments of inertia in atomic units:
                           1         2         3
     Eigenvalues --   688.264671194.644521431.81754
           X            0.99991   0.01143   0.00652
           Y           -0.01157   0.99969   0.02212
           Z           -0.00626  -0.02219   0.99973
 This molecule is an asymmetric top.
 Rotational symmetry number  1.
 Warning -- assumption of classical behavior for rotation
           may cause significant error
 Rotational temperatures (Kelvin)      0.12584     0.07250     0.06049
 Rotational constants (GHZ):           2.62216     1.51069     1.26045
 Zero-point vibrational energy     411716.9 (Joules/Mol)
                                   98.40270 (Kcal/Mol)
 Warning -- explicit consideration of  12 degrees of freedom as
           vibrations may cause significant error
 Vibrational temperatures:    169.70   239.54   271.18   287.58   314.22
          (Kelvin)            469.56   516.50   574.06   654.89   688.58
                              728.53   836.64   910.09  1068.07  1098.98
                             1165.79  1258.44  1265.77  1297.19  1364.08
                             1392.71  1411.08  1446.90  1499.89  1524.21
                             1536.02  1585.18  1598.92  1686.65  1709.12
                             1773.28  1877.43  1932.61  2009.01  2032.91
                             2050.53  2078.94  2119.34  2143.80  2159.79
                             2194.31  4361.36  4450.49  4475.11  4483.28
                             4494.85  4505.99  4613.94  4620.89  4641.81
                             5446.49

 Zero-point correction=                           0.156815 (Hartree/Particle)
 Thermal correction to Energy=                    0.165570
 Thermal correction to Enthalpy=                  0.166514
 Thermal correction to Gibbs Free Energy=         0.123990
 Sum of electronic and zero-point Energies=           -422.968300
 Sum of electronic and thermal Energies=              -422.959545
 Sum of electronic and thermal Enthalpies=            -422.958601
 Sum of electronic and thermal Free Energies=         -423.001125

                     E (Thermal)             CV                S
                      KCal/Mol        Cal/Mol-Kelvin    Cal/Mol-Kelvin
 Total                  103.897             34.240             89.500
 Electronic               0.000              0.000              0.000
 Translational            0.889              2.981             40.409
 Rotational               0.889              2.981             28.556
 Vibrational            102.119             28.279             20.536
 Vibration     1          0.608              1.934              3.134
 Vibration     2          0.624              1.884              2.475
 Vibration     3          0.633              1.856              2.243
 Vibration     4          0.638              1.840              2.134
 Vibration     5          0.646              1.813              1.972
 Vibration     6          0.710              1.623              1.278
 Vibration     7          0.734              1.557              1.127
 Vibration     8          0.765              1.472              0.966
 Vibration     9          0.814              1.349              0.780
 Vibration    10          0.835              1.298              0.714
 Vibration    11          0.862              1.236              0.642
 Vibration    12          0.938              1.071              0.483

 Normal termination of Gaussian 09 at Mon Jan 27 18:00:53 2020.
