 Gaussian 09, Revision D.01,
 Gaussian 09:  ES64L-G09RevD.01 24-Apr-2013

 -----------------------------
 # b3lyp 6-31G(2df,p) opt Freq
 -----------------------------

 -----
 titel
 -----
 Symbolic Z-matrix:
 Charge =  0 Multiplicity = 1

 SCF Done:  E(RB3LYP) =  -423.133888256     A.U. after   14 cycles
 Optimization completed.
    -- Stationary point found.
 Normal termination of Gaussian 09 at Mon Jan 27 16:30:40 2020.

 ----------------------------------------------------------------------
 #N Geom=AllCheck Guess=TCheck SCRF=Check GenChk RB3LYP/6-31G(2df,p) Fr
 eq
 ----------------------------------------------------------------------

 Structure from the checkpoint file:  "/scratch/puck/g09_3fa93955-3d9d-499f-aa35-eaae4a825c79/Gau-12309.chk"
 -----
 titel
 -----
 Charge =  0 Multiplicity = 1

                         Standard orientation:
 ---------------------------------------------------------------------
 Center     Atomic      Atomic             Coordinates (Angstroms)
 Number     Number       Type             X           Y           Z
 ---------------------------------------------------------------------
      1          6           0       -1.105377    1.710804   -0.840111
      2          6           0       -0.831185    0.538703    0.089669
      3          8           0       -0.274100    0.960820    1.317856
      4          6           0       -1.992810   -0.442957    0.344424
      5          8           0       -1.286248   -1.527678   -0.299367
      6          6           0       -0.138841   -0.699027   -0.563593
      7          6           0        1.124457   -1.218068    0.130734
      8          6           0        2.229705   -0.279815   -0.028942
      9          6           0        3.098391    0.540003   -0.175461
     10          1           0       -0.167669    2.208781   -1.113002
     11          1           0       -1.589905    1.380405   -1.764072
     12          1           0       -1.752910    2.442179   -0.346834
     13          1           0        0.576359    1.377572    1.130552
     14          1           0       -2.177087   -0.637450    1.406231
     15          1           0       -2.937161   -0.212716   -0.162083
     16          1           0        0.042037   -0.598944   -1.641634
     17          1           0        0.906240   -1.361239    1.193553
     18          1           0        1.385712   -2.196812   -0.288085
     19          1           0        3.891125    1.235224   -0.302863
 ---------------------------------------------------------------------

 SCF Done:  E(RB3LYP) =  -423.133888256     A.U. after    1 cycles

 The electronic state is 1-A.
 Alpha  occ. eigenvalues --  -19.14291 -19.13561 -10.24424 -10.23692 -10.22666
 Alpha  occ. eigenvalues --  -10.20891 -10.19361 -10.18289 -10.18189  -1.05039
 Alpha  occ. eigenvalues --   -1.01697  -0.80147  -0.76393  -0.72635  -0.68134
 Alpha  occ. eigenvalues --   -0.64788  -0.55859  -0.53922  -0.51144  -0.49098
 Alpha  occ. eigenvalues --   -0.47997  -0.45430  -0.43192  -0.42199  -0.40991
 Alpha  occ. eigenvalues --   -0.40241  -0.38821  -0.36666  -0.33031  -0.30995
 Alpha  occ. eigenvalues --   -0.28056  -0.27514  -0.26458  -0.25110
 Alpha virt. eigenvalues --    0.04155   0.04854   0.07082   0.09342   0.11656
 Alpha virt. eigenvalues --    0.12150   0.12477   0.14031   0.14622   0.14929
 Alpha virt. eigenvalues --    0.16910   0.17236   0.18562   0.20163   0.21949

 Mulliken charges:
               1
     1  C   -0.457819
     2  C    0.339951
     3  O   -0.471651
     4  C   -0.101041
     5  O   -0.292746
     6  C    0.091485
     7  C   -0.367956
     8  C    0.283894
     9  C   -0.459358
    10  H    0.119874
    11  H    0.123406
    12  H    0.127045
    13  H    0.285946
    14  H    0.113500
    15  H    0.100574
    16  H    0.078340
    17  H    0.147356
    18  H    0.137830
    19  H    0.201369
 Sum of Mulliken charges =   0.00000

 Dipole moment (field-independent basis, Debye):
    X=              0.6871    Y=              1.5291    Z=             -0.7746  Tot=              1.8467
 Quadrupole moment (field-independent basis, Debye-Ang):
   XX=            -49.9037   YY=            -53.4695   ZZ=            -55.2371
   XY=              0.4783   XZ=             -0.0235   YZ=             -1.9171

  Exact polarizability:  92.734   8.516  74.109  -2.980  -2.220  61.990
 Approx polarizability: 126.608  22.693 114.085  -6.294  -1.593  94.529

                      1                      2                      3
                      A                      A                      A
 Frequencies --     61.0531                79.0088               137.9123
 Red. masses --      3.3271                 3.9407                 4.2268
 Frc consts  --      0.0073                 0.0145                 0.0474
 IR Inten    --      0.8329                 3.3185                 1.3646

                      4                      5                      6
                      A                      A                      A
 Frequencies --    235.0615               242.8590               278.6691
 Red. masses --      1.8344                 1.7803                 2.1527
 Frc consts  --      0.0597                 0.0619                 0.0985
 IR Inten    --      1.1341                 0.3024                 1.2462

                      7                      8                      9
                      A                      A                      A
 Frequencies --    336.0668               357.8633               381.4781
 Red. masses --      2.0694                 2.7715                 1.2841
 Frc consts  --      0.1377                 0.2091                 0.1101
 IR Inten    --     18.9628                 3.7413                94.0909

                     10                     11                     12
                      A                      A                      A
 Frequencies --    406.0964               434.9579               470.0870
 Red. masses --      3.9392                 3.2552                 3.7293
 Frc consts  --      0.3828                 0.3628                 0.4855
 IR Inten    --     17.7398                10.3443                30.2781

                     13                     14                     15
                      A                      A                      A
 Frequencies --    575.8916               632.0568               650.3104
 Red. masses --      3.3143                 1.2120                 1.2283
 Frc consts  --      0.6476                 0.2853                 0.3060
 IR Inten    --      1.3530                43.1770                48.2913

                     16                     17                     18
                      A                      A                      A
 Frequencies --    666.6068               785.3965               900.8843
 Red. masses --      4.6164                 2.6106                 2.0768
 Frc consts  --      1.2086                 0.9488                 0.9931
 IR Inten    --      1.9421                 6.3621                 4.1120

                     19                     20                     21
                      A                      A                      A
 Frequencies --    938.5074               953.8637               962.6428
 Red. masses --      1.5864                 2.6691                 2.2565
 Frc consts  --      0.8232                 1.4309                 1.2320
 IR Inten    --     14.9585                 5.5193                 7.4336

                     22                     23                     24
                      A                      A                      A
 Frequencies --    973.5169              1012.8099              1038.6409
 Red. masses --      2.1361                 4.0185                 7.4254
 Frc consts  --      1.1928                 2.4287                 4.7195
 IR Inten    --     16.8400                32.3883                91.6700

                     25                     26                     27
                      A                      A                      A
 Frequencies --   1088.3680              1127.6508              1150.3828
 Red. masses --      2.8569                 1.6778                 1.3804
 Frc consts  --      1.9938                 1.2570                 1.0763
 IR Inten    --     26.0974                20.6345                 8.2166

                     28                     29                     30
                      A                      A                      A
 Frequencies --   1174.9481              1210.6667              1260.7417
 Red. masses --      1.2518                 2.2680                 1.8356
 Frc consts  --      1.0182                 1.9585                 1.7190
 IR Inten    --      8.0519                48.2550                19.8386

                     31                     32                     33
                      A                      A                      A
 Frequencies --   1277.2769              1309.6025              1348.2472
 Red. masses --      1.4831                 1.4006                 1.4576
 Frc consts  --      1.4256                 1.4152                 1.5611
 IR Inten    --     11.7915                 5.3947                15.2509

                     34                     35                     36
                      A                      A                      A
 Frequencies --   1382.5502              1401.7915              1407.2447
 Red. masses --      1.3618                 1.8511                 1.2617
 Frc consts  --      1.5336                 2.1431                 1.4721
 IR Inten    --      9.1243                22.2921                 5.5285

                     37                     38                     39
                      A                      A                      A
 Frequencies --   1460.5257              1490.3719              1493.2879
 Red. masses --      1.0880                 1.0542                 1.0784
 Frc consts  --      1.3674                 1.3796                 1.4168
 IR Inten    --      7.8151                 1.6464                 4.5740

                     40                     41                     42
                      A                      A                      A
 Frequencies --   1516.3599              2229.2786              3018.9052
 Red. masses --      1.1052                 5.9502                 1.0794
 Frc consts  --      1.4973                17.4224                 5.7963
 IR Inten    --      0.8486                 2.9343                46.8147

                     43                     44                     45
                      A                      A                      A
 Frequencies --   3026.6984              3031.9795              3043.0467
 Red. masses --      1.0468                 1.0505                 1.0603
 Frc consts  --      5.6498                 5.6897                 5.7847
 IR Inten    --     33.6162                30.6749                 9.4422

                     46                     47                     48
                      A                      A                      A
 Frequencies --   3082.1693              3091.6745              3098.9475
 Red. masses --      1.1105                 1.1003                 1.1002
 Frc consts  --      6.2155                 6.1964                 6.2251
 IR Inten    --     24.4670                 6.3404                23.9532

                     49                     50                     51
                      A                      A                      A
 Frequencies --   3114.3196              3503.2117              3779.2155
 Red. masses --      1.1023                 1.1612                 1.0657
 Frc consts  --      6.2993                 8.3966                 8.9676
 IR Inten    --     19.9238                69.8388                30.2523

 - Thermochemistry -
 -------------------
 Temperature   298.150 Kelvin.  Pressure   1.00000 Atm.
 Atom     1 has atomic number  6 and mass  12.00000

 Molecular mass:   126.06808 amu.
 Principal axes and moments of inertia in atomic units:
                           1         2         3
     Eigenvalues --   716.151351362.225551682.87361
           X            0.99980  -0.01922   0.00492
           Y            0.01949   0.99796  -0.06073
           Z           -0.00375   0.06082   0.99814
 This molecule is an asymmetric top.
 Rotational symmetry number  1.
 Warning -- assumption of classical behavior for rotation
           may cause significant error
 Rotational temperatures (Kelvin)      0.12094     0.06358     0.05147
 Rotational constants (GHZ):           2.52006     1.32485     1.07242
 Zero-point vibrational energy     410508.7 (Joules/Mol)
                                   98.11395 (Kcal/Mol)
 Warning -- explicit consideration of  13 degrees of freedom as
           vibrations may cause significant error
 Vibrational temperatures:     87.84   113.68   198.42   338.20   349.42
          (Kelvin)            400.94   483.52   514.88   548.86   584.28
                              625.81   676.35   828.58   909.39   935.65
                              959.10  1130.01  1296.17  1350.30  1372.40
                             1385.03  1400.67  1457.21  1494.37  1565.92
                             1622.44  1655.14  1690.49  1741.88  1813.92
                             1837.71  1884.22  1939.82  1989.18  2016.86
                             2024.71  2101.37  2144.31  2148.51  2181.70
                             3207.43  4343.53  4354.74  4362.34  4378.26
                             4434.55  4448.22  4458.69  4480.81  5040.33
                             5437.44

 Zero-point correction=                           0.156355 (Hartree/Particle)
 Thermal correction to Energy=                    0.165924
 Thermal correction to Enthalpy=                  0.166868
 Thermal correction to Gibbs Free Energy=         0.121920
 Sum of electronic and zero-point Energies=           -422.977534
 Sum of electronic and thermal Energies=              -422.967965
 Sum of electronic and thermal Enthalpies=            -422.967020
 Sum of electronic and thermal Free Energies=         -423.011968

                     E (Thermal)             CV                S
                      KCal/Mol        Cal/Mol-Kelvin    Cal/Mol-Kelvin
 Total                  104.119             35.821             94.600
 Electronic               0.000              0.000              0.000
 Translational            0.889              2.981             40.409
 Rotational               0.889              2.981             28.886
 Vibrational            102.341             29.859             25.305
 Vibration     1          0.597              1.973              4.423
 Vibration     2          0.600              1.963              3.915
 Vibration     3          0.614              1.915              2.833
 Vibration     4          0.655              1.787              1.840
 Vibration     5          0.659              1.775              1.782
 Vibration     6          0.679              1.713              1.542
 Vibration     7          0.717              1.603              1.231
 Vibration     8          0.733              1.559              1.131
 Vibration     9          0.751              1.510              1.033
 Vibration    10          0.771              1.457              0.941
 Vibration    11          0.796              1.394              0.843
 Vibration    12          0.827              1.316              0.737
 Vibration    13          0.932              1.083              0.493

 Optimization completed.
    -- Stationary point found.
 Normal termination of Gaussian 09 at Mon Jan 27 18:19:52 2020.
