 Gaussian 09, Revision D.01,
 Gaussian 09:  ES64L-G09RevD.01 24-Apr-2013

 -----------------------------
 # b3lyp 6-31G(2df,p) opt Freq
 -----------------------------

 -----
 titel
 -----
 Symbolic Z-matrix:
 Charge =  0 Multiplicity = 1

 SCF Done:  E(RB3LYP) =  -423.118986687     A.U. after   14 cycles
 Optimization completed.
    -- Stationary point found.
 Normal termination of Gaussian 09 at Tue Jan 28 12:08:38 2020.

 ----------------------------------------------------------------------
 #N Geom=AllCheck Guess=TCheck SCRF=Check GenChk RB3LYP/6-31G(2df,p) Fr
 eq
 ----------------------------------------------------------------------

 Structure from the checkpoint file:  "/scratch/puck/g09_2a55ec6d-a92d-4c62-bdc9-2187535505fa/Gau-138516.chk"
 -----
 titel
 -----
 Charge =  0 Multiplicity = 1

                         Standard orientation:
 ---------------------------------------------------------------------
 Center     Atomic      Atomic             Coordinates (Angstroms)
 Number     Number       Type             X           Y           Z
 ---------------------------------------------------------------------
      1          8           0       -2.607958   -0.580243   -0.376092
      2          6           0       -1.761109   -0.159266    0.679170
      3          6           0       -0.347936   -0.004874    0.176487
      4          8           0       -0.284046    1.009541   -0.877823
      5          6           0        0.740245    1.747831   -0.154386
      6          6           0        0.822964    0.653887    0.928003
      7          6           0        1.674568   -0.607516    0.649889
      8          6           0        1.750117   -0.952318   -0.811407
      9          6           0        0.489323   -1.279241   -0.071284
     10          1           0       -2.473139    0.052744   -1.092234
     11          1           0       -2.101058    0.792805    1.116740
     12          1           0       -1.811805   -0.927777    1.457836
     13          1           0        1.631825    1.922929   -0.766486
     14          1           0        0.353438    2.708683    0.205605
     15          1           0        0.742570    0.948877    1.973555
     16          1           0        2.362003   -1.038920    1.366972
     17          1           0        1.739420   -0.189528   -1.581903
     18          1           0        2.379270   -1.806809   -1.039163
     19          1           0        0.104486   -2.288410    0.011568
 ---------------------------------------------------------------------

 SCF Done:  E(RB3LYP) =  -423.118986687     A.U. after    1 cycles

 The electronic state is 1-A.
 Alpha  occ. eigenvalues --  -19.13611 -19.13193 -10.23632 -10.23253 -10.22617
 Alpha  occ. eigenvalues --  -10.20020 -10.19558 -10.19147 -10.18925  -1.04246
 Alpha  occ. eigenvalues --   -1.01013  -0.88449  -0.74223  -0.72676  -0.65302
 Alpha  occ. eigenvalues --   -0.60657  -0.58095  -0.53242  -0.51470  -0.49391
 Alpha  occ. eigenvalues --   -0.47729  -0.46006  -0.45088  -0.41464  -0.40571
 Alpha  occ. eigenvalues --   -0.39344  -0.36586  -0.35129  -0.31777  -0.30982
 Alpha  occ. eigenvalues --   -0.29401  -0.27232  -0.25282  -0.24530
 Alpha virt. eigenvalues --    0.05587   0.08815   0.10472   0.11061   0.11839
 Alpha virt. eigenvalues --    0.13407   0.14090   0.14835   0.15752   0.16437
 Alpha virt. eigenvalues --    0.17938   0.18234   0.19235   0.20393   0.21989

 Mulliken charges:
               1
     1  O   -0.421116
     2  C   -0.155043
     3  C    0.441406
     4  O   -0.353830
     5  C   -0.113354
     6  C   -0.146819
     7  C   -0.069874
     8  C   -0.297315
     9  C   -0.090745
    10  H    0.296495
    11  H    0.085801
    12  H    0.109146
    13  H    0.106134
    14  H    0.104280
    15  H    0.080836
    16  H    0.090007
    17  H    0.129252
    18  H    0.113096
    19  H    0.091643
 Sum of Mulliken charges =   0.00000

 Dipole moment (field-independent basis, Debye):
    X=              1.8000    Y=              0.6278    Z=              1.3245  Tot=              2.3213
 Quadrupole moment (field-independent basis, Debye-Ang):
   XX=            -56.4966   YY=            -51.2746   ZZ=            -51.9772
   XY=             -2.8581   XZ=             -0.4535   YZ=              0.1799

  Exact polarizability:  78.307  -0.743  76.369  -1.719   0.941  67.113
 Approx polarizability: 109.039   3.157 109.962   2.274   0.535 105.485

                      1                      2                      3
                      A                      A                      A
 Frequencies --     80.1605               148.4608               210.6811
 Red. masses --      4.0434                 4.0117                 2.7116
 Frc consts  --      0.0153                 0.0521                 0.0709
 IR Inten    --      4.2279                 0.4006                 1.2844

                      4                      5                      6
                      A                      A                      A
 Frequencies --    300.8172               322.5065               366.0033
 Red. masses --      2.7187                 2.4680                 3.9135
 Frc consts  --      0.1449                 0.1512                 0.3089
 IR Inten    --      0.5789                 6.8894                 3.1119

                      7                      8                      9
                      A                      A                      A
 Frequencies --    455.5935               467.7119               543.8403
 Red. masses --      1.1744                 2.5684                 2.7897
 Frc consts  --      0.1436                 0.3310                 0.4861
 IR Inten    --    113.8707                 0.5914                12.9551

                     10                     11                     12
                      A                      A                      A
 Frequencies --    665.1600               690.1018               750.8463
 Red. masses --      4.2892                 3.4790                 2.1153
 Frc consts  --      1.1181                 0.9762                 0.7026
 IR Inten    --     13.9978                 2.9287                 7.2866

                     13                     14                     15
                      A                      A                      A
 Frequencies --    792.0101               866.7161               874.6700
 Red. masses --      2.1121                 1.7706                 2.8430
 Frc consts  --      0.7806                 0.7837                 1.2815
 IR Inten    --      5.3420                 8.8770                21.7878

                     16                     17                     18
                      A                      A                      A
 Frequencies --    919.8698               939.2956               958.1487
 Red. masses --      2.1211                 2.6566                 1.5031
 Frc consts  --      1.0574                 1.3810                 0.8130
 IR Inten    --     21.2252                 1.4428                26.2088

                     19                     20                     21
                      A                      A                      A
 Frequencies --    969.7775              1002.1082              1031.4146
 Red. masses --      4.0174                 1.5482                 1.5879
 Frc consts  --      2.2261                 0.9160                 0.9952
 IR Inten    --     76.8043                 1.6155                 2.1719

                     22                     23                     24
                      A                      A                      A
 Frequencies --   1054.9868              1058.3413              1065.8862
 Red. masses --      1.2698                 3.4009                 2.3959
 Frc consts  --      0.8327                 2.2444                 1.6038
 IR Inten    --      0.7695                43.7680                10.0138

                     25                     26                     27
                      A                      A                      A
 Frequencies --   1081.6020              1087.0140              1125.3939
 Red. masses --      2.5754                 1.4021                 1.8978
 Frc consts  --      1.7751                 0.9761                 1.4162
 IR Inten    --     37.7877                 4.8384                10.9704

                     28                     29                     30
                      A                      A                      A
 Frequencies --   1140.6642              1163.4055              1185.5107
 Red. masses --      2.0007                 1.1533                 1.6129
 Frc consts  --      1.5338                 0.9197                 1.3356
 IR Inten    --      1.7037                 2.3213                 2.2924

                     31                     32                     33
                      A                      A                      A
 Frequencies --   1239.5711              1246.1279              1300.9901
 Red. masses --      1.3934                 2.2504                 2.0715
 Frc consts  --      1.2614                 2.0589                 2.0658
 IR Inten    --     15.5199                 2.3705                 3.2285

                     34                     35                     36
                      A                      A                      A
 Frequencies --   1314.7926              1336.4307              1360.8401
 Red. masses --      1.7284                 1.5499                 1.8136
 Frc consts  --      1.7604                 1.6310                 1.9788
 IR Inten    --     16.5287                 2.4567                10.9700

                     37                     38                     39
                      A                      A                      A
 Frequencies --   1381.6844              1435.0767              1493.9849
 Red. masses --      1.4244                 1.3822                 1.1974
 Frc consts  --      1.6021                 1.6772                 1.5746
 IR Inten    --     11.0215                58.1669                 2.0476

                     40                     41                     42
                      A                      A                      A
 Frequencies --   1497.2248              1518.8972              2978.6675
 Red. masses --      1.1008                 1.0952                 1.0693
 Frc consts  --      1.4539                 1.4887                 5.5897
 IR Inten    --      1.7497                 0.5087                53.2769

                     43                     44                     45
                      A                      A                      A
 Frequencies --   3021.5244              3069.5792              3074.0594
 Red. masses --      1.0562                 1.1092                 1.0938
 Frc consts  --      5.6811                 6.1577                 6.0899
 IR Inten    --     73.8335                31.5084                24.0290

                     46                     47                     48
                      A                      A                      A
 Frequencies --   3119.9435              3133.8010              3180.4680
 Red. masses --      1.0892                 1.0538                 1.0889
 Frc consts  --      6.2464                 6.0976                 6.4895
 IR Inten    --     25.2949                14.8575                16.9858

                     49                     50                     51
                      A                      A                      A
 Frequencies --   3189.3894              3216.2392              3785.1874
 Red. masses --      1.0988                 1.1142                 1.0656
 Frc consts  --      6.5857                 6.7909                 8.9957
 IR Inten    --     12.0999                 8.9664                26.6092

 - Thermochemistry -
 -------------------
 Temperature   298.150 Kelvin.  Pressure   1.00000 Atm.
 Atom     1 has atomic number  8 and mass  15.99491

 Molecular mass:   126.06808 amu.
 Principal axes and moments of inertia in atomic units:
                           1         2         3
     Eigenvalues --   644.991701168.249211394.10847
           X            0.99967  -0.01728  -0.01892
           Y            0.01764   0.99966   0.01897
           Z            0.01858  -0.01930   0.99964
 This molecule is an asymmetric top.
 Rotational symmetry number  1.
 Warning -- assumption of classical behavior for rotation
           may cause significant error
 Rotational temperatures (Kelvin)      0.13429     0.07414     0.06213
 Rotational constants (GHZ):           2.79808     1.54483     1.29455
 Zero-point vibrational energy     419968.1 (Joules/Mol)
                                  100.37478 (Kcal/Mol)
 Warning -- explicit consideration of   9 degrees of freedom as
           vibrations may cause significant error
 Vibrational temperatures:    115.33   213.60   303.12   432.81   464.01
          (Kelvin)            526.60   655.50   672.93   782.46   957.02
                              992.90  1080.30  1139.52  1247.01  1258.45
                             1323.49  1351.44  1378.56  1395.29  1441.81
                             1483.97  1517.89  1522.72  1533.57  1556.18
                             1563.97  1619.19  1641.16  1673.88  1705.68
                             1783.46  1792.90  1871.83  1891.69  1922.82
                             1957.94  1987.93  2064.75  2149.51  2154.17
                             2185.35  4285.63  4347.29  4416.43  4422.88
                             4488.90  4508.84  4575.98  4588.81  4627.45
                             5446.03

 Zero-point correction=                           0.159957 (Hartree/Particle)
 Thermal correction to Energy=                    0.167720
 Thermal correction to Enthalpy=                  0.168664
 Thermal correction to Gibbs Free Energy=         0.127692
 Sum of electronic and zero-point Energies=           -422.959029
 Sum of electronic and thermal Energies=              -422.951267
 Sum of electronic and thermal Enthalpies=            -422.950323
 Sum of electronic and thermal Free Energies=         -422.991294

                     E (Thermal)             CV                S
                      KCal/Mol        Cal/Mol-Kelvin    Cal/Mol-Kelvin
 Total                  105.246             30.841             86.232
 Electronic               0.000              0.000              0.000
 Translational            0.889              2.981             40.409
 Rotational               0.889              2.981             28.443
 Vibrational            103.468             24.879             17.381
 Vibration     1          0.600              1.963              3.887
 Vibration     2          0.618              1.904              2.692
 Vibration     3          0.643              1.825              2.038
 Vibration     4          0.693              1.672              1.412
 Vibration     5          0.708              1.630              1.297
 Vibration     6          0.739              1.542              1.096
 Vibration     7          0.814              1.349              0.779
 Vibration     8          0.825              1.322              0.744
 Vibration     9          0.899              1.153              0.557

 Optimization completed.
    -- Stationary point found.
 Normal termination of Gaussian 09 at Tue Jan 28 12:52:23 2020.
