 Gaussian 09, Revision D.01,
 Gaussian 09:  ES64L-G09RevD.01 24-Apr-2013

 -----------------------------
 # b3lyp 6-31G(2df,p) opt Freq
 -----------------------------

 -----
 titel
 -----
 Symbolic Z-matrix:
 Charge =  0 Multiplicity = 1

 SCF Done:  E(RB3LYP) =  -423.182834368     A.U. after   13 cycles
 Optimization completed.
    -- Stationary point found.
 Normal termination of Gaussian 09 at Mon Jan 27 22:55:57 2020.

 ----------------------------------------------------------------------
 #N Geom=AllCheck Guess=TCheck SCRF=Check GenChk RB3LYP/6-31G(2df,p) Fr
 eq
 ----------------------------------------------------------------------

 Structure from the checkpoint file:  "/scratch/puck/g09_1e3ead19-3693-47b2-9c0f-812544777974/Gau-65263.chk"
 -----
 titel
 -----
 Charge =  0 Multiplicity = 1

                         Standard orientation:
 ---------------------------------------------------------------------
 Center     Atomic      Atomic             Coordinates (Angstroms)
 Number     Number       Type             X           Y           Z
 ---------------------------------------------------------------------
      1          6           0        3.331172    0.063795    0.228141
      2          6           0        1.833441    0.029688    0.434749
      3          6           0        0.932155    0.793153   -0.525794
      4          6           0       -0.459110    1.166932   -0.045649
      5          6           0       -1.040834   -0.181214    0.452187
      6          8           0       -0.261477   -1.236528   -0.115406
      7          6           0        0.966110   -0.709205   -0.551968
      8          6           0       -2.489957   -0.430730    0.071064
      9          8           0       -3.323950    0.432608   -0.010445
     10          1           0        3.582875    0.051362   -0.838070
     11          1           0        3.772746    0.969457    0.658317
     12          1           0        3.815980   -0.801485    0.692692
     13          1           0        1.515410   -0.005341    1.474471
     14          1           0        1.389408    1.385877   -1.310107
     15          1           0       -0.467219    1.916566    0.749629
     16          1           0       -1.062502    1.556821   -0.870540
     17          1           0       -0.986338   -0.236286    1.552164
     18          1           0        1.403160   -1.299729   -1.349407
     19          1           0       -2.717971   -1.500390   -0.128722
 ---------------------------------------------------------------------

 SCF Done:  E(RB3LYP) =  -423.182834368     A.U. after    1 cycles

 The electronic state is 1-A.
 Alpha  occ. eigenvalues --  -19.15317 -19.14590 -10.27321 -10.24600 -10.23754
 Alpha  occ. eigenvalues --  -10.19629 -10.19586 -10.19518 -10.18585  -1.05936
 Alpha  occ. eigenvalues --   -1.04730  -0.86064  -0.77775  -0.72542  -0.66391
 Alpha  occ. eigenvalues --   -0.59600  -0.58712  -0.55249  -0.50725  -0.49342
 Alpha  occ. eigenvalues --   -0.47619  -0.45083  -0.43118  -0.42309  -0.40672
 Alpha  occ. eigenvalues --   -0.39666  -0.38759  -0.38092  -0.35609  -0.34601
 Alpha  occ. eigenvalues --   -0.32969  -0.27824  -0.26540  -0.23245
 Alpha virt. eigenvalues --   -0.02764   0.08845   0.09718   0.10458   0.11867
 Alpha virt. eigenvalues --    0.12443   0.14421   0.14925   0.15453   0.16446
 Alpha virt. eigenvalues --    0.17219   0.18068   0.18418   0.19971   0.24049

 Mulliken charges:
               1
     1  C   -0.422365
     2  C   -0.046279
     3  C   -0.089994
     4  C   -0.267349
     5  C    0.029531
     6  O   -0.278311
     7  C    0.100995
     8  C    0.131076
     9  O   -0.241696
    10  H    0.116104
    11  H    0.121689
    12  H    0.123086
    13  H    0.087646
    14  H    0.091978
    15  H    0.116419
    16  H    0.124732
    17  H    0.104017
    18  H    0.101950
    19  H    0.096772
 Sum of Mulliken charges =   0.00000

 Dipole moment (field-independent basis, Debye):
    X=              2.5659    Y=              0.0403    Z=              0.2558  Tot=              2.5789
 Quadrupole moment (field-independent basis, Debye-Ang):
   XX=            -60.3381   YY=            -54.6798   ZZ=            -50.5929
   XY=              3.3282   XZ=             -1.5869   YZ=             -0.0561

  Exact polarizability:  95.799  -1.650  70.019   0.659   0.460  61.834
 Approx polarizability: 118.241  -6.868 111.434   1.687   0.630  96.738

                      1                      2                      3
                      A                      A                      A
 Frequencies --     39.9416                96.7036               161.8123
 Red. masses --      4.8929                 2.6001                 4.1289
 Frc consts  --      0.0046                 0.0143                 0.0637
 IR Inten    --      3.8511                 7.8643                 2.9992

                      4                      5                      6
                      A                      A                      A
 Frequencies --    201.0059               239.3360               258.8898
 Red. masses --      1.1001                 2.5272                 2.8468
 Frc consts  --      0.0262                 0.0853                 0.1124
 IR Inten    --      0.3779                 0.4561                 4.3273

                      7                      8                      9
                      A                      A                      A
 Frequencies --    322.6093               349.6665               465.7594
 Red. masses --      2.4984                 3.5326                 2.8853
 Frc consts  --      0.1532                 0.2545                 0.3688
 IR Inten    --      2.8881                 2.7637                 2.2577

                     10                     11                     12
                      A                      A                      A
 Frequencies --    559.5715               696.2183               698.7093
 Red. masses --      4.5783                 4.6224                 5.4210
 Frc consts  --      0.8446                 1.3201                 1.5593
 IR Inten    --      3.7077                12.3221                17.7480

                     13                     14                     15
                      A                      A                      A
 Frequencies --    808.6681               820.6989               838.6382
 Red. masses --      3.0577                 2.1979                 2.3490
 Frc consts  --      1.1781                 0.8722                 0.9734
 IR Inten    --      7.5974                14.0516                 1.7877

                     16                     17                     18
                      A                      A                      A
 Frequencies --    870.4103               924.6727               995.2639
 Red. masses --      1.6016                 1.4937                 1.6749
 Frc consts  --      0.7149                 0.7525                 0.9775
 IR Inten    --     10.0506                 3.1225                 6.8851

                     19                     20                     21
                      A                      A                      A
 Frequencies --   1005.5327              1013.7330              1038.1817
 Red. masses --      1.5124                 2.8512                 1.6820
 Frc consts  --      0.9009                 1.7264                 1.0682
 IR Inten    --     18.1465                12.5819                13.9582

                     22                     23                     24
                      A                      A                      A
 Frequencies --   1074.8764              1103.5564              1112.7651
 Red. masses --      1.6169                 2.0392                 2.2349
 Frc consts  --      1.1007                 1.4632                 1.6305
 IR Inten    --      1.1415                 5.9853                16.0748

                     25                     26                     27
                      A                      A                      A
 Frequencies --   1120.8642              1137.7421              1166.0357
 Red. masses --      2.6260                 1.9294                 2.5992
 Frc consts  --      1.9438                 1.4715                 2.0822
 IR Inten    --     26.9567                 7.1760                89.7514

                     28                     29                     30
                      A                      A                      A
 Frequencies --   1194.3213              1222.1652              1283.2189
 Red. masses --      1.3938                 1.6164                 1.5543
 Frc consts  --      1.1714                 1.4225                 1.5079
 IR Inten    --      2.6523                 2.2073                 5.9238

                     31                     32                     33
                      A                      A                      A
 Frequencies --   1296.0121              1319.4316              1339.8403
 Red. masses --      1.2093                 1.3233                 1.4428
 Frc consts  --      1.1967                 1.3573                 1.5260
 IR Inten    --      4.0807                 5.3777                 0.5135

                     34                     35                     36
                      A                      A                      A
 Frequencies --   1356.4676              1404.5103              1418.1864
 Red. masses --      1.5264                 1.2407                 1.2523
 Frc consts  --      1.6547                 1.4420                 1.4840
 IR Inten    --      0.5847                 8.5311                 1.6648

                     37                     38                     39
                      A                      A                      A
 Frequencies --   1443.7356              1493.8743              1499.9702
 Red. masses --      2.3732                 1.0474                 1.0790
 Frc consts  --      2.9145                 1.3772                 1.4303
 IR Inten    --     12.2605                 3.0017                 3.0778

                     40                     41                     42
                      A                      A                      A
 Frequencies --   1503.3744              1835.9726              2903.9811
 Red. masses --      1.0840                10.7583                 1.0846
 Frc consts  --      1.4434                21.3662                 5.3890
 IR Inten    --      4.8434               149.4554                90.7603

                     43                     44                     45
                      A                      A                      A
 Frequencies --   2962.1644              3027.0997              3062.6033
 Red. masses --      1.0809                 1.0350                 1.0593
 Frc consts  --      5.5878                 5.5878                 5.8537
 IR Inten    --     31.6085                36.3487                19.3284

                     46                     47                     48
                      A                      A                      A
 Frequencies --   3090.4040              3094.1645              3104.3978
 Red. masses --      1.1003                 1.1009                 1.1057
 Frc consts  --      6.1916                 6.2098                 6.2784
 IR Inten    --     20.7494                20.4840                14.0989

                     49                     50                     51
                      A                      A                      A
 Frequencies --   3132.3237              3170.2351              3180.3064
 Red. masses --      1.0892                 1.0885                 1.0932
 Frc consts  --      6.2961                 6.4457                 6.5145
 IR Inten    --     16.7938                 9.5618                21.1346

 - Thermochemistry -
 -------------------
 Temperature   298.150 Kelvin.  Pressure   1.00000 Atm.
 Atom     1 has atomic number  6 and mass  12.00000

 Molecular mass:   126.06808 amu.
 Principal axes and moments of inertia in atomic units:
                           1         2         3
     Eigenvalues --   348.132291942.059212120.38008
           X            0.99998   0.00622   0.00017
           Y           -0.00622   0.99998  -0.00220
           Z           -0.00018   0.00220   1.00000
 This molecule is an asymmetric top.
 Rotational symmetry number  1.
 Rotational temperatures (Kelvin)      0.24880     0.04460     0.04085
 Rotational constants (GHZ):           5.18407     0.92929     0.85114
 Zero-point vibrational energy     415466.8 (Joules/Mol)
                                   99.29895 (Kcal/Mol)
 Warning -- explicit consideration of  10 degrees of freedom as
           vibrations may cause significant error
 Vibrational temperatures:     57.47   139.13   232.81   289.20   344.35
          (Kelvin)            372.48   464.16   503.09   670.12   805.10
                             1001.70  1005.29  1163.49  1180.80  1206.61
                             1252.32  1330.40  1431.96  1446.74  1458.53
                             1493.71  1546.51  1587.77  1601.02  1612.67
                             1636.96  1677.66  1718.36  1758.42  1846.26
                             1864.67  1898.37  1927.73  1951.65  2020.77
                             2040.45  2077.21  2149.35  2158.12  2163.02
                             2641.55  4178.18  4261.89  4355.32  4406.40
                             4446.40  4451.81  4466.53  4506.71  4561.26
                             4575.75

 Zero-point correction=                           0.158243 (Hartree/Particle)
 Thermal correction to Energy=                    0.166973
 Thermal correction to Enthalpy=                  0.167918
 Thermal correction to Gibbs Free Energy=         0.124073
 Sum of electronic and zero-point Energies=           -423.024591
 Sum of electronic and thermal Energies=              -423.015861
 Sum of electronic and thermal Enthalpies=            -423.014917
 Sum of electronic and thermal Free Energies=         -423.058762

                     E (Thermal)             CV                S
                      KCal/Mol        Cal/Mol-Kelvin    Cal/Mol-Kelvin
 Total                  104.777             32.004             92.279
 Electronic               0.000              0.000              0.000
 Translational            0.889              2.981             40.409
 Rotational               0.889              2.981             28.751
 Vibrational            103.000             26.042             23.119
 Vibration     1          0.594              1.981              5.262
 Vibration     2          0.603              1.952              3.520
 Vibration     3          0.622              1.889              2.529
 Vibration     4          0.638              1.838              2.124
 Vibration     5          0.657              1.780              1.808
 Vibration     6          0.668              1.748              1.669
 Vibration     7          0.708              1.630              1.297
 Vibration     8          0.727              1.576              1.168
 Vibration     9          0.823              1.326              0.750
 Vibration    10          0.915              1.119              0.525

 Optimization completed.
    -- Stationary point found.
 Normal termination of Gaussian 09 at Mon Jan 27 23:35:55 2020.
