 Gaussian 09, Revision D.01,
 Gaussian 09:  ES64L-G09RevD.01 24-Apr-2013

 -----------------------------
 # b3lyp 6-31G(2df,p) opt Freq
 -----------------------------

 -----
 titel
 -----
 Symbolic Z-matrix:
 Charge =  0 Multiplicity = 1

 SCF Done:  E(RB3LYP) =  -423.135526645     A.U. after   14 cycles
 Optimization completed.
    -- Stationary point found.
 Normal termination of Gaussian 09 at Mon Jan 27 11:13:32 2020.

 ----------------------------------------------------------------------
 #N Geom=AllCheck Guess=TCheck SCRF=Check GenChk RB3LYP/6-31G(2df,p) Fr
 eq
 ----------------------------------------------------------------------

 Structure from the checkpoint file:  "/scratch/puck/g09_a344d00a-9e9a-41b5-8948-b3703256fd05/Gau-15737.chk"
 -----
 titel
 -----
 Charge =  0 Multiplicity = 1

                         Standard orientation:
 ---------------------------------------------------------------------
 Center     Atomic      Atomic             Coordinates (Angstroms)
 Number     Number       Type             X           Y           Z
 ---------------------------------------------------------------------
      1          6           0        3.985412   -0.204680   -0.693352
      2          6           0        2.961383    0.043141   -0.117592
      3          6           0        1.736111    0.365800    0.601913
      4          8           0        0.646774   -0.333892    0.029948
      5          6           0       -0.583151   -0.136503    0.716184
      6          6           0       -1.291610    1.177856    0.322712
      7          6           0       -2.188863    0.717666   -0.829487
      8          8           0       -2.652172   -0.561058   -0.419758
      9          6           0       -1.567462   -1.222612    0.217538
     10          1           0        4.887904   -0.429406   -1.205990
     11          1           0        1.847164    0.094054    1.665852
     12          1           0        1.572273    1.455323    0.572831
     13          1           0       -0.407936   -0.202215    1.798923
     14          1           0       -1.905197    1.537614    1.154627
     15          1           0       -0.587728    1.965998    0.045572
     16          1           0       -3.061313    1.352759   -1.001294
     17          1           0       -1.611586    0.649173   -1.765336
     18          1           0       -1.975545   -1.833824    1.027599
     19          1           0       -1.025773   -1.873891   -0.481797
 ---------------------------------------------------------------------

 SCF Done:  E(RB3LYP) =  -423.135526645     A.U. after    1 cycles

 The electronic state is 1-A.
 Alpha  occ. eigenvalues --  -19.15129 -19.13439 -10.25944 -10.24104 -10.22547
 Alpha  occ. eigenvalues --  -10.22362 -10.18739 -10.18677 -10.18024  -1.04926
 Alpha  occ. eigenvalues --   -1.02864  -0.79471  -0.75989  -0.73464  -0.68836
 Alpha  occ. eigenvalues --   -0.60326  -0.58980  -0.53812  -0.52007  -0.50473
 Alpha  occ. eigenvalues --   -0.47800  -0.46879  -0.45738  -0.44084  -0.40336
 Alpha  occ. eigenvalues --   -0.38139  -0.36906  -0.36215  -0.33232  -0.31169
 Alpha  occ. eigenvalues --   -0.27952  -0.27815  -0.25910  -0.25030
 Alpha virt. eigenvalues --    0.02981   0.05077   0.08392   0.10444   0.11160
 Alpha virt. eigenvalues --    0.12491   0.13805   0.14722   0.15025   0.16426
 Alpha virt. eigenvalues --    0.17073   0.18052   0.18917   0.19622   0.21346

 Mulliken charges:
               1
     1  C   -0.416182
     2  C    0.284377
     3  C   -0.218866
     4  O   -0.262714
     5  C    0.117027
     6  C   -0.239749
     7  C   -0.074936
     8  O   -0.249726
     9  C   -0.094055
    10  H    0.201810
    11  H    0.119672
    12  H    0.120223
    13  H    0.070364
    14  H    0.108282
    15  H    0.106252
    16  H    0.108669
    17  H    0.099646
    18  H    0.106221
    19  H    0.113687
 Sum of Mulliken charges =   0.00000

 Dipole moment (field-independent basis, Debye):
    X=              0.8568    Y=              1.3390    Z=              1.2618  Tot=              2.0296
 Quadrupole moment (field-independent basis, Debye-Ang):
   XX=            -54.4903   YY=            -52.1438   ZZ=            -51.2688
   XY=             -2.6250   XZ=             -2.5519   YZ=             -0.7036

  Exact polarizability: 100.592  -4.776  66.618  -8.847   0.064  67.141
 Approx polarizability: 132.566  -7.801  96.153 -18.806   2.934 102.265

                      1                      2                      3
                      A                      A                      A
 Frequencies --     33.9863                57.9164               119.1697
 Red. masses --      3.5025                 3.2994                 3.5055
 Frc consts  --      0.0024                 0.0065                 0.0293
 IR Inten    --      0.9389                 1.1098                 0.6234

                      4                      5                      6
                      A                      A                      A
 Frequencies --    140.7045               235.8490               272.2568
 Red. masses --      3.1406                 2.4542                 3.4476
 Frc consts  --      0.0366                 0.0804                 0.1506
 IR Inten    --      4.0664                 5.5735                 1.4448

                      7                      8                      9
                      A                      A                      A
 Frequencies --    332.2653               359.9623               439.5764
 Red. masses --      3.4200                 3.7653                 2.9086
 Frc consts  --      0.2225                 0.2874                 0.3311
 IR Inten    --      2.3526                 0.3476                 3.6373

                     10                     11                     12
                      A                      A                      A
 Frequencies --    539.9243               610.7079               643.4011
 Red. masses --      4.0724                 1.1952                 2.5402
 Frc consts  --      0.6995                 0.2626                 0.6196
 IR Inten    --      0.3331                43.7614                 4.0556

                     13                     14                     15
                      A                      A                      A
 Frequencies --    676.6506               719.5312               844.4538
 Red. masses --      1.2417                 3.8279                 2.6565
 Frc consts  --      0.3350                 1.1676                 1.1161
 IR Inten    --     35.6563                 3.4542                 6.7579

                     16                     17                     18
                      A                      A                      A
 Frequencies --    881.6810               928.8325               948.4835
 Red. masses --      2.3542                 2.1770                 3.1604
 Frc consts  --      1.0783                 1.1066                 1.6752
 IR Inten    --      1.5161                 3.7861                22.3920

                     19                     20                     21
                      A                      A                      A
 Frequencies --    964.7315               989.7376              1008.1090
 Red. masses --      3.8116                 2.9959                 1.6155
 Frc consts  --      2.0901                 1.7291                 0.9673
 IR Inten    --     23.7465                 6.2158                11.1333

                     22                     23                     24
                      A                      A                      A
 Frequencies --   1033.0852              1080.6130              1102.7372
 Red. masses --      1.6534                 2.3381                 5.4095
 Frc consts  --      1.0397                 1.6086                 3.8757
 IR Inten    --      4.6854                 8.9193               123.7049

                     25                     26                     27
                      A                      A                      A
 Frequencies --   1121.6780              1149.1089              1201.8634
 Red. masses --      6.1993                 2.4622                 1.3389
 Frc consts  --      4.5955                 1.9156                 1.1395
 IR Inten    --    105.4325                78.1829                28.0187

                     28                     29                     30
                      A                      A                      A
 Frequencies --   1233.9206              1254.5448              1260.3244
 Red. masses --      1.2396                 1.0872                 1.2923
 Frc consts  --      1.1120                 1.0081                 1.2094
 IR Inten    --     10.9495                 4.9450                16.6476

                     31                     32                     33
                      A                      A                      A
 Frequencies --   1295.7195              1325.1290              1352.8560
 Red. masses --      1.3034                 1.3454                 1.2118
 Frc consts  --      1.2893                 1.3919                 1.3067
 IR Inten    --      2.8056                 0.7134                33.4960

                     34                     35                     36
                      A                      A                      A
 Frequencies --   1368.1598              1400.2933              1432.4943
 Red. masses --      1.2739                 1.3547                 1.4001
 Frc consts  --      1.4050                 1.5651                 1.6928
 IR Inten    --     38.1542                15.1696                14.8407

                     37                     38                     39
                      A                      A                      A
 Frequencies --   1471.8967              1502.0012              1504.0441
 Red. masses --      1.1061                 1.0775                 1.0790
 Frc consts  --      1.4119                 1.4322                 1.4381
 IR Inten    --      3.9094                 2.4581                 0.9666

                     40                     41                     42
                      A                      A                      A
 Frequencies --   1518.9608              2248.8229              2956.1212
 Red. masses --      1.1004                 5.8919                 1.0596
 Frc consts  --      1.4959                17.5557                 5.4554
 IR Inten    --      2.3714                 2.0431                30.1680

                     43                     44                     45
                      A                      A                      A
 Frequencies --   2981.0373              2981.1621              3003.4998
 Red. masses --      1.0874                 1.0796                 1.0846
 Frc consts  --      5.6933                 5.6530                 5.7646
 IR Inten    --     73.6485                18.8366                28.9119

                     46                     47                     48
                      A                      A                      A
 Frequencies --   3016.6587              3059.3793              3085.4982
 Red. masses --      1.0648                 1.0633                 1.1001
 Frc consts  --      5.7089                 5.8636                 6.1704
 IR Inten    --     39.8981                20.7416                38.4678

                     49                     50                     51
                      A                      A                      A
 Frequencies --   3099.1007              3116.1575              3506.1045
 Red. masses --      1.0928                 1.1035                 1.1640
 Frc consts  --      6.1837                 6.3134                 8.4306
 IR Inten    --     31.5811                30.4733                62.7191

 - Thermochemistry -
 -------------------
 Temperature   298.150 Kelvin.  Pressure   1.00000 Atm.
 Atom     1 has atomic number  6 and mass  12.00000

 Molecular mass:   126.06808 amu.
 Principal axes and moments of inertia in atomic units:
                           1         2         3
     Eigenvalues --   398.798642347.845432432.67406
           X            0.99998  -0.00606  -0.00082
           Y            0.00604   0.99982  -0.01796
           Z            0.00093   0.01795   0.99984
 This molecule is an asymmetric top.
 Rotational symmetry number  1.
 Rotational temperatures (Kelvin)      0.21719     0.03689     0.03560
 Rotational constants (GHZ):           4.52544     0.76868     0.74188
 Zero-point vibrational energy     415169.4 (Joules/Mol)
                                   99.22787 (Kcal/Mol)
 Warning -- explicit consideration of  11 degrees of freedom as
           vibrations may cause significant error
 Vibrational temperatures:     48.90    83.33   171.46   202.44   339.33
          (Kelvin)            391.72   478.06   517.90   632.45   776.83
                              878.67   925.71   973.55  1035.24  1214.98
                             1268.54  1336.38  1364.65  1388.03  1424.01
                             1450.44  1486.38  1554.76  1586.59  1613.84
                             1653.31  1729.21  1775.33  1805.01  1813.32
                             1864.25  1906.56  1946.46  1968.47  2014.71
                             2061.04  2117.73  2161.04  2163.98  2185.44
                             3235.55  4253.19  4289.04  4289.22  4321.36
                             4340.29  4401.76  4439.34  4458.91  4483.45
                             5044.50

 Zero-point correction=                           0.158130 (Hartree/Particle)
 Thermal correction to Energy=                    0.167282
 Thermal correction to Enthalpy=                  0.168227
 Thermal correction to Gibbs Free Energy=         0.122735
 Sum of electronic and zero-point Energies=           -422.977397
 Sum of electronic and thermal Energies=              -422.968244
 Sum of electronic and thermal Enthalpies=            -422.967300
 Sum of electronic and thermal Free Energies=         -423.012792

                     E (Thermal)             CV                S
                      KCal/Mol        Cal/Mol-Kelvin    Cal/Mol-Kelvin
 Total                  104.971             32.966             95.746
 Electronic               0.000              0.000              0.000
 Translational            0.889              2.981             40.409
 Rotational               0.889              2.981             29.212
 Vibrational            103.194             27.005             26.126
 Vibration     1          0.594              1.983              5.582
 Vibration     2          0.596              1.974              4.527
 Vibration     3          0.609              1.933              3.114
 Vibration     4          0.615              1.913              2.794
 Vibration     5          0.655              1.786              1.834
 Vibration     6          0.675              1.724              1.582
 Vibration     7          0.714              1.611              1.249
 Vibration     8          0.734              1.555              1.122
 Vibration     9          0.800              1.384              0.828
 Vibration    10          0.895              1.162              0.565
 Vibration    11          0.970              1.009              0.432

 Optimization completed.
    -- Stationary point found.
 Normal termination of Gaussian 09 at Mon Jan 27 11:54:31 2020.
