 Gaussian 09, Revision D.01,
 Gaussian 09:  ES64L-G09RevD.01 24-Apr-2013

 -----------------------------
 # b3lyp 6-31G(2df,p) opt Freq
 -----------------------------

 -----
 titel
 -----
 Symbolic Z-matrix:
 Charge =  0 Multiplicity = 1

 SCF Done:  E(RB3LYP) =  -423.111171186     A.U. after   13 cycles
 Optimization completed.
    -- Stationary point found.
 Normal termination of Gaussian 09 at Tue Jan 28 02:55:05 2020.

 ----------------------------------------------------------------------
 #N Geom=AllCheck Guess=TCheck SCRF=Check GenChk RB3LYP/6-31G(2df,p) Fr
 eq
 ----------------------------------------------------------------------

 Structure from the checkpoint file:  "/scratch/puck/g09_59810395-4b64-4bbb-8abc-81991ca79bc6/Gau-65433.chk"
 -----
 titel
 -----
 Charge =  0 Multiplicity = 1

                         Standard orientation:
 ---------------------------------------------------------------------
 Center     Atomic      Atomic             Coordinates (Angstroms)
 Number     Number       Type             X           Y           Z
 ---------------------------------------------------------------------
      1          6           0        2.690646   -0.114252    0.473663
      2          6           0        1.519504   -0.015277   -0.473295
      3          8           0        0.759641    1.179144   -0.193271
      4          6           0       -0.553296    0.811146   -0.586275
      5          6           0       -1.854355    0.714676    0.283452
      6          6           0       -2.097735   -0.650829   -0.498536
      7          6           0       -0.598176   -0.605760   -0.086670
      8          6           0       -1.052573   -0.097000    1.321975
      9          8           0        0.640305   -1.182157   -0.342882
     10          1           0        3.268594   -1.015600    0.254636
     11          1           0        3.338891    0.758126    0.353886
     12          1           0        2.337943   -0.159104    1.506670
     13          1           0        1.846145    0.006234   -1.523810
     14          1           0       -0.712835    0.991690   -1.655924
     15          1           0       -2.605140    1.480031    0.467216
     16          1           0       -2.741753   -1.369582    0.011006
     17          1           0       -2.325405   -0.576513   -1.564526
     18          1           0       -1.621322   -0.798419    1.935879
     19          1           0       -0.308767    0.451026    1.898300
 ---------------------------------------------------------------------

 SCF Done:  E(RB3LYP) =  -423.111171186     A.U. after    1 cycles

 The electronic state is 1-A.
 Alpha  occ. eigenvalues --  -19.15035 -19.14881 -10.28285 -10.24282 -10.22867
 Alpha  occ. eigenvalues --  -10.21532 -10.20400 -10.18249 -10.17965  -1.08474
 Alpha  occ. eigenvalues --   -0.99479  -0.91154  -0.75715  -0.67745  -0.65698
 Alpha  occ. eigenvalues --   -0.62920  -0.59383  -0.55155  -0.51741  -0.49598
 Alpha  occ. eigenvalues --   -0.47034  -0.45552  -0.43127  -0.40603  -0.38670
 Alpha  occ. eigenvalues --   -0.38188  -0.36580  -0.35100  -0.34663  -0.33651
 Alpha  occ. eigenvalues --   -0.32875  -0.27790  -0.27282  -0.24771
 Alpha virt. eigenvalues --    0.07922   0.10632   0.11053   0.11742   0.12409
 Alpha virt. eigenvalues --    0.14050   0.14176   0.15204   0.16391   0.16649
 Alpha virt. eigenvalues --    0.17477   0.18033   0.19409   0.20441   0.22451

 Mulliken charges:
               1
     1  C   -0.397784
     2  C    0.198176
     3  O   -0.301267
     4  C    0.097823
     5  C   -0.125941
     6  C   -0.305219
     7  C    0.413128
     8  C   -0.282124
     9  O   -0.347308
    10  H    0.130879
    11  H    0.130007
    12  H    0.132540
    13  H    0.084878
    14  H    0.070542
    15  H    0.088399
    16  H    0.107806
    17  H    0.105060
    18  H    0.090543
    19  H    0.109860
 Sum of Mulliken charges =   0.00000

 Dipole moment (field-independent basis, Debye):
    X=             -0.5577    Y=              0.1282    Z=             -0.1676  Tot=              0.5962
 Quadrupole moment (field-independent basis, Debye-Ang):
   XX=            -48.0567   YY=            -57.4439   ZZ=            -51.8132
   XY=             -0.1610   XZ=             -0.0137   YZ=             -0.8423

  Exact polarizability:  92.797   1.209  62.983  -0.098  -1.201  70.633
 Approx polarizability: 121.304   0.763 103.500  -1.201  -0.512 105.566

                      1                      2                      3
                      A                      A                      A
 Frequencies --     77.7375               214.8980               259.0156
 Red. masses --      3.4508                 1.0325                 2.6604
 Frc consts  --      0.0123                 0.0281                 0.1052
 IR Inten    --      2.2773                 0.2018                 1.6550

                      4                      5                      6
                      A                      A                      A
 Frequencies --    342.9530               397.4939               454.2115
 Red. masses --      4.3329                 3.8885                 3.0981
 Frc consts  --      0.3003                 0.3620                 0.3766
 IR Inten    --      4.8723                 1.3654                 2.8593

                      7                      8                      9
                      A                      A                      A
 Frequencies --    457.3627               534.8262               581.9744
 Red. masses --      3.1540                 2.1220                 3.1439
 Frc consts  --      0.3887                 0.3576                 0.6274
 IR Inten    --      2.9551                 3.8743                 9.0379

                     10                     11                     12
                      A                      A                      A
 Frequencies --    703.7810               741.7569               761.3832
 Red. masses --      6.4885                 4.1800                 3.0756
 Frc consts  --      1.8935                 1.3550                 1.0505
 IR Inten    --      2.0242                 7.3908                 1.3420

                     13                     14                     15
                      A                      A                      A
 Frequencies --    794.4207               826.5760               858.9143
 Red. masses --      3.9646                 3.1026                 2.8955
 Frc consts  --      1.4742                 1.2489                 1.2586
 IR Inten    --     42.6051                 6.5264                20.2016

                     16                     17                     18
                      A                      A                      A
 Frequencies --    903.9829               933.1492               956.9946
 Red. masses --      2.2288                 2.0778                 1.8298
 Frc consts  --      1.0731                 1.0660                 0.9873
 IR Inten    --      1.9894                20.0183                 4.6837

                     19                     20                     21
                      A                      A                      A
 Frequencies --    988.4866              1007.4934              1042.8075
 Red. masses --      1.3336                 1.8892                 1.8311
 Frc consts  --      0.7678                 1.1298                 1.1732
 IR Inten    --     13.8446                 2.0782                 9.7024

                     22                     23                     24
                      A                      A                      A
 Frequencies --   1062.5291              1083.4710              1095.4566
 Red. masses --      1.7214                 1.5114                 2.4541
 Frc consts  --      1.1450                 1.0454                 1.7351
 IR Inten    --      2.2265                 0.0219               119.7846

                     25                     26                     27
                      A                      A                      A
 Frequencies --   1114.6273              1127.1114              1150.0906
 Red. masses --      2.0991                 1.6651                 2.1514
 Frc consts  --      1.5365                 1.2463                 1.6766
 IR Inten    --     25.3704                10.2589                23.7277

                     28                     29                     30
                      A                      A                      A
 Frequencies --   1160.7826              1176.0019              1201.1798
 Red. masses --      1.7700                 1.4985                 1.8896
 Frc consts  --      1.4052                 1.2210                 1.6063
 IR Inten    --      4.1743                 1.9383                11.7330

                     31                     32                     33
                      A                      A                      A
 Frequencies --   1225.2023              1250.6189              1272.0264
 Red. masses --      1.8577                 2.5927                 2.1531
 Frc consts  --      1.6430                 2.3892                 2.0527
 IR Inten    --      9.0465                 9.4423               143.8261

                     34                     35                     36
                      A                      A                      A
 Frequencies --   1363.0158              1380.0730              1401.1020
 Red. masses --      1.4640                 1.2228                 1.2474
 Frc consts  --      1.6024                 1.3722                 1.4428
 IR Inten    --     80.2711                18.3626                18.6499

                     37                     38                     39
                      A                      A                      A
 Frequencies --   1425.4018              1483.1354              1483.6841
 Red. masses --      1.4889                 1.0548                 1.0533
 Frc consts  --      1.7824                 1.3670                 1.3661
 IR Inten    --     24.1822                 2.6484                 2.5236

                     40                     41                     42
                      A                      A                      A
 Frequencies --   1489.4522              1531.7402              2991.1804
 Red. masses --      1.0969                 1.1930                 1.0853
 Frc consts  --      1.4338                 1.6492                 5.7213
 IR Inten    --      2.7455                15.3099                65.9494

                     43                     44                     45
                      A                      A                      A
 Frequencies --   3035.6766              3053.0310              3066.9077
 Red. masses --      1.0841                 1.0345                 1.0546
 Frc consts  --      5.8864                 5.6813                 5.8444
 IR Inten    --     52.3759                 8.1742                44.6068

                     46                     47                     48
                      A                      A                      A
 Frequencies --   3077.2356              3131.2199              3138.5952
 Red. masses --      1.0572                 1.1018                 1.1031
 Frc consts  --      5.8984                 6.3645                 6.4022
 IR Inten    --     25.5689                11.6346                16.9001

                     49                     50                     51
                      A                      A                      A
 Frequencies --   3139.5080              3142.0298              3157.2406
 Red. masses --      1.1114                 1.0937                 1.1085
 Frc consts  --      6.4541                 6.3617                 6.5101
 IR Inten    --     29.9376                40.1797                19.7109

 - Thermochemistry -
 -------------------
 Temperature   298.150 Kelvin.  Pressure   1.00000 Atm.
 Atom     1 has atomic number  6 and mass  12.00000

 Molecular mass:   126.06808 amu.
 Principal axes and moments of inertia in atomic units:
                           1         2         3
     Eigenvalues --   467.490091265.491371343.18648
           X            0.99994   0.00291   0.01031
           Y           -0.00244   0.99898  -0.04516
           Z           -0.01043   0.04513   0.99893
 This molecule is an asymmetric top.
 Rotational symmetry number  1.
 Warning -- assumption of classical behavior for rotation
           may cause significant error
 Rotational temperatures (Kelvin)      0.18527     0.06844     0.06448
 Rotational constants (GHZ):           3.86049     1.42612     1.34363
 Zero-point vibrational energy     420185.6 (Joules/Mol)
                                  100.42677 (Kcal/Mol)
 Warning -- explicit consideration of   9 degrees of freedom as
           vibrations may cause significant error
 Vibrational temperatures:    111.85   309.19   372.67   493.43   571.90
          (Kelvin)            653.51   658.04   769.49   837.33  1012.58
                             1067.22  1095.46  1142.99  1189.26  1235.78
                             1300.63  1342.59  1376.90  1422.21  1449.56
                             1500.37  1528.74  1558.87  1576.12  1603.70
                             1621.66  1654.72  1670.11  1692.00  1728.23
                             1762.79  1799.36  1830.16  1961.07  1985.61
                             2015.87  2050.83  2133.90  2134.69  2142.99
                             2203.83  4303.64  4367.66  4392.63  4412.59
                             4427.45  4505.12  4515.73  4517.05  4520.67
                             4542.56

 Zero-point correction=                           0.160040 (Hartree/Particle)
 Thermal correction to Energy=                    0.167288
 Thermal correction to Enthalpy=                  0.168232
 Thermal correction to Gibbs Free Energy=         0.128459
 Sum of electronic and zero-point Energies=           -422.951131
 Sum of electronic and thermal Energies=              -422.943883
 Sum of electronic and thermal Enthalpies=            -422.942939
 Sum of electronic and thermal Free Energies=         -422.982712

                     E (Thermal)             CV                S
                      KCal/Mol        Cal/Mol-Kelvin    Cal/Mol-Kelvin
 Total                  104.975             29.662             83.709
 Electronic               0.000              0.000              0.000
 Translational            0.889              2.981             40.409
 Rotational               0.889              2.981             28.165
 Vibrational            103.197             23.700             15.135
 Vibration     1          0.599              1.964              3.947
 Vibration     2          0.645              1.818              2.002
 Vibration     3          0.668              1.748              1.668
 Vibration     4          0.722              1.590              1.198
 Vibration     5          0.764              1.476              0.972
 Vibration     6          0.813              1.352              0.783
 Vibration     7          0.815              1.345              0.774
 Vibration     8          0.890              1.173              0.577
 Vibration     9          0.939              1.070              0.482

 Normal termination of Gaussian 09 at Tue Jan 28 03:50:48 2020.
