 Gaussian 09, Revision D.01,
 Gaussian 09:  ES64L-G09RevD.01 24-Apr-2013

 -----------------------------
 # b3lyp 6-31G(2df,p) opt Freq
 -----------------------------

 -----
 titel
 -----
 Symbolic Z-matrix:
 Charge =  0 Multiplicity = 1

 SCF Done:  E(RB3LYP) =  -423.209303595     A.U. after   14 cycles
 Optimization completed.
    -- Stationary point found.
 Normal termination of Gaussian 09 at Tue Jan 28 11:45:19 2020.

 ----------------------------------------------------------------------
 #N Geom=AllCheck Guess=TCheck SCRF=Check GenChk RB3LYP/6-31G(2df,p) Fr
 eq
 ----------------------------------------------------------------------

 Structure from the checkpoint file:  "/scratch/puck/g09_e6b0bb66-0635-482c-bc75-6946bf2d90c5/Gau-89521.chk"
 -----
 titel
 -----
 Charge =  0 Multiplicity = 1

                         Standard orientation:
 ---------------------------------------------------------------------
 Center     Atomic      Atomic             Coordinates (Angstroms)
 Number     Number       Type             X           Y           Z
 ---------------------------------------------------------------------
      1          8           0       -2.550095   -1.456512   -0.118052
      2          6           0       -2.097475   -0.177658   -0.530623
      3          6           0       -1.175256    0.376111    0.554647
      4          6           0       -0.648664    1.785094    0.153888
      5          6           0        0.761223    1.524088   -0.300029
      6          6           0        1.168540    0.282712    0.002067
      7          6           0        0.096337   -0.504130    0.718785
      8          6           0        2.502874   -0.237925   -0.302429
      9          8           0        2.884203   -1.352112   -0.017197
     10          1           0       -3.033833   -1.857926   -0.845380
     11          1           0       -1.546365   -0.235205   -1.484226
     12          1           0       -2.942590    0.514010   -0.679258
     13          1           0       -1.749984    0.414161    1.483772
     14          1           0       -1.259284    2.258755   -0.625894
     15          1           0       -0.653684    2.484048    1.001557
     16          1           0        1.374949    2.272302   -0.792402
     17          1           0       -0.043924   -1.506867    0.307100
     18          1           0        0.367180   -0.643760    1.772065
     19          1           0        3.169193    0.479719   -0.833189
 ---------------------------------------------------------------------

 SCF Done:  E(RB3LYP) =  -423.209303595     A.U. after    1 cycles

 The electronic state is 1-A.
 Alpha  occ. eigenvalues --  -19.13895 -19.12793 -10.26096 -10.23120 -10.20668
 Alpha  occ. eigenvalues --  -10.19895 -10.19365 -10.19284 -10.18180  -1.03286
 Alpha  occ. eigenvalues --   -1.02035  -0.85964  -0.75853  -0.72032  -0.67090
 Alpha  occ. eigenvalues --   -0.60934  -0.56749  -0.53697  -0.51159  -0.49504
 Alpha  occ. eigenvalues --   -0.47578  -0.44170  -0.43843  -0.40383  -0.39275
 Alpha  occ. eigenvalues --   -0.38764  -0.36883  -0.36499  -0.35059  -0.34094
 Alpha  occ. eigenvalues --   -0.32563  -0.27388  -0.25646  -0.24626
 Alpha virt. eigenvalues --   -0.05214   0.06682   0.07454   0.09182   0.11877
 Alpha virt. eigenvalues --    0.12250   0.14355   0.15000   0.15378   0.15831
 Alpha virt. eigenvalues --    0.17641   0.18745   0.19512   0.21193   0.22349

 Mulliken charges:
               1
     1  O   -0.417981
     2  C   -0.078833
     3  C    0.007350
     4  C   -0.288531
     5  C   -0.145763
     6  C    0.254695
     7  C   -0.323288
     8  C    0.063659
     9  O   -0.269566
    10  H    0.288932
    11  H    0.088168
    12  H    0.085494
    13  H    0.084968
    14  H    0.109661
    15  H    0.120934
    16  H    0.106870
    17  H    0.134843
    18  H    0.115431
    19  H    0.062957
 Sum of Mulliken charges =   0.00000

 Dipole moment (field-independent basis, Debye):
    X=             -2.4546    Y=              2.9646    Z=             -1.4280  Tot=              4.1052
 Quadrupole moment (field-independent basis, Debye-Ang):
   XX=            -57.0404   YY=            -53.9157   ZZ=            -50.8095
   XY=              6.8639   XZ=              2.8970   YZ=              2.2109

  Exact polarizability:  91.853  -9.359  88.778  -2.402  -5.176  60.127
 Approx polarizability: 120.628 -26.570 153.477  -0.739 -13.528  93.608

                      1                      2                      3
                      A                      A                      A
 Frequencies --     56.9702               106.0845               128.6218
 Red. masses --      3.6106                 4.0663                 3.0541
 Frc consts  --      0.0069                 0.0270                 0.0298
 IR Inten    --      0.8929                 3.0527                 4.2940

                      4                      5                      6
                      A                      A                      A
 Frequencies --    186.6709               243.2558               248.0990
 Red. masses --      4.0212                 1.5433                 1.8071
 Frc consts  --      0.0826                 0.0538                 0.0655
 IR Inten    --     13.4863                34.7171                65.4694

                      7                      8                      9
                      A                      A                      A
 Frequencies --    290.1224               354.3232               431.6724
 Red. masses --      2.1683                 2.2464                 2.3470
 Frc consts  --      0.1075                 0.1662                 0.2577
 IR Inten    --      5.2458                 1.0218                 4.5261

                     10                     11                     12
                      A                      A                      A
 Frequencies --    464.3005               490.1040               701.6849
 Red. masses --      2.7645                 4.9078                 4.4869
 Frc consts  --      0.3511                 0.6946                 1.3016
 IR Inten    --      6.1456                 0.0655                11.7006

                     13                     14                     15
                      A                      A                      A
 Frequencies --    750.8315               800.7042               855.4796
 Red. masses --      4.0554                 1.6910                 1.9068
 Frc consts  --      1.3470                 0.6388                 0.8222
 IR Inten    --      7.8661                16.2337                 6.8627

                     16                     17                     18
                      A                      A                      A
 Frequencies --    875.5413               915.1542               923.3633
 Red. masses --      3.0566                 1.6872                 1.7442
 Frc consts  --      1.3805                 0.8325                 0.8762
 IR Inten    --      2.4425                 1.3520                 5.2523

                     19                     20                     21
                      A                      A                      A
 Frequencies --    972.4330              1017.1351              1035.3590
 Red. masses --      2.0464                 1.8250                 1.6573
 Frc consts  --      1.1401                 1.1124                 1.0467
 IR Inten    --     17.1829                 1.7619                 0.8400

                     22                     23                     24
                      A                      A                      A
 Frequencies --   1066.6751              1078.3278              1103.2776
 Red. masses --      2.0221                 3.0215                 2.3924
 Frc consts  --      1.3556                 2.0700                 1.7157
 IR Inten    --     26.5068                28.1339                32.7495

                     25                     26                     27
                      A                      A                      A
 Frequencies --   1168.3778              1171.9420              1199.2831
 Red. masses --      1.1960                 1.2850                 1.4283
 Frc consts  --      0.9619                 1.0399                 1.2104
 IR Inten    --     10.9838                34.5285                 8.5258

                     28                     29                     30
                      A                      A                      A
 Frequencies --   1249.9280              1274.2203              1281.4100
 Red. masses --      1.2404                 1.3727                 1.3004
 Frc consts  --      1.1417                 1.3131                 1.2580
 IR Inten    --     11.3300                20.8177                 6.4254

                     31                     32                     33
                      A                      A                      A
 Frequencies --   1293.3027              1322.3499              1361.1258
 Red. masses --      1.6514                 1.5363                 1.6789
 Frc consts  --      1.6275                 1.5828                 1.8326
 IR Inten    --     25.8270                 5.0034                 2.8486

                     34                     35                     36
                      A                      A                      A
 Frequencies --   1377.4920              1422.0834              1455.1816
 Red. masses --      2.1384                 1.2268                 1.4538
 Frc consts  --      2.3907                 1.4618                 1.8138
 IR Inten    --     15.5796                 1.7036                 4.2221

                     37                     38                     39
                      A                      A                      A
 Frequencies --   1474.5857              1491.7453              1519.7892
 Red. masses --      1.0860                 1.0933                 1.0839
 Frc consts  --      1.3914                 1.4334                 1.4751
 IR Inten    --      6.5521                 2.2176                 4.6309

                     40                     41                     42
                      A                      A                      A
 Frequencies --   1683.1374              1784.6206              2869.8900
 Red. masses --      6.7070                10.3181                 1.0822
 Frc consts  --     11.1948                19.3617                 5.2515
 IR Inten    --     35.3384               246.5582               126.7918

                     43                     44                     45
                      A                      A                      A
 Frequencies --   2957.4380              2987.3143              3012.6898
 Red. masses --      1.0542                 1.1061                 1.0616
 Frc consts  --      5.4326                 5.8156                 5.6768
 IR Inten    --     47.1420                50.1006                28.1482

                     46                     47                     48
                      A                      A                      A
 Frequencies --   3038.5888              3041.0732              3077.2564
 Red. masses --      1.0924                 1.0772                 1.0853
 Frc consts  --      5.9425                 5.8693                 6.0554
 IR Inten    --     32.9501                 2.5829                36.9517

                     49                     50                     51
                      A                      A                      A
 Frequencies --   3098.8899              3184.2644              3835.2138
 Red. masses --      1.0931                 1.0930                 1.0665
 Frc consts  --      6.1848                 6.5297                 9.2422
 IR Inten    --      7.0624                11.0089                26.2702

 - Thermochemistry -
 -------------------
 Temperature   298.150 Kelvin.  Pressure   1.00000 Atm.
 Atom     1 has atomic number  8 and mass  15.99491

 Molecular mass:   126.06808 amu.
 Principal axes and moments of inertia in atomic units:
                           1         2         3
     Eigenvalues --   667.513771696.654612167.24709
           X            0.99992   0.01228   0.00313
           Y           -0.01227   0.99992  -0.00418
           Z           -0.00318   0.00414   0.99999
 This molecule is an asymmetric top.
 Rotational symmetry number  1.
 Warning -- assumption of classical behavior for rotation
           may cause significant error
 Rotational temperatures (Kelvin)      0.12976     0.05105     0.03996
 Rotational constants (GHZ):           2.70368     1.06371     0.83273
 Zero-point vibrational energy     417074.3 (Joules/Mol)
                                   99.68316 (Kcal/Mol)
 Warning -- explicit consideration of  11 degrees of freedom as
           vibrations may cause significant error
 Vibrational temperatures:     81.97   152.63   185.06   268.58   349.99
          (Kelvin)            356.96   417.42   509.79   621.08   668.02
                              705.15  1009.57  1080.28  1152.03  1230.84
                             1259.71  1316.70  1328.51  1399.11  1463.43
                             1489.65  1534.71  1551.47  1587.37  1681.03
                             1686.16  1725.50  1798.37  1833.32  1843.66
                             1860.77  1902.56  1958.35  1981.90  2046.06
                             2093.68  2121.60  2146.29  2186.63  2421.66
                             2567.67  4129.13  4255.09  4298.07  4334.58
                             4371.85  4375.42  4427.48  4458.61  4581.44
                             5518.01

 Zero-point correction=                           0.158855 (Hartree/Particle)
 Thermal correction to Energy=                    0.167890
 Thermal correction to Enthalpy=                  0.168834
 Thermal correction to Gibbs Free Energy=         0.124425
 Sum of electronic and zero-point Energies=           -423.050448
 Sum of electronic and thermal Energies=              -423.041413
 Sum of electronic and thermal Enthalpies=            -423.040469
 Sum of electronic and thermal Free Energies=         -423.084879

                     E (Thermal)             CV                S
                      KCal/Mol        Cal/Mol-Kelvin    Cal/Mol-Kelvin
 Total                  105.353             32.869             93.467
 Electronic               0.000              0.000              0.000
 Translational            0.889              2.981             40.409
 Rotational               0.889              2.981             29.286
 Vibrational            103.575             26.908             23.773
 Vibration     1          0.596              1.975              4.559
 Vibration     2          0.605              1.944              3.339
 Vibration     3          0.611              1.925              2.967
 Vibration     4          0.632              1.858              2.261
 Vibration     5          0.659              1.774              1.779
 Vibration     6          0.662              1.766              1.744
 Vibration     7          0.686              1.692              1.473
 Vibration     8          0.730              1.566              1.147
 Vibration     9          0.793              1.401              0.853
 Vibration    10          0.822              1.329              0.754
 Vibration    11          0.846              1.272              0.683

 Optimization completed.
    -- Stationary point found.
 Normal termination of Gaussian 09 at Tue Jan 28 13:16:56 2020.
