 Gaussian 09, Revision D.01,
 Gaussian 09:  ES64L-G09RevD.01 24-Apr-2013

 -----------------------------
 # b3lyp 6-31G(2df,p) opt Freq
 -----------------------------

 -----
 titel
 -----
 Symbolic Z-matrix:
 Charge =  0 Multiplicity = 1

 SCF Done:  E(RB3LYP) =  -423.081048603     A.U. after   14 cycles
 Optimization completed.
    -- Stationary point found.
 Normal termination of Gaussian 09 at Tue Jan 28 09:13:47 2020.

 ----------------------------------------------------------------------
 #N Geom=AllCheck Guess=TCheck SCRF=Check GenChk RB3LYP/6-31G(2df,p) Fr
 eq
 ----------------------------------------------------------------------

 Structure from the checkpoint file:  "/scratch/puck/g09_94851619-9a07-4ef4-ab7f-d65e3c708553/Gau-17264.chk"
 -----
 titel
 -----
 Charge =  0 Multiplicity = 1

                         Standard orientation:
 ---------------------------------------------------------------------
 Center     Atomic      Atomic             Coordinates (Angstroms)
 Number     Number       Type             X           Y           Z
 ---------------------------------------------------------------------
      1          6           0       -2.320360   -1.082640    0.118343
      2          8           0       -0.971134   -1.368797   -0.230456
      3          6           0       -0.132719   -0.295675   -0.194880
      4          6           0        1.365269   -0.366697   -0.525556
      5          6           0        2.269579   -1.209460    0.361351
      6          6           0        1.139796    1.125356   -0.178610
      7          6           0       -0.281634    1.151815   -0.813077
      8          8           0       -0.923781    1.727112    0.362699
      9          6           0        0.072842    0.818701    0.916954
     10          1           0       -2.763815   -0.349960   -0.566565
     11          1           0       -2.866654   -2.025161    0.048411
     12          1           0       -2.394971   -0.690642    1.139846
     13          1           0        1.570530   -0.547826   -1.587046
     14          1           0        3.325361   -0.990761    0.169734
     15          1           0        2.078136   -1.025393    1.424030
     16          1           0        2.110832   -2.276488    0.175274
     17          1           0        1.845658    1.952344   -0.165401
     18          1           0       -0.595684    1.481744   -1.802924
     19          1           0        0.173298    0.757224    1.999554
 ---------------------------------------------------------------------

 SCF Done:  E(RB3LYP) =  -423.081048603     A.U. after    1 cycles

 The electronic state is 1-A.
 Alpha  occ. eigenvalues --  -19.15622 -19.12882 -10.24608 -10.24200 -10.24170
 Alpha  occ. eigenvalues --  -10.22687 -10.20032 -10.19491 -10.17661  -1.06838
 Alpha  occ. eigenvalues --   -1.03924  -0.86762  -0.72949  -0.70702  -0.65592
 Alpha  occ. eigenvalues --   -0.61673  -0.60457  -0.52932  -0.51862  -0.48003
 Alpha  occ. eigenvalues --   -0.46698  -0.45473  -0.43534  -0.41403  -0.40586
 Alpha  occ. eigenvalues --   -0.38747  -0.36955  -0.35026  -0.34086  -0.32026
 Alpha  occ. eigenvalues --   -0.30802  -0.29743  -0.24988  -0.22978
 Alpha virt. eigenvalues --    0.07702   0.10068   0.10686   0.11248   0.12447
 Alpha virt. eigenvalues --    0.13722   0.14017   0.15324   0.15354   0.16298
 Alpha virt. eigenvalues --    0.17064   0.17756   0.19170   0.20311   0.20685

 Mulliken charges:
               1
     1  C   -0.255391
     2  O   -0.290120
     3  C    0.414307
     4  C   -0.089660
     5  C   -0.417535
     6  C   -0.095531
     7  C   -0.011054
     8  O   -0.329117
     9  C   -0.013428
    10  H    0.126113
    11  H    0.126235
    12  H    0.125363
    13  H    0.073628
    14  H    0.116626
    15  H    0.113945
    16  H    0.128349
    17  H    0.088063
    18  H    0.093889
    19  H    0.095318
 Sum of Mulliken charges =   0.00000

 Dipole moment (field-independent basis, Debye):
    X=              0.6799    Y=             -0.5532    Z=             -0.1993  Tot=              0.8989
 Quadrupole moment (field-independent basis, Debye-Ang):
   XX=            -50.1442   YY=            -57.9917   ZZ=            -50.5534
   XY=              3.3539   XZ=              0.4697   YZ=             -2.1363

  Exact polarizability:  83.068   0.510  73.467   0.048  -1.390  68.235
 Approx polarizability: 111.408  -0.857 109.444  -0.743   0.358 108.157

                      1                      2                      3
                      A                      A                      A
 Frequencies --     91.4621               162.8193               175.3560
 Red. masses --      2.5875                 1.7043                 1.5262
 Frc consts  --      0.0128                 0.0266                 0.0277
 IR Inten    --      3.2269                 1.6680                 2.5653

                      4                      5                      6
                      A                      A                      A
 Frequencies --    205.3420               217.8200               246.3924
 Red. masses --      3.0111                 1.0914                 3.0249
 Frc consts  --      0.0748                 0.0305                 0.1082
 IR Inten    --      0.0954                 0.3638                 1.8726

                      7                      8                      9
                      A                      A                      A
 Frequencies --    384.4739               404.9058               529.0567
 Red. masses --      3.4806                 4.3836                 3.3719
 Frc consts  --      0.3031                 0.4234                 0.5561
 IR Inten    --      1.8124                 0.4302                 0.5014

                     10                     11                     12
                      A                      A                      A
 Frequencies --    546.7366               672.5783               730.2996
 Red. masses --      3.6454                 3.6434                 3.5345
 Frc consts  --      0.6420                 0.9710                 1.1107
 IR Inten    --      1.3741                13.6587                 0.8649

                     13                     14                     15
                      A                      A                      A
 Frequencies --    754.9665               827.0694               847.2956
 Red. masses --      3.7900                 1.9653                 3.4050
 Frc consts  --      1.2727                 0.7921                 1.4403
 IR Inten    --      1.0502                 1.8371                21.9909

                     16                     17                     18
                      A                      A                      A
 Frequencies --    888.5058               896.8581               908.5877
 Red. masses --      2.1303                 2.7543                 2.3802
 Frc consts  --      0.9909                 1.3053                 1.1577
 IR Inten    --      1.1974                11.4576                31.9186

                     19                     20                     21
                      A                      A                      A
 Frequencies --    987.7754              1006.2125              1050.5904
 Red. masses --      1.8807                 2.0312                 2.1783
 Frc consts  --      1.0812                 1.2117                 1.4166
 IR Inten    --      3.1733                 2.4353                10.2577

                     22                     23                     24
                      A                      A                      A
 Frequencies --   1057.5593              1090.0879              1105.5066
 Red. masses --      2.3317                 2.3427                 1.9171
 Frc consts  --      1.5365                 1.6402                 1.3804
 IR Inten    --     36.3013                24.5042                13.3804

                     25                     26                     27
                      A                      A                      A
 Frequencies --   1117.2071              1143.7590              1157.0601
 Red. masses --      2.0341                 2.2003                 2.0487
 Frc consts  --      1.4959                 1.6959                 1.6160
 IR Inten    --      6.7544                 4.8454                 9.1112

                     28                     29                     30
                      A                      A                      A
 Frequencies --   1170.5858              1179.9355              1213.3465
 Red. masses --      1.4129                 1.2854                 1.5761
 Frc consts  --      1.1407                 1.0544                 1.3671
 IR Inten    --      0.6963                 2.0571                 1.3418

                     31                     32                     33
                      A                      A                      A
 Frequencies --   1230.9889              1263.4417              1307.2729
 Red. masses --      1.9099                 1.8707                 2.1648
 Frc consts  --      1.7052                 1.7594                 2.1797
 IR Inten    --     11.7714                34.1755                52.9651

                     34                     35                     36
                      A                      A                      A
 Frequencies --   1349.2153              1412.4838              1420.8664
 Red. masses --      2.1897                 1.2733                 1.7814
 Frc consts  --      2.3486                 1.4967                 2.1189
 IR Inten    --    140.6015                14.4899                42.7796

                     37                     38                     39
                      A                      A                      A
 Frequencies --   1486.6498              1491.4530              1494.0261
 Red. masses --      1.0471                 1.1165                 1.0673
 Frc consts  --      1.3634                 1.4633                 1.4037
 IR Inten    --      6.5663                 6.3974                20.0041

                     40                     41                     42
                      A                      A                      A
 Frequencies --   1496.2297              1505.0382              3015.8078
 Red. masses --      1.0916                 1.1455                 1.0323
 Frc consts  --      1.4398                 1.5288                 5.5319
 IR Inten    --      2.1847                12.2473                40.4192

                     43                     44                     45
                      A                      A                      A
 Frequencies --   3032.0735              3040.3058              3076.3908
 Red. masses --      1.0353                 1.0843                 1.1044
 Frc consts  --      5.6080                 5.9053                 6.1585
 IR Inten    --     22.3718                28.9064                28.0619

                     46                     47                     48
                      A                      A                      A
 Frequencies --   3098.8895              3102.9850              3123.6187
 Red. masses --      1.1011                 1.1010                 1.0901
 Frc consts  --      6.2301                 6.2457                 6.2669
 IR Inten    --     28.3322                21.8693                57.1530

                     49                     50                     51
                      A                      A                      A
 Frequencies --   3129.5923              3130.3921              3156.0010
 Red. masses --      1.0921                 1.1015                 1.0964
 Frc consts  --      6.3020                 6.3597                 6.4342
 IR Inten    --     18.4966                24.6350                21.9803

 - Thermochemistry -
 -------------------
 Temperature   298.150 Kelvin.  Pressure   1.00000 Atm.
 Atom     1 has atomic number  6 and mass  12.00000

 Molecular mass:   126.06808 amu.
 Principal axes and moments of inertia in atomic units:
                           1         2         3
     Eigenvalues --   751.423001009.653121472.69730
           X            0.99998   0.00199   0.00602
           Y           -0.00184   0.99967  -0.02560
           Z           -0.00607   0.02558   0.99965
 This molecule is an asymmetric top.
 Rotational symmetry number  1.
 Warning -- assumption of classical behavior for rotation
           may cause significant error
 Rotational temperatures (Kelvin)      0.11527     0.08579     0.05881
 Rotational constants (GHZ):           2.40176     1.78749     1.22547
 Zero-point vibrational energy     413512.4 (Joules/Mol)
                                   98.83183 (Kcal/Mol)
 Warning -- explicit consideration of  10 degrees of freedom as
           vibrations may cause significant error
 Vibrational temperatures:    131.59   234.26   252.30   295.44   313.39
          (Kelvin)            354.50   553.17   582.57   761.19   786.63
                              967.69  1050.74  1086.23  1189.97  1219.07
                             1278.36  1290.38  1307.25  1421.19  1447.71
                             1511.56  1521.59  1568.39  1590.58  1607.41
                             1645.61  1664.75  1684.21  1697.66  1745.73
                             1771.12  1817.81  1880.87  1941.22  2032.25
                             2044.31  2138.95  2145.87  2149.57  2152.74
                             2165.41  4339.07  4362.47  4374.32  4426.23
                             4458.61  4464.50  4494.18  4502.78  4503.93
                             4540.78

 Zero-point correction=                           0.157499 (Hartree/Particle)
 Thermal correction to Energy=                    0.165912
 Thermal correction to Enthalpy=                  0.166856
 Thermal correction to Gibbs Free Energy=         0.124585
 Sum of electronic and zero-point Energies=           -422.923550
 Sum of electronic and thermal Energies=              -422.915136
 Sum of electronic and thermal Enthalpies=            -422.914192
 Sum of electronic and thermal Free Energies=         -422.956463

                     E (Thermal)             CV                S
                      KCal/Mol        Cal/Mol-Kelvin    Cal/Mol-Kelvin
 Total                  104.111             32.021             88.967
 Electronic               0.000              0.000              0.000
 Translational            0.889              2.981             40.409
 Rotational               0.889              2.981             28.504
 Vibrational            102.334             26.060             20.055
 Vibration     1          0.602              1.955              3.629
 Vibration     2          0.623              1.888              2.517
 Vibration     3          0.627              1.873              2.377
 Vibration     4          0.640              1.832              2.085
 Vibration     5          0.646              1.814              1.977
 Vibration     6          0.661              1.769              1.756
 Vibration     7          0.753              1.503              1.022
 Vibration     8          0.770              1.460              0.945
 Vibration     9          0.884              1.186              0.589
 Vibration    10          0.902              1.147              0.551

 Optimization completed.
    -- Stationary point found.
 Normal termination of Gaussian 09 at Tue Jan 28 09:57:40 2020.
