 Gaussian 09, Revision D.01,
 Gaussian 09:  ES64L-G09RevD.01 24-Apr-2013

 -----------------------------
 # b3lyp 6-31G(2df,p) opt Freq
 -----------------------------

 -----
 titel
 -----
 Symbolic Z-matrix:
 Charge =  0 Multiplicity = 1

 SCF Done:  E(RB3LYP) =  -423.108186454     A.U. after   14 cycles
 Optimization completed.
    -- Stationary point found.
 Normal termination of Gaussian 09 at Tue Jan 28 13:28:37 2020.

 ----------------------------------------------------------------------
 #N Geom=AllCheck Guess=TCheck SCRF=Check GenChk RB3LYP/6-31G(2df,p) Fr
 eq
 ----------------------------------------------------------------------

 Structure from the checkpoint file:  "/scratch/puck/g09_58f9de95-6cfa-4969-8a0d-14591aadc035/Gau-31943.chk"
 -----
 titel
 -----
 Charge =  0 Multiplicity = 1

                         Standard orientation:
 ---------------------------------------------------------------------
 Center     Atomic      Atomic             Coordinates (Angstroms)
 Number     Number       Type             X           Y           Z
 ---------------------------------------------------------------------
      1          6           0        3.379526    0.574775    0.091405
      2          8           0        2.058510    0.717403   -0.392007
      3          6           0        1.133472   -0.016881    0.340551
      4          6           0        0.912435   -1.475839    0.019121
      5          6           0       -0.109969   -0.431177   -0.377950
      6          6           0       -1.457994   -0.385604    0.322191
      7          8           0       -2.317128   -1.447140   -0.087314
      8          6           0       -2.099121    0.923224    0.147543
      9          6           0       -2.630593    1.984278   -0.044174
     10          1           0        3.716615   -0.470965    0.050781
     11          1           0        4.022715    1.184996   -0.546696
     12          1           0        3.471308    0.927578    1.129945
     13          1           0        1.043341    0.287854    1.385651
     14          1           0        1.510244   -1.904806   -0.777095
     15          1           0        0.664427   -2.158346    0.825414
     16          1           0       -0.135550   -0.161485   -1.429968
     17          1           0       -1.300625   -0.563746    1.393429
     18          1           0       -2.589826   -1.264638   -0.993491
     19          1           0       -3.100238    2.924791   -0.195525
 ---------------------------------------------------------------------

 SCF Done:  E(RB3LYP) =  -423.108186454     A.U. after    1 cycles

 The electronic state is 1-A.
 Alpha  occ. eigenvalues --  -19.14651 -19.14134 -10.26041 -10.23836 -10.22570
 Alpha  occ. eigenvalues --  -10.19491 -10.18665 -10.18270 -10.17828  -1.04215
 Alpha  occ. eigenvalues --   -1.02492  -0.85933  -0.76589  -0.70282  -0.68766
 Alpha  occ. eigenvalues --   -0.59593  -0.58887  -0.55093  -0.51660  -0.50585
 Alpha  occ. eigenvalues --   -0.49026  -0.45315  -0.45000  -0.43078  -0.41518
 Alpha  occ. eigenvalues --   -0.38892  -0.35705  -0.34700  -0.31761  -0.29909
 Alpha  occ. eigenvalues --   -0.28373  -0.26887  -0.26564  -0.24888
 Alpha virt. eigenvalues --    0.03269   0.04926   0.08879   0.10359   0.10990
 Alpha virt. eigenvalues --    0.11671   0.12685   0.14064   0.14612   0.15414
 Alpha virt. eigenvalues --    0.16223   0.17440   0.18481   0.20416   0.23560

 Mulliken charges:
               1
     1  C   -0.234297
     2  O   -0.240257
     3  C    0.127233
     4  C   -0.333323
     5  C   -0.050271
     6  C   -0.083808
     7  O   -0.411582
     8  C    0.315687
     9  C   -0.455228
    10  H    0.109354
    11  H    0.128395
    12  H    0.106851
    13  H    0.086016
    14  H    0.118736
    15  H    0.118621
    16  H    0.101361
    17  H    0.112103
    18  H    0.284234
    19  H    0.200175
 Sum of Mulliken charges =   0.00000

 Dipole moment (field-independent basis, Debye):
    X=              1.1237    Y=              0.2330    Z=             -0.1627  Tot=              1.1591
 Quadrupole moment (field-independent basis, Debye-Ang):
   XX=            -50.2041   YY=            -53.3485   ZZ=            -50.7146
   XY=             -4.6901   XZ=              4.5205   YZ=              1.2420

  Exact polarizability:  91.295  -8.707  84.611   2.810  -1.461  60.803
 Approx polarizability: 110.643 -15.302 132.164   5.483  -6.219  94.113

                      1                      2                      3
                      A                      A                      A
 Frequencies --     47.5654                85.2772               108.4457
 Red. masses --      3.6575                 3.4292                 3.0207
 Frc consts  --      0.0049                 0.0147                 0.0209
 IR Inten    --      1.6061                 0.1608                 2.5284

                      4                      5                      6
                      A                      A                      A
 Frequencies --    164.1332               188.3972               206.3770
 Red. masses --      3.3180                 1.4099                 1.6051
 Frc consts  --      0.0527                 0.0295                 0.0403
 IR Inten    --      1.4833                 3.9266                16.6553

                      7                      8                      9
                      A                      A                      A
 Frequencies --    241.3897               280.4875               327.0794
 Red. masses --      3.3215                 1.5442                 5.7466
 Frc consts  --      0.1140                 0.0716                 0.3622
 IR Inten    --     10.2609                73.3146                 5.1606

                     10                     11                     12
                      A                      A                      A
 Frequencies --    374.8936               419.1546               503.7942
 Red. masses --      2.9501                 2.9976                 3.8398
 Frc consts  --      0.2443                 0.3103                 0.5742
 IR Inten    --     17.3424                 4.5235                 1.6385

                     13                     14                     15
                      A                      A                      A
 Frequencies --    546.3738               590.2845               635.4921
 Red. masses --      3.4416                 4.0745                 1.2339
 Frc consts  --      0.6053                 0.8365                 0.2936
 IR Inten    --     15.4814                 5.8267                43.3234

                     16                     17                     18
                      A                      A                      A
 Frequencies --    669.8633               812.8645               838.2839
 Red. masses --      1.2461                 2.1721                 1.6795
 Frc consts  --      0.3294                 0.8456                 0.6954
 IR Inten    --     34.8365                 4.9045                11.0347

                     19                     20                     21
                      A                      A                      A
 Frequencies --    944.0480               950.3328               972.3215
 Red. masses --      2.6723                 3.5082                 2.9218
 Frc consts  --      1.4032                 1.8667                 1.6275
 IR Inten    --     26.6866                11.6640                11.6378

                     22                     23                     24
                      A                      A                      A
 Frequencies --   1021.7616              1053.6113              1062.0222
 Red. masses --      2.7002                 1.4610                 4.6195
 Frc consts  --      1.6609                 0.9555                 3.0698
 IR Inten    --     70.0013                 3.2664               128.4324

                     25                     26                     27
                      A                      A                      A
 Frequencies --   1102.0149              1116.2901              1137.5044
 Red. masses --      1.2123                 1.9924                 2.0199
 Frc consts  --      0.8674                 1.4628                 1.5399
 IR Inten    --      8.1216                 7.3840                37.2324

                     28                     29                     30
                      A                      A                      A
 Frequencies --   1177.1648              1184.3906              1227.9267
 Red. masses --      1.8479                 1.3525                 1.6824
 Frc consts  --      1.5087                 1.1178                 1.4946
 IR Inten    --     23.0250                 4.7430                 7.5739

                     31                     32                     33
                      A                      A                      A
 Frequencies --   1239.5224              1264.5544              1290.3437
 Red. masses --      1.9006                 1.4442                 1.3194
 Frc consts  --      1.7205                 1.3606                 1.2943
 IR Inten    --     40.8003                50.8242                11.0171

                     34                     35                     36
                      A                      A                      A
 Frequencies --   1363.8385              1417.2650              1427.5042
 Red. masses --      1.2747                 1.2032                 1.4019
 Frc consts  --      1.3970                 1.4240                 1.6832
 IR Inten    --     21.5050                70.4830                26.1093

                     37                     38                     39
                      A                      A                      A
 Frequencies --   1473.3390              1486.1566              1498.0976
 Red. masses --      1.1827                 1.0511                 1.3952
 Frc consts  --      1.5126                 1.3679                 1.8449
 IR Inten    --      6.8768                 4.4784                23.4286

                     40                     41                     42
                      A                      A                      A
 Frequencies --   1509.5538              2232.8825              2982.8663
 Red. masses --      1.1505                 5.9018                 1.0367
 Frc consts  --      1.5447                17.3368                 5.4346
 IR Inten    --      0.7405                 1.4815                60.5880

                     43                     44                     45
                      A                      A                      A
 Frequencies --   3032.9044              3034.1378              3075.6074
 Red. masses --      1.0834                 1.1019                 1.0866
 Frc consts  --      5.8716                 5.9767                 6.0558
 IR Inten    --     11.1724                51.7653                29.4972

                     46                     47                     48
                      A                      A                      A
 Frequencies --   3119.8256              3134.7495              3155.5827
 Red. masses --      1.0975                 1.0545                 1.0884
 Frc consts  --      6.2936                 6.1050                 6.3854
 IR Inten    --     28.3884                 8.3858                 4.9602

                     49                     50                     51
                      A                      A                      A
 Frequencies --   3224.9233              3502.7416              3805.5320
 Red. masses --      1.1166                 1.1625                 1.0662
 Frc consts  --      6.8422                 8.4037                 9.0973
 IR Inten    --      6.2734                62.8971                25.4086

 - Thermochemistry -
 -------------------
 Temperature   298.150 Kelvin.  Pressure   1.00000 Atm.
 Atom     1 has atomic number  6 and mass  12.00000

 Molecular mass:   126.06808 amu.
 Principal axes and moments of inertia in atomic units:
                           1         2         3
     Eigenvalues --   614.101001995.732102487.35039
           X            0.99994  -0.00737   0.00818
           Y            0.00734   0.99996   0.00412
           Z           -0.00821  -0.00406   0.99996
 This molecule is an asymmetric top.
 Rotational symmetry number  1.
 Warning -- assumption of classical behavior for rotation
           may cause significant error
 Rotational temperatures (Kelvin)      0.14104     0.04340     0.03482
 Rotational constants (GHZ):           2.93883     0.90430     0.72557
 Zero-point vibrational energy     408294.3 (Joules/Mol)
                                   97.58468 (Kcal/Mol)
 Warning -- explicit consideration of  14 degrees of freedom as
           vibrations may cause significant error
 Vibrational temperatures:     68.44   122.69   156.03   236.15   271.06
          (Kelvin)            296.93   347.31   403.56   470.59   539.39
                              603.07   724.85   786.11   849.29   914.33
                              963.78  1169.53  1206.10  1358.27  1367.32
                             1398.95  1470.09  1515.91  1528.01  1585.55
                             1606.09  1636.61  1693.68  1704.07  1766.71
                             1783.39  1819.41  1856.51  1962.26  2039.13
                             2053.86  2119.80  2138.25  2155.43  2171.91
                             3212.62  4291.67  4363.67  4365.44  4425.11
                             4488.73  4510.20  4540.17  4639.94  5039.66
                             5475.30

 Zero-point correction=                           0.155511 (Hartree/Particle)
 Thermal correction to Energy=                    0.165786
 Thermal correction to Enthalpy=                  0.166730
 Thermal correction to Gibbs Free Energy=         0.119641
 Sum of electronic and zero-point Energies=           -422.952675
 Sum of electronic and thermal Energies=              -422.942400
 Sum of electronic and thermal Enthalpies=            -422.941456
 Sum of electronic and thermal Free Energies=         -422.988545

                     E (Thermal)             CV                S
                      KCal/Mol        Cal/Mol-Kelvin    Cal/Mol-Kelvin
 Total                  104.032             36.805             99.108
 Electronic               0.000              0.000              0.000
 Translational            0.889              2.981             40.409
 Rotational               0.889              2.981             29.501
 Vibrational            102.255             30.844             29.198
 Vibration     1          0.595              1.979              4.916
 Vibration     2          0.601              1.959              3.766
 Vibration     3          0.606              1.942              3.297
 Vibration     4          0.623              1.886              2.502
 Vibration     5          0.633              1.856              2.244
 Vibration     6          0.641              1.831              2.075
 Vibration     7          0.658              1.777              1.793
 Vibration     8          0.680              1.710              1.531
 Vibration     9          0.711              1.621              1.274
 Vibration    10          0.746              1.524              1.060
 Vibration    11          0.782              1.429              0.895
 Vibration    12          0.859              1.242              0.649
 Vibration    13          0.902              1.148              0.552
 Vibration    14          0.948              1.052              0.467

 Optimization completed.
    -- Stationary point found.
 Normal termination of Gaussian 09 at Tue Jan 28 14:04:13 2020.
