 Gaussian 09, Revision D.01,
 Gaussian 09:  ES64L-G09RevD.01 24-Apr-2013

 -----------------------------
 # b3lyp 6-31G(2df,p) opt Freq
 -----------------------------

 -----
 titel
 -----
 Symbolic Z-matrix:
 Charge =  0 Multiplicity = 1

 SCF Done:  E(RB3LYP) =  -423.170876816     A.U. after   14 cycles
 Optimization completed.
    -- Stationary point found.
 Normal termination of Gaussian 09 at Tue Jan 28 02:40:56 2020.

 ----------------------------------------------------------------------
 #N Geom=AllCheck Guess=TCheck SCRF=Check GenChk RB3LYP/6-31G(2df,p) Fr
 eq
 ----------------------------------------------------------------------

 Structure from the checkpoint file:  "/scratch/puck/g09_a70e91e4-9b8b-434f-abe2-bb7d624b26f8/Gau-107727.chk"
 -----
 titel
 -----
 Charge =  0 Multiplicity = 1

                         Standard orientation:
 ---------------------------------------------------------------------
 Center     Atomic      Atomic             Coordinates (Angstroms)
 Number     Number       Type             X           Y           Z
 ---------------------------------------------------------------------
      1          6           0       -2.650885   -0.791810    0.022428
      2          6           0       -1.246792   -0.531247   -0.510730
      3          6           0       -0.046173   -1.401908   -0.002312
      4          6           0        0.737492   -0.145916    0.360680
      5          6           0       -0.065373    0.698805    1.344748
      6          6           0       -0.523733    0.736739   -0.058599
      7          8           0       -0.608277    1.879116   -0.817497
      8          6           0        2.140763    0.110975    0.062913
      9          8           0        2.895362   -0.687941   -0.447435
     10          1           0       -3.019658   -1.765487   -0.316608
     11          1           0       -2.673588   -0.792499    1.117519
     12          1           0       -3.351763   -0.027554   -0.329309
     13          1           0       -1.256817   -0.538452   -1.604884
     14          1           0       -0.277269   -2.060169    0.841940
     15          1           0        0.438059   -1.985229   -0.785954
     16          1           0       -0.626931    0.197026    2.130939
     17          1           0        0.452089    1.596351    1.679997
     18          1           0       -0.536455    2.651284   -0.248018
     19          1           0        2.483855    1.141504    0.319065
 ---------------------------------------------------------------------

 SCF Done:  E(RB3LYP) =  -423.170876816     A.U. after    1 cycles

 The electronic state is 1-A.
 Alpha  occ. eigenvalues --  -19.17142 -19.11957 -10.26595 -10.25794 -10.21201
 Alpha  occ. eigenvalues --  -10.20221 -10.20085 -10.18884 -10.18227  -1.05980
 Alpha  occ. eigenvalues --   -1.02634  -0.90284  -0.77227  -0.70723  -0.67086
 Alpha  occ. eigenvalues --   -0.63889  -0.56804  -0.55870  -0.50820  -0.49657
 Alpha  occ. eigenvalues --   -0.45928  -0.44348  -0.42722  -0.42261  -0.40499
 Alpha  occ. eigenvalues --   -0.39138  -0.38007  -0.37321  -0.35315  -0.34823
 Alpha  occ. eigenvalues --   -0.32434  -0.30020  -0.24935  -0.23090
 Alpha virt. eigenvalues --   -0.01507   0.05794   0.08562   0.10605   0.12004
 Alpha virt. eigenvalues --    0.12646   0.12912   0.14116   0.15313   0.16374
 Alpha virt. eigenvalues --    0.17769   0.18335   0.19324   0.20459   0.21941

 Mulliken charges:
               1
     1  C   -0.417998
     2  C   -0.009665
     3  C   -0.322331
     4  C    0.199906
     5  C   -0.417692
     6  C    0.364075
     7  O   -0.446828
     8  C    0.055929
     9  O   -0.279486
    10  H    0.122751
    11  H    0.113282
    12  H    0.124418
    13  H    0.097105
    14  H    0.098580
    15  H    0.131088
    16  H    0.122425
    17  H    0.118045
    18  H    0.295040
    19  H    0.051356
 Sum of Mulliken charges =   0.00000

 Dipole moment (field-independent basis, Debye):
    X=             -2.9933    Y=              1.9237    Z=              2.0324  Tot=              4.0977
 Quadrupole moment (field-independent basis, Debye-Ang):
   XX=            -63.0347   YY=            -48.5909   ZZ=            -53.5043
   XY=              4.7439   XZ=              2.1322   YZ=              2.5815

  Exact polarizability:  94.812  -1.180  78.137  -1.781   4.384  65.268
 Approx polarizability: 136.044 -14.812 119.382  -5.254   6.834 103.650

                      1                      2                      3
                      A                      A                      A
 Frequencies --     94.1418               134.5976               156.9552
 Red. masses --      5.2715                 4.6377                 1.7294
 Frc consts  --      0.0275                 0.0495                 0.0251
 IR Inten    --      1.7931                 4.6220                28.6579

                      4                      5                      6
                      A                      A                      A
 Frequencies --    171.1317               218.1821               236.3004
 Red. masses --      3.2537                 1.0475                 1.6595
 Frc consts  --      0.0561                 0.0294                 0.0546
 IR Inten    --      2.7200                 1.1249                11.8208

                      7                      8                      9
                      A                      A                      A
 Frequencies --    285.9973               342.9105               400.3880
 Red. masses --      2.4494                 2.3915                 2.6773
 Frc consts  --      0.1180                 0.1657                 0.2529
 IR Inten    --      8.7983                 5.6167                15.4361

                     10                     11                     12
                      A                      A                      A
 Frequencies --    446.4152               479.8905               551.5902
 Red. masses --      2.2664                 3.5782                 3.1822
 Frc consts  --      0.2661                 0.4855                 0.5704
 IR Inten    --      5.9398                20.8124                 1.3822

                     13                     14                     15
                      A                      A                      A
 Frequencies --    662.1303               674.4452               753.4559
 Red. masses --      5.0618                 4.1537                 4.5833
 Frc consts  --      1.3075                 1.1132                 1.5330
 IR Inten    --     15.4778                 8.1162                75.9883

                     16                     17                     18
                      A                      A                      A
 Frequencies --    794.9969               842.4496               894.9178
 Red. masses --      3.3993                 2.2364                 1.7012
 Frc consts  --      1.2658                 0.9352                 0.8027
 IR Inten    --      7.1894                27.6561                23.7210

                     19                     20                     21
                      A                      A                      A
 Frequencies --    942.8825               963.6503              1024.6287
 Red. masses --      1.4176                 1.2856                 1.3935
 Frc consts  --      0.7425                 0.7034                 0.8620
 IR Inten    --     22.5876                25.1314                 5.6679

                     22                     23                     24
                      A                      A                      A
 Frequencies --   1035.8512              1079.7865              1089.1492
 Red. masses --      1.7869                 1.5473                 1.3942
 Frc consts  --      1.1297                 1.0629                 0.9744
 IR Inten    --      1.0266                28.8453                 7.4185

                     25                     26                     27
                      A                      A                      A
 Frequencies --   1109.0579              1133.2352              1181.5515
 Red. masses --      1.8766                 1.9548                 1.7511
 Frc consts  --      1.3600                 1.4791                 1.4403
 IR Inten    --     34.5065                36.4718                 9.6975

                     28                     29                     30
                      A                      A                      A
 Frequencies --   1191.5316              1235.1779              1253.2063
 Red. masses --      3.1903                 1.5027                 1.4943
 Frc consts  --      2.6686                 1.3508                 1.3828
 IR Inten    --     38.2231                 4.3909                 4.5712

                     31                     32                     33
                      A                      A                      A
 Frequencies --   1331.2352              1370.0882              1393.2365
 Red. masses --      1.6274                 3.2962                 1.5522
 Frc consts  --      1.6992                 3.6455                 1.7753
 IR Inten    --     19.0715                74.9101                45.2537

                     34                     35                     36
                      A                      A                      A
 Frequencies --   1407.2483              1410.4607              1440.7895
 Red. masses --      2.0337                 1.3152                 1.4507
 Frc consts  --      2.3729                 1.5416                 1.7743
 IR Inten    --     13.2932                10.7046                22.4116

                     37                     38                     39
                      A                      A                      A
 Frequencies --   1482.1987              1495.7377              1496.8465
 Red. masses --      1.2275                 1.0570                 1.0641
 Frc consts  --      1.5888                 1.3932                 1.4048
 IR Inten    --      9.3290                 3.2569                 4.0343

                     40                     41                     42
                      A                      A                      A
 Frequencies --   1503.3114              1785.9699              2843.7736
 Red. masses --      1.2749                10.2228                 1.0806
 Frc consts  --      1.6975                19.2118                 5.1489
 IR Inten    --     40.7558               303.0844               129.6218

                     43                     44                     45
                      A                      A                      A
 Frequencies --   3031.2908              3048.3329              3063.4009
 Red. masses --      1.0352                 1.0666                 1.0850
 Frc consts  --      5.6046                 5.8393                 5.9992
 IR Inten    --     21.0251                32.8613                 7.5912

                     46                     47                     48
                      A                      A                      A
 Frequencies --   3087.7025              3100.8160              3102.5073
 Red. masses --      1.0554                 1.1003                 1.1012
 Frc consts  --      5.9286                 6.2332                 6.2451
 IR Inten    --     13.6042                32.4980                22.2651

                     49                     50                     51
                      A                      A                      A
 Frequencies --   3131.5783              3169.4287              3826.6015
 Red. masses --      1.0991                 1.1145                 1.0663
 Frc consts  --      6.3508                 6.5961                 9.1996
 IR Inten    --     10.8973                10.8480                39.2573

 - Thermochemistry -
 -------------------
 Temperature   298.150 Kelvin.  Pressure   1.00000 Atm.
 Atom     1 has atomic number  6 and mass  12.00000

 Molecular mass:   126.06808 amu.
 Principal axes and moments of inertia in atomic units:
                           1         2         3
     Eigenvalues --   669.411651420.109741709.69665
           X            0.99888   0.04718   0.00361
           Y           -0.04729   0.99813   0.03866
           Z           -0.00178  -0.03879   0.99925
 This molecule is an asymmetric top.
 Rotational symmetry number  1.
 Warning -- assumption of classical behavior for rotation
           may cause significant error
 Rotational temperatures (Kelvin)      0.12939     0.06099     0.05066
 Rotational constants (GHZ):           2.69601     1.27085     1.05559
 Zero-point vibrational energy     412132.4 (Joules/Mol)
                                   98.50201 (Kcal/Mol)
 Warning -- explicit consideration of  12 degrees of freedom as
           vibrations may cause significant error
 Vibrational temperatures:    135.45   193.66   225.82   246.22   313.92
          (Kelvin)            339.98   411.49   493.37   576.07   642.29
                              690.45   793.61   952.66   970.37  1084.05
                             1143.82  1212.10  1287.59  1356.60  1386.48
                             1474.21  1490.36  1553.57  1567.04  1595.68
                             1630.47  1699.99  1714.35  1777.14  1803.08
                             1915.35  1971.25  2004.55  2024.71  2029.34
                             2072.97  2132.55  2152.03  2153.63  2162.93
                             2569.61  4091.55  4361.35  4385.87  4407.55
                             4442.51  4461.38  4463.81  4505.64  4560.10
                             5505.62

 Zero-point correction=                           0.156973 (Hartree/Particle)
 Thermal correction to Energy=                    0.166242
 Thermal correction to Enthalpy=                  0.167186
 Thermal correction to Gibbs Free Energy=         0.123144
 Sum of electronic and zero-point Energies=           -423.013904
 Sum of electronic and thermal Energies=              -423.004635
 Sum of electronic and thermal Enthalpies=            -423.003691
 Sum of electronic and thermal Free Energies=         -423.047733

                     E (Thermal)             CV                S
                      KCal/Mol        Cal/Mol-Kelvin    Cal/Mol-Kelvin
 Total                  104.318             34.465             92.695
 Electronic               0.000              0.000              0.000
 Translational            0.889              2.981             40.409
 Rotational               0.889              2.981             28.876
 Vibrational            102.541             28.503             23.410
 Vibration     1          0.603              1.953              3.572
 Vibration     2          0.613              1.919              2.879
 Vibration     3          0.621              1.895              2.586
 Vibration     4          0.626              1.878              2.423
 Vibration     5          0.646              1.813              1.974
 Vibration     6          0.655              1.785              1.831
 Vibration     7          0.684              1.700              1.498
 Vibration     8          0.722              1.590              1.199
 Vibration     9          0.766              1.469              0.961
 Vibration    10          0.806              1.369              0.807
 Vibration    11          0.836              1.295              0.710
 Vibration    12          0.907              1.136              0.541

 Normal termination of Gaussian 09 at Tue Jan 28 03:23:36 2020.
