 Gaussian 09, Revision D.01,
 Gaussian 09:  ES64L-G09RevD.01 24-Apr-2013

 -----------------------------
 # b3lyp 6-31G(2df,p) opt Freq
 -----------------------------

 -----
 titel
 -----
 Symbolic Z-matrix:
 Charge =  0 Multiplicity = 1

 SCF Done:  E(RB3LYP) =  -423.153003615     A.U. after   13 cycles
 Optimization completed.
    -- Stationary point found.
 Normal termination of Gaussian 09 at Mon Jan 27 11:14:35 2020.

 ----------------------------------------------------------------------
 #N Geom=AllCheck Guess=TCheck SCRF=Check GenChk RB3LYP/6-31G(2df,p) Fr
 eq
 ----------------------------------------------------------------------

 Structure from the checkpoint file:  "/scratch/puck/g09_d7721dfd-d501-4fdc-9eb8-a9398452e618/Gau-162848.chk"
 -----
 titel
 -----
 Charge =  0 Multiplicity = 1

                         Standard orientation:
 ---------------------------------------------------------------------
 Center     Atomic      Atomic             Coordinates (Angstroms)
 Number     Number       Type             X           Y           Z
 ---------------------------------------------------------------------
      1          6           0        1.265097    0.335342    1.100460
      2          6           0        1.314866   -0.797427    0.055619
      3          6           0        0.150843   -1.794335    0.004088
      4          8           0       -1.066048   -1.271708   -0.473497
      5          6           0       -1.783853   -0.370534    0.348782
      6          6           0       -1.596944    1.099357    0.021508
      7          6           0       -0.465409    1.773963   -0.195048
      8          6           0        0.942803    1.245689   -0.109580
      9          8           0        1.246550    0.154473   -1.026689
     10          1           0        0.512122    0.271395    1.886763
     11          1           0        2.235463    0.547871    1.551176
     12          1           0        2.254581   -1.365556    0.041729
     13          1           0        0.401136   -2.595336   -0.699399
     14          1           0        0.031152   -2.251548    1.002993
     15          1           0       -2.842308   -0.614092    0.200718
     16          1           0       -1.568751   -0.561359    1.413662
     17          1           0       -2.529474    1.656384   -0.047705
     18          1           0       -0.551950    2.830297   -0.439856
     19          1           0        1.649588    2.067504   -0.263564
 ---------------------------------------------------------------------

 SCF Done:  E(RB3LYP) =  -423.153003615     A.U. after    1 cycles

 The electronic state is 1-A.
 Alpha  occ. eigenvalues --  -19.13756 -19.12698 -10.23585 -10.23513 -10.23175
 Alpha  occ. eigenvalues --  -10.22730 -10.18769 -10.18762 -10.18339  -1.04155
 Alpha  occ. eigenvalues --   -1.02083  -0.79812  -0.75667  -0.71235  -0.70817
 Alpha  occ. eigenvalues --   -0.61041  -0.57416  -0.52439  -0.51260  -0.48313
 Alpha  occ. eigenvalues --   -0.48082  -0.46170  -0.45051  -0.42623  -0.40362
 Alpha  occ. eigenvalues --   -0.39287  -0.37655  -0.36005  -0.32171  -0.31600
 Alpha  occ. eigenvalues --   -0.29804  -0.26231  -0.25651  -0.23475
 Alpha virt. eigenvalues --   -0.00626   0.07123   0.08998   0.11243   0.11694
 Alpha virt. eigenvalues --    0.12364   0.13912   0.15692   0.16949   0.17333
 Alpha virt. eigenvalues --    0.18935   0.19281   0.20124   0.21063   0.23041

 Mulliken charges:
               1
     1  C   -0.313688
     2  C    0.117268
     3  C   -0.102243
     4  O   -0.223951
     5  C   -0.135872
     6  C   -0.059493
     7  C   -0.050395
     8  C    0.084759
     9  O   -0.281108
    10  H    0.108432
    11  H    0.111056
    12  H    0.074100
    13  H    0.114818
    14  H    0.084522
    15  H    0.111361
    16  H    0.100101
    17  H    0.094602
    18  H    0.089572
    19  H    0.076160
 Sum of Mulliken charges =   0.00000

 Dipole moment (field-independent basis, Debye):
    X=              0.0603    Y=              0.3868    Z=              2.5307  Tot=              2.5609
 Quadrupole moment (field-independent basis, Debye-Ang):
   XX=            -50.4358   YY=            -50.0445   ZZ=            -56.3181
   XY=             -1.9155   XZ=              0.7492   YZ=             -1.3350

  Exact polarizability:  86.482  -0.439  82.977  -0.585  -2.961  58.106
 Approx polarizability: 124.886   4.949 115.341  -4.311  -4.268  94.612

                      1                      2                      3
                      A                      A                      A
 Frequencies --    119.4172               204.2358               261.6875
 Red. masses --      2.3278                 5.4263                 5.7853
 Frc consts  --      0.0196                 0.1334                 0.2334
 IR Inten    --      0.3105                 4.5373                 0.8515

                      4                      5                      6
                      A                      A                      A
 Frequencies --    268.6053               302.7818               384.4603
 Red. masses --      3.1678                 2.5058                 1.9720
 Frc consts  --      0.1347                 0.1353                 0.1717
 IR Inten    --      1.5072                 1.6732                 1.9743

                      7                      8                      9
                      A                      A                      A
 Frequencies --    465.6796               527.9400               623.0326
 Red. masses --      2.8041                 2.9943                 3.6277
 Frc consts  --      0.3583                 0.4917                 0.8297
 IR Inten    --      3.9792                 0.9228                16.4455

                     10                     11                     12
                      A                      A                      A
 Frequencies --    700.4050               738.8100               753.9726
 Red. masses --      1.7732                 2.8173                 3.3488
 Frc consts  --      0.5125                 0.9060                 1.1216
 IR Inten    --     10.5595                 6.5582                 1.5343

                     13                     14                     15
                      A                      A                      A
 Frequencies --    801.6125               871.5868               890.3796
 Red. masses --      2.9225                 2.4315                 3.5588
 Frc consts  --      1.1064                 1.0883                 1.6623
 IR Inten    --      1.7570                11.8662                23.2434

                     16                     17                     18
                      A                      A                      A
 Frequencies --    905.5911               955.5449               966.9270
 Red. masses --      2.7779                 2.7290                 2.6407
 Frc consts  --      1.3422                 1.4681                 1.4547
 IR Inten    --      5.1559                29.7100                 2.3606

                     19                     20                     21
                      A                      A                      A
 Frequencies --    998.1680              1016.2035              1034.5847
 Red. masses --      1.3508                 2.8441                 2.3828
 Frc consts  --      0.7930                 1.7304                 1.5027
 IR Inten    --      4.5629                31.4962                40.2008

                     22                     23                     24
                      A                      A                      A
 Frequencies --   1071.1352              1089.2393              1107.3333
 Red. masses --      2.2909                 2.1441                 1.7202
 Frc consts  --      1.5486                 1.4988                 1.2427
 IR Inten    --     11.0841                19.9174                23.1498

                     25                     26                     27
                      A                      A                      A
 Frequencies --   1136.1104              1187.8387              1243.1501
 Red. masses --      1.8771                 2.2638                 1.4654
 Frc consts  --      1.4275                 1.8819                 1.3343
 IR Inten    --      3.1727                83.3530                 3.7666

                     28                     29                     30
                      A                      A                      A
 Frequencies --   1255.5508              1265.8770              1290.1329
 Red. masses --      1.2854                 1.2094                 1.2242
 Frc consts  --      1.1938                 1.1418                 1.2005
 IR Inten    --     17.2122                 0.8871                14.8786

                     31                     32                     33
                      A                      A                      A
 Frequencies --   1307.4736              1349.6476              1364.7834
 Red. masses --      1.3300                 1.2707                 1.4510
 Frc consts  --      1.3396                 1.3637                 1.5924
 IR Inten    --     10.1497                 6.4643                 5.7327

                     34                     35                     36
                      A                      A                      A
 Frequencies --   1388.3202              1405.3600              1418.9978
 Red. masses --      1.3766                 1.2629                 1.2604
 Frc consts  --      1.5633                 1.4696                 1.4952
 IR Inten    --      5.4026                 6.2555                 5.1717

                     37                     38                     39
                      A                      A                      A
 Frequencies --   1425.5335              1475.8663              1483.1357
 Red. masses --      1.4533                 1.0824                 1.1095
 Frc consts  --      1.7400                 1.3892                 1.4380
 IR Inten    --      0.8954                 1.1642                 3.9334

                     40                     41                     42
                      A                      A                      A
 Frequencies --   1504.7928              1717.3280              2949.4861
 Red. masses --      1.1078                 6.6765                 1.0701
 Frc consts  --      1.4780                11.6013                 5.4850
 IR Inten    --      7.9612                 0.9279                46.3597

                     43                     44                     45
                      A                      A                      A
 Frequencies --   2964.8633              3012.5909              3045.8767
 Red. masses --      1.0686                 1.0856                 1.0865
 Frc consts  --      5.5343                 5.8052                 5.9387
 IR Inten    --     44.5325                62.1787                61.2175

                     46                     47                     48
                      A                      A                      A
 Frequencies --   3048.3993              3072.3149              3085.1856
 Red. masses --      1.0914                 1.0912                 1.0600
 Frc consts  --      5.9757                 6.0685                 5.9447
 IR Inten    --     28.4185                37.7243                25.5271

                     49                     50                     51
                      A                      A                      A
 Frequencies --   3133.6081              3138.4939              3158.3483
 Red. masses --      1.0838                 1.1082                 1.0947
 Frc consts  --      6.2705                 6.4315                 6.4340
 IR Inten    --      7.9920                21.6288                36.0493

 - Thermochemistry -
 -------------------
 Temperature   298.150 Kelvin.  Pressure   1.00000 Atm.
 Atom     1 has atomic number  6 and mass  12.00000

 Molecular mass:   126.06808 amu.
 Principal axes and moments of inertia in atomic units:
                           1         2         3
     Eigenvalues --   795.73605 867.973681330.06409
           X            0.99221  -0.12419   0.00955
           Y            0.12433   0.99213  -0.01489
           Z           -0.00763   0.01596   0.99984
 This molecule is an asymmetric top.
 Rotational symmetry number  1.
 Warning -- assumption of classical behavior for rotation
           may cause significant error
 Rotational temperatures (Kelvin)      0.10885     0.09979     0.06512
 Rotational constants (GHZ):           2.26801     2.07926     1.35688
 Zero-point vibrational energy     424006.8 (Joules/Mol)
                                  101.34005 (Kcal/Mol)
 Warning -- explicit consideration of   8 degrees of freedom as
           vibrations may cause significant error
 Vibrational temperatures:    171.81   293.85   376.51   386.46   435.63
          (Kelvin)            553.15   670.01   759.59   896.40  1007.73
                             1062.98  1084.80  1153.34  1254.02  1281.06
                             1302.94  1374.81  1391.19  1436.14  1462.09
                             1488.53  1541.12  1567.17  1593.20  1634.61
                             1709.03  1788.61  1806.46  1821.31  1856.21
                             1881.16  1941.84  1963.62  1997.48  2022.00
                             2041.62  2051.02  2123.44  2133.90  2165.06
                             2470.85  4243.65  4265.77  4334.44  4382.33
                             4385.96  4420.37  4438.89  4508.56  4515.59
                             4544.15

 Zero-point correction=                           0.161496 (Hartree/Particle)
 Thermal correction to Energy=                    0.168840
 Thermal correction to Enthalpy=                  0.169784
 Thermal correction to Gibbs Free Energy=         0.129921
 Sum of electronic and zero-point Energies=           -422.991508
 Sum of electronic and thermal Energies=              -422.984164
 Sum of electronic and thermal Enthalpies=            -422.983220
 Sum of electronic and thermal Free Energies=         -423.023083

                     E (Thermal)             CV                S
                      KCal/Mol        Cal/Mol-Kelvin    Cal/Mol-Kelvin
 Total                  105.948             29.374             83.898
 Electronic               0.000              0.000              0.000
 Translational            0.889              2.981             40.409
 Rotational               0.889              2.981             28.309
 Vibrational            104.171             23.412             15.180
 Vibration     1          0.609              1.933              3.110
 Vibration     2          0.640              1.834              2.095
 Vibration     3          0.669              1.743              1.650
 Vibration     4          0.673              1.731              1.605
 Vibration     5          0.694              1.668              1.401
 Vibration     6          0.753              1.503              1.022
 Vibration     7          0.823              1.326              0.750
 Vibration     8          0.883              1.188              0.592

 Optimization completed.
    -- Stationary point found.
 Normal termination of Gaussian 09 at Mon Jan 27 11:58:52 2020.
