 Gaussian 09, Revision D.01,
 Gaussian 09:  ES64L-G09RevD.01 24-Apr-2013

 -----------------------------
 # b3lyp 6-31G(2df,p) opt Freq
 -----------------------------

 -----
 titel
 -----
 Symbolic Z-matrix:
 Charge =  0 Multiplicity = 1

 SCF Done:  E(RB3LYP) =  -423.145456630     A.U. after   13 cycles
 Optimization completed.
    -- Stationary point found.
 Normal termination of Gaussian 09 at Tue Jan 28 00:02:48 2020.

 ----------------------------------------------------------------------
 #N Geom=AllCheck Guess=TCheck SCRF=Check GenChk RB3LYP/6-31G(2df,p) Fr
 eq
 ----------------------------------------------------------------------

 Structure from the checkpoint file:  "/scratch/puck/g09_3f2f2003-fd7c-49a2-aa8d-99a991b18589/Gau-31925.chk"
 -----
 titel
 -----
 Charge =  0 Multiplicity = 1

                         Standard orientation:
 ---------------------------------------------------------------------
 Center     Atomic      Atomic             Coordinates (Angstroms)
 Number     Number       Type             X           Y           Z
 ---------------------------------------------------------------------
      1          6           0       -2.672655    0.017438   -0.151913
      2          6           0       -1.214890    0.362298   -0.446501
      3          6           0       -0.351574    0.618800    0.827150
      4          8           0        0.782796    1.412482    0.536931
      5          6           0        1.470004    0.936734   -0.622675
      6          6           0        1.207949   -0.557136   -0.754196
      7          8           0        1.438489   -1.118591    0.571767
      8          6           0        0.045003   -0.926781    0.823651
      9          6           0       -0.329652   -0.882430   -0.672035
     10          1           0       -3.213462    0.895602    0.216328
     11          1           0       -3.183637   -0.339300   -1.052483
     12          1           0       -2.758864   -0.767936    0.607309
     13          1           0       -1.161247    1.159763   -1.194633
     14          1           0       -0.829093    1.046636    1.710401
     15          1           0        1.150933    1.479280   -1.525811
     16          1           0        2.536013    1.126706   -0.463741
     17          1           0        1.804720   -1.044446   -1.529063
     18          1           0       -0.366298   -1.581296    1.593012
     19          1           0       -0.674460   -1.739679   -1.251783
 ---------------------------------------------------------------------

 SCF Done:  E(RB3LYP) =  -423.145456630     A.U. after    1 cycles

 The electronic state is 1-A.
 Alpha  occ. eigenvalues --  -19.14002 -19.13419 -10.24126 -10.23254 -10.23081
 Alpha  occ. eigenvalues --  -10.22872 -10.19351 -10.19113 -10.18360  -1.06537
 Alpha  occ. eigenvalues --   -1.01382  -0.83552  -0.75420  -0.72004  -0.63893
 Alpha  occ. eigenvalues --   -0.63110  -0.60224  -0.53524  -0.50570  -0.49215
 Alpha  occ. eigenvalues --   -0.47176  -0.45200  -0.42417  -0.40548  -0.40284
 Alpha  occ. eigenvalues --   -0.40052  -0.37605  -0.36898  -0.35833  -0.32178
 Alpha  occ. eigenvalues --   -0.29736  -0.29300  -0.25623  -0.22530
 Alpha virt. eigenvalues --    0.06656   0.09082   0.10585   0.11081   0.13126
 Alpha virt. eigenvalues --    0.13906   0.14830   0.14888   0.15789   0.16321
 Alpha virt. eigenvalues --    0.17121   0.18074   0.19604   0.20674   0.21776

 Mulliken charges:
               1
     1  C   -0.418737
     2  C   -0.022519
     3  C    0.062288
     4  O   -0.262506
     5  C   -0.089611
     6  C    0.049679
     7  O   -0.293039
     8  C    0.108125
     9  C   -0.092988
    10  H    0.120819
    11  H    0.118962
    12  H    0.118238
    13  H    0.075678
    14  H    0.079109
    15  H    0.093212
    16  H    0.117761
    17  H    0.083467
    18  H    0.080681
    19  H    0.071382
 Sum of Mulliken charges =   0.00000

 Dipole moment (field-independent basis, Debye):
    X=             -1.6381    Y=             -0.3965    Z=             -1.6020  Tot=              2.3253
 Quadrupole moment (field-independent basis, Debye-Ang):
   XX=            -53.1356   YY=            -55.9530   ZZ=            -51.3339
   XY=              1.2080   XZ=             -4.3047   YZ=             -0.4658

  Exact polarizability:  82.697   0.848  68.205  -4.527  -0.683  69.063
 Approx polarizability: 110.847  -0.382 103.173  -4.134  -1.199 108.066

                      1                      2                      3
                      A                      A                      A
 Frequencies --    186.9459               222.6427               262.4273
 Red. masses --      2.9160                 1.0630                 2.3860
 Frc consts  --      0.0600                 0.0310                 0.0968
 IR Inten    --      0.2677                 0.1054                 0.5645

                      4                      5                      6
                      A                      A                      A
 Frequencies --    298.6470               385.7961               408.1698
 Red. masses --      2.8765                 3.2720                 5.3184
 Frc consts  --      0.1512                 0.2869                 0.5221
 IR Inten    --      4.1535                 0.6216                 1.2789

                      7                      8                      9
                      A                      A                      A
 Frequencies --    484.2764               596.7669               692.7170
 Red. masses --      3.5458                 5.9525                 5.2783
 Frc consts  --      0.4900                 1.2490                 1.4923
 IR Inten    --      5.1238                 2.9625                10.7411

                     10                     11                     12
                      A                      A                      A
 Frequencies --    731.7511               782.0329               819.2130
 Red. masses --      3.6073                 2.3905                 2.8042
 Frc consts  --      1.1380                 0.8614                 1.1088
 IR Inten    --      0.6924                 8.5588                 3.8800

                     13                     14                     15
                      A                      A                      A
 Frequencies --    840.8208               863.8502               902.0230
 Red. masses --      1.6662                 2.6626                 3.0151
 Frc consts  --      0.6941                 1.1707                 1.4454
 IR Inten    --      2.8407                20.0879                24.2296

                     16                     17                     18
                      A                      A                      A
 Frequencies --    918.4961               954.5335              1003.5895
 Red. masses --      2.1730                 2.1075                 3.0489
 Frc consts  --      1.0801                 1.1314                 1.8093
 IR Inten    --      0.2378                12.0619                 9.4296

                     19                     20                     21
                      A                      A                      A
 Frequencies --   1016.3498              1039.4087              1049.9165
 Red. masses --      4.0945                 1.7920                 1.7080
 Frc consts  --      2.4919                 1.1407                 1.1093
 IR Inten    --     40.9190                 4.5702                30.0004

                     22                     23                     24
                      A                      A                      A
 Frequencies --   1063.1758              1069.8476              1111.1942
 Red. masses --      1.8192                 2.2371                 2.1970
 Frc consts  --      1.2115                 1.5086                 1.5983
 IR Inten    --      7.6353                 3.9011                16.3121

                     25                     26                     27
                      A                      A                      A
 Frequencies --   1134.9859              1155.7560              1195.1263
 Red. masses --      3.5491                 2.5754                 1.4669
 Frc consts  --      2.6937                 2.0269                 1.2345
 IR Inten    --     47.9682                19.7002                 0.8197

                     28                     29                     30
                      A                      A                      A
 Frequencies --   1215.0614              1225.7012              1255.3615
 Red. masses --      1.4795                 1.2688                 1.4017
 Frc consts  --      1.2869                 1.1230                 1.3015
 IR Inten    --      0.9314                 0.0162                 7.6051

                     31                     32                     33
                      A                      A                      A
 Frequencies --   1268.7694              1284.1527              1322.4621
 Red. masses --      1.4037                 1.5719                 1.5119
 Frc consts  --      1.3314                 1.5272                 1.5579
 IR Inten    --      0.7553                 6.4901                 2.3481

                     34                     35                     36
                      A                      A                      A
 Frequencies --   1325.8880              1344.3958              1378.3471
 Red. masses --      1.4271                 1.5845                 1.5594
 Frc consts  --      1.4782                 1.6873                 1.7455
 IR Inten    --      4.2129                 8.0096                 0.6355

                     37                     38                     39
                      A                      A                      A
 Frequencies --   1400.3423              1412.5990              1496.5260
 Red. masses --      1.4399                 1.2270                 1.0495
 Frc consts  --      1.6636                 1.4425                 1.3848
 IR Inten    --      3.1032                 2.0889                 3.0536

                     40                     41                     42
                      A                      A                      A
 Frequencies --   1499.4929              1503.5621              2986.7706
 Red. masses --      1.0526                 1.0839                 1.0693
 Frc consts  --      1.3944                 1.4437                 5.6203
 IR Inten    --      2.5485                 2.9152                51.2745

                     43                     44                     45
                      A                      A                      A
 Frequencies --   3028.3145              3052.3283              3076.0586
 Red. masses --      1.0350                 1.0849                 1.0933
 Frc consts  --      5.5923                 5.9551                 6.0949
 IR Inten    --     25.5973                25.8922                13.6704

                     46                     47                     48
                      A                      A                      A
 Frequencies --   3084.0839              3094.3390              3096.3691
 Red. masses --      1.0901                 1.0952                 1.0940
 Frc consts  --      6.1092                 6.1782                 6.1799
 IR Inten    --     52.4624                 9.0719                15.0551

                     49                     50                     51
                      A                      A                      A
 Frequencies --   3099.2150              3100.8159              3112.0396
 Red. masses --      1.1006                 1.0893                 1.0940
 Frc consts  --      6.2287                 6.1710                 6.2422
 IR Inten    --     23.2235                94.9081                38.6892

 - Thermochemistry -
 -------------------
 Temperature   298.150 Kelvin.  Pressure   1.00000 Atm.
 Atom     1 has atomic number  6 and mass  12.00000

 Molecular mass:   126.06808 amu.
 Principal axes and moments of inertia in atomic units:
                           1         2         3
     Eigenvalues --   595.135361053.325641216.08040
           X            0.99951   0.01867  -0.02502
           Y           -0.01927   0.99953  -0.02398
           Z            0.02456   0.02445   0.99940
 This molecule is an asymmetric top.
 Rotational symmetry number  1.
 Warning -- assumption of classical behavior for rotation
           may cause significant error
 Rotational temperatures (Kelvin)      0.14554     0.08223     0.07122
 Rotational constants (GHZ):           3.03249     1.71337     1.48406
 Zero-point vibrational energy     423797.8 (Joules/Mol)
                                  101.29010 (Kcal/Mol)
 Warning -- explicit consideration of   8 degrees of freedom as
           vibrations may cause significant error
 Vibrational temperatures:    268.97   320.33   377.57   429.69   555.07
          (Kelvin)            587.26   696.76   858.61   996.66  1052.83
                             1125.17  1178.66  1209.75  1242.89  1297.81
                             1321.51  1373.36  1443.94  1462.30  1495.48
                             1510.59  1529.67  1539.27  1598.76  1632.99
                             1662.87  1719.52  1748.20  1763.51  1806.18
                             1825.47  1847.61  1902.73  1907.65  1934.28
                             1983.13  2014.78  2032.41  2153.16  2157.43
                             2163.29  4297.29  4357.06  4391.61  4425.76
                             4437.30  4452.06  4454.98  4459.07  4461.38
                             4477.53

 Zero-point correction=                           0.161416 (Hartree/Particle)
 Thermal correction to Energy=                    0.168328
 Thermal correction to Enthalpy=                  0.169273
 Thermal correction to Gibbs Free Energy=         0.130485
 Sum of electronic and zero-point Energies=           -422.984041
 Sum of electronic and thermal Energies=              -422.977128
 Sum of electronic and thermal Enthalpies=            -422.976184
 Sum of electronic and thermal Free Energies=         -423.014972

                     E (Thermal)             CV                S
                      KCal/Mol        Cal/Mol-Kelvin    Cal/Mol-Kelvin
 Total                  105.628             28.577             81.635
 Electronic               0.000              0.000              0.000
 Translational            0.889              2.981             40.409
 Rotational               0.889              2.981             28.124
 Vibrational            103.850             22.615             13.103
 Vibration     1          0.632              1.858              2.258
 Vibration     2          0.648              1.807              1.938
 Vibration     3          0.670              1.742              1.646
 Vibration     4          0.692              1.676              1.424
 Vibration     5          0.754              1.501              1.016
 Vibration     6          0.773              1.452              0.933
 Vibration     7          0.840              1.285              0.699
 Vibration     8          0.955              1.039              0.455

 Optimization completed.
    -- Stationary point found.
 Normal termination of Gaussian 09 at Tue Jan 28 00:52:56 2020.
