 Gaussian 09, Revision D.01,
 Gaussian 09:  ES64L-G09RevD.01 24-Apr-2013

 -----------------------------
 # b3lyp 6-31G(2df,p) opt Freq
 -----------------------------

 -----
 titel
 -----
 Symbolic Z-matrix:
 Charge =  0 Multiplicity = 1

 SCF Done:  E(RB3LYP) =  -423.231431708     A.U. after   14 cycles
 Optimization completed.
    -- Stationary point found.
 Normal termination of Gaussian 09 at Tue Jan 28 00:40:02 2020.

 ----------------------------------------------------------------------
 #N Geom=AllCheck Guess=TCheck SCRF=Check GenChk RB3LYP/6-31G(2df,p) Fr
 eq
 ----------------------------------------------------------------------

 Structure from the checkpoint file:  "/scratch/puck/g09_0e76f60e-0b5a-45c2-a2d0-0dd1956ed335/Gau-189580.chk"
 -----
 titel
 -----
 Charge =  0 Multiplicity = 1

                         Standard orientation:
 ---------------------------------------------------------------------
 Center     Atomic      Atomic             Coordinates (Angstroms)
 Number     Number       Type             X           Y           Z
 ---------------------------------------------------------------------
      1          6           0        2.664045   -0.651512    0.080349
      2          6           0        1.264499   -0.115594    0.360640
      3          8           0        0.365540   -1.088420   -0.219897
      4          6           0       -0.973797   -1.038996   -0.023729
      5          8           0       -1.662443   -1.904185   -0.494232
      6          6           0       -1.531593    0.139468    0.756904
      7          6           0       -1.455692    1.454379   -0.039551
      8          6           0       -0.070883    1.928140   -0.381093
      9          6           0        1.077763    1.278084   -0.202938
     10          1           0        2.850630   -0.680539   -0.997051
     11          1           0        3.414334   -0.007574    0.548447
     12          1           0        2.770182   -1.662916    0.478412
     13          1           0        1.107348   -0.111383    1.447621
     14          1           0       -2.572945   -0.102948    0.973047
     15          1           0       -1.009393    0.255489    1.712347
     16          1           0       -2.041956    1.354363   -0.963842
     17          1           0       -1.960993    2.240157    0.537203
     18          1           0       -0.028019    2.918826   -0.829989
     19          1           0        1.999988    1.773543   -0.496660
 ---------------------------------------------------------------------

 SCF Done:  E(RB3LYP) =  -423.231431708     A.U. after    1 cycles

 The electronic state is 1-A.
 Alpha  occ. eigenvalues --  -19.17209 -19.11199 -10.29912 -10.25665 -10.20703
 Alpha  occ. eigenvalues --  -10.20177 -10.20006 -10.19336 -10.18676  -1.08821
 Alpha  occ. eigenvalues --   -1.00768  -0.82603  -0.79508  -0.73738  -0.67692
 Alpha  occ. eigenvalues --   -0.64115  -0.57165  -0.54703  -0.51224  -0.49417
 Alpha  occ. eigenvalues --   -0.46017  -0.44185  -0.43392  -0.41671  -0.41306
 Alpha  occ. eigenvalues --   -0.39883  -0.38389  -0.38205  -0.36245  -0.35076
 Alpha  occ. eigenvalues --   -0.32981  -0.28721  -0.26237  -0.25689
 Alpha virt. eigenvalues --   -0.00258   0.01820   0.08267   0.09343   0.11417
 Alpha virt. eigenvalues --    0.12735   0.14395   0.15647   0.15711   0.16343
 Alpha virt. eigenvalues --    0.17352   0.18233   0.19290   0.20888   0.22532

 Mulliken charges:
               1
     1  C   -0.405972
     2  C    0.073967
     3  O   -0.227997
     4  C    0.411651
     5  O   -0.323854
     6  C   -0.347433
     7  C   -0.255893
     8  C   -0.060678
     9  C   -0.049984
    10  H    0.136678
    11  H    0.120145
    12  H    0.131868
    13  H    0.098797
    14  H    0.130102
    15  H    0.122525
    16  H    0.134021
    17  H    0.118493
    18  H    0.097811
    19  H    0.095752
 Sum of Mulliken charges =   0.00000

 Dipole moment (field-independent basis, Debye):
    X=              1.5359    Y=              3.5139    Z=              1.7450  Tot=              4.2132
 Quadrupole moment (field-independent basis, Debye-Ang):
   XX=            -51.3479   YY=            -58.0535   ZZ=            -52.7055
   XY=             -5.5443   XZ=             -1.4997   YZ=             -3.4756

  Exact polarizability:  95.331  -2.376  79.614   1.069  -1.702  57.796
 Approx polarizability: 135.595  -1.852 114.459   6.134   0.911  90.960

                      1                      2                      3
                      A                      A                      A
 Frequencies --     75.6662               130.0908               197.5013
 Red. masses --      3.4675                 3.9750                 2.7394
 Frc consts  --      0.0117                 0.0396                 0.0630
 IR Inten    --      0.8937                 0.2448                 3.5290

                      4                      5                      6
                      A                      A                      A
 Frequencies --    247.0421               278.4102               330.0826
 Red. masses --      1.1683                 2.8480                 2.5998
 Frc consts  --      0.0420                 0.1301                 0.1669
 IR Inten    --      0.3542                 1.5610                 0.3369

                      7                      8                      9
                      A                      A                      A
 Frequencies --    362.6148               378.9574               489.5624
 Red. masses --      3.5314                 3.8385                 2.8248
 Frc consts  --      0.2736                 0.3248                 0.3989
 IR Inten    --      0.0779                 1.1115                 4.7208

                     10                     11                     12
                      A                      A                      A
 Frequencies --    520.1688               589.0701               659.6281
 Red. masses --      2.8803                 2.5959                 2.3187
 Frc consts  --      0.4592                 0.5307                 0.5944
 IR Inten    --      2.4758                10.2298                 4.0483

                     13                     14                     15
                      A                      A                      A
 Frequencies --    730.7577               754.3676               796.8696
 Red. masses --      2.8868                 3.9894                 1.9964
 Frc consts  --      0.9083                 1.3376                 0.7469
 IR Inten    --     12.5110                 6.5615                 5.4024

                     16                     17                     18
                      A                      A                      A
 Frequencies --    847.3244               888.9864               940.0373
 Red. masses --      2.7980                 2.3512                 2.2465
 Frc consts  --      1.1836                 1.0948                 1.1696
 IR Inten    --      0.3869                 9.5983                 9.2510

                     19                     20                     21
                      A                      A                      A
 Frequencies --    998.3608              1005.1563              1034.4323
 Red. masses --      2.3239                 1.2133                 1.8059
 Frc consts  --      1.3647                 0.7223                 1.1386
 IR Inten    --     17.7465                 0.2994                 1.2822

                     22                     23                     24
                      A                      A                      A
 Frequencies --   1049.5688              1070.6728              1109.0834
 Red. masses --      2.2353                 2.8629                 1.8025
 Frc consts  --      1.4508                 1.9336                 1.3063
 IR Inten    --      9.8062                60.6335                 7.0286

                     25                     26                     27
                      A                      A                      A
 Frequencies --   1151.4425              1172.6530              1221.6657
 Red. masses --      2.1341                 1.6342                 1.4551
 Frc consts  --      1.6671                 1.3240                 1.2795
 IR Inten    --     66.1990                34.3741                68.8092

                     28                     29                     30
                      A                      A                      A
 Frequencies --   1260.6173              1290.1297              1334.7130
 Red. masses --      1.2562                 1.4195                 1.4128
 Frc consts  --      1.1762                 1.3920                 1.4829
 IR Inten    --     45.2589                48.0147                28.4540

                     31                     32                     33
                      A                      A                      A
 Frequencies --   1350.4309              1365.1019              1388.1445
 Red. masses --      1.4793                 1.3158                 1.5514
 Frc consts  --      1.5894                 1.4447                 1.7614
 IR Inten    --     29.2707                10.3417                21.7591

                     34                     35                     36
                      A                      A                      A
 Frequencies --   1409.6536              1429.3434              1474.0858
 Red. masses --      1.2892                 1.4496                 1.0826
 Frc consts  --      1.5093                 1.7449                 1.3861
 IR Inten    --      5.8726                 1.4964                 7.5966

                     37                     38                     39
                      A                      A                      A
 Frequencies --   1486.3923              1489.0127              1498.2247
 Red. masses --      1.0605                 1.0935                 1.0488
 Frc consts  --      1.3804                 1.4284                 1.3871
 IR Inten    --      2.2036                16.9890                 2.9726

                     40                     41                     42
                      A                      A                      A
 Frequencies --   1732.5435              1839.9331              3008.3346
 Red. masses --      7.3208                11.8476                 1.0822
 Frc consts  --     12.9473                23.6311                 5.7705
 IR Inten    --     10.6700               324.8437                21.1154

                     43                     44                     45
                      A                      A                      A
 Frequencies --   3012.9761              3036.6397              3047.7856
 Red. masses --      1.0615                 1.0947                 1.0350
 Frc consts  --      5.6776                 5.9473                 5.6645
 IR Inten    --     22.2039                 9.4643                12.8553

                     46                     47                     48
                      A                      A                      A
 Frequencies --   3060.6512              3122.3631              3126.2015
 Red. masses --      1.0685                 1.1020                 1.0988
 Frc consts  --      5.8975                 6.3297                 6.3270
 IR Inten    --     21.3854                17.3257                12.2659

                     49                     50                     51
                      A                      A                      A
 Frequencies --   3134.4789              3138.6083              3163.2067
 Red. masses --      1.1009                 1.0852                 1.0946
 Frc consts  --      6.3726                 6.2987                 6.4532
 IR Inten    --     18.4595                 2.6997                25.0224

 - Thermochemistry -
 -------------------
 Temperature   298.150 Kelvin.  Pressure   1.00000 Atm.
 Atom     1 has atomic number  6 and mass  12.00000

 Molecular mass:   126.06808 amu.
 Principal axes and moments of inertia in atomic units:
                           1         2         3
     Eigenvalues --   822.876301088.082951731.94411
           X            0.99047  -0.13748  -0.00809
           Y            0.13732   0.99038  -0.01720
           Z            0.01038   0.01592   0.99982
 This molecule is an asymmetric top.
 Rotational symmetry number  1.
 Warning -- assumption of classical behavior for rotation
           may cause significant error
 Rotational temperatures (Kelvin)      0.10526     0.07960     0.05001
 Rotational constants (GHZ):           2.19321     1.65864     1.04203
 Zero-point vibrational energy     420067.2 (Joules/Mol)
                                  100.39846 (Kcal/Mol)
 Warning -- explicit consideration of  11 degrees of freedom as
           vibrations may cause significant error
 Vibrational temperatures:    108.87   187.17   284.16   355.44   400.57
          (Kelvin)            474.91   521.72   545.23   704.37   748.41
                              847.54   949.06  1051.40  1085.37  1146.52
                             1219.11  1279.05  1352.50  1436.42  1446.19
                             1488.32  1510.09  1540.46  1595.72  1656.67
                             1687.18  1757.70  1813.74  1856.21  1920.35
                             1942.97  1964.07  1997.23  2028.17  2056.50
                             2120.88  2138.58  2142.35  2155.61  2492.74
                             2647.25  4328.32  4335.00  4369.04  4385.08
                             4403.59  4492.38  4497.90  4509.81  4515.75
                             4551.14

 Zero-point correction=                           0.159995 (Hartree/Particle)
 Thermal correction to Energy=                    0.168372
 Thermal correction to Enthalpy=                  0.169316
 Thermal correction to Gibbs Free Energy=         0.126944
 Sum of electronic and zero-point Energies=           -423.071437
 Sum of electronic and thermal Energies=              -423.063059
 Sum of electronic and thermal Enthalpies=            -423.062115
 Sum of electronic and thermal Free Energies=         -423.104488

                     E (Thermal)             CV                S
                      KCal/Mol        Cal/Mol-Kelvin    Cal/Mol-Kelvin
 Total                  105.655             32.016             89.180
 Electronic               0.000              0.000              0.000
 Translational            0.889              2.981             40.409
 Rotational               0.889              2.981             28.830
 Vibrational            103.878             26.055             19.942
 Vibration     1          0.599              1.965              4.000
 Vibration     2          0.612              1.923              2.945
 Vibration     3          0.637              1.843              2.156
 Vibration     4          0.661              1.768              1.752
 Vibration     5          0.679              1.713              1.543
 Vibration     6          0.713              1.615              1.260
 Vibration     7          0.736              1.549              1.111
 Vibration     8          0.749              1.515              1.043
 Vibration     9          0.845              1.273              0.685
 Vibration    10          0.875              1.205              0.610
 Vibration    11          0.946              1.055              0.469

 Optimization completed.
    -- Stationary point found.
 Normal termination of Gaussian 09 at Tue Jan 28 01:22:34 2020.
