 Gaussian 09, Revision D.01,
 Gaussian 09:  ES64L-G09RevD.01 24-Apr-2013

 -----------------------------
 # b3lyp 6-31G(2df,p) opt Freq
 -----------------------------

 -----
 titel
 -----
 Symbolic Z-matrix:
 Charge =  0 Multiplicity = 1

 SCF Done:  E(RB3LYP) =  -423.160319819     A.U. after   14 cycles
 Optimization completed.
    -- Stationary point found.
 Normal termination of Gaussian 09 at Mon Jan 27 18:31:59 2020.

 ----------------------------------------------------------------------
 #N Geom=AllCheck Guess=TCheck SCRF=Check GenChk RB3LYP/6-31G(2df,p) Fr
 eq
 ----------------------------------------------------------------------

 Structure from the checkpoint file:  "/scratch/puck/g09_87967cbe-d92e-4e21-aae0-a81154cdb12b/Gau-81924.chk"
 -----
 titel
 -----
 Charge =  0 Multiplicity = 1

                         Standard orientation:
 ---------------------------------------------------------------------
 Center     Atomic      Atomic             Coordinates (Angstroms)
 Number     Number       Type             X           Y           Z
 ---------------------------------------------------------------------
      1          6           0       -1.257845    1.880151   -0.799730
      2          6           0       -0.594941    0.785449   -0.017524
      3          6           0       -0.734701    0.540749    1.481838
      4          8           0       -0.621045   -0.895701    1.291350
      5          6           0       -0.598571   -0.714448   -0.132199
      6          6           0       -1.312587   -1.721056   -0.972686
      7          6           0        0.658410    0.044294   -0.535796
      8          6           0        1.943928   -0.072132    0.189474
      9          8           0        3.023299    0.072043   -0.337681
     10          1           0       -2.304022    2.000283   -0.496492
     11          1           0       -0.751622    2.840415   -0.649069
     12          1           0       -1.241992    1.665589   -1.872579
     13          1           0        0.024745    0.941117    2.161452
     14          1           0       -1.733214    0.797446    1.855455
     15          1           0       -2.355943   -1.818269   -0.656998
     16          1           0       -1.288126   -1.429480   -2.026236
     17          1           0       -0.835060   -2.702590   -0.881721
     18          1           0        0.782054    0.162679   -1.609051
     19          1           0        1.862997   -0.325962    1.265620
 ---------------------------------------------------------------------

 SCF Done:  E(RB3LYP) =  -423.160319819     A.U. after    1 cycles

 The electronic state is 1-A.
 Alpha  occ. eigenvalues --  -19.15089 -19.12592 -10.26152 -10.26001 -10.24577
 Alpha  occ. eigenvalues --  -10.22043 -10.20183 -10.19835 -10.19617  -1.06576
 Alpha  occ. eigenvalues --   -1.03206  -0.85601  -0.76337  -0.73166  -0.68616
 Alpha  occ. eigenvalues --   -0.65080  -0.56743  -0.51800  -0.50861  -0.48880
 Alpha  occ. eigenvalues --   -0.47623  -0.43560  -0.42635  -0.42358  -0.41756
 Alpha  occ. eigenvalues --   -0.40629  -0.39886  -0.39731  -0.38689  -0.33550
 Alpha  occ. eigenvalues --   -0.32173  -0.28792  -0.25869  -0.22892
 Alpha virt. eigenvalues --   -0.01852   0.06968   0.07835   0.10392   0.10874
 Alpha virt. eigenvalues --    0.12153   0.13335   0.15245   0.15400   0.16309
 Alpha virt. eigenvalues --    0.16991   0.17816   0.18372   0.19128   0.21543

 Mulliken charges:
               1
     1  C   -0.496021
     2  C    0.179282
     3  C   -0.142431
     4  O   -0.320700
     5  C    0.403132
     6  C   -0.488323
     7  C   -0.222038
     8  C    0.146139
     9  O   -0.277184
    10  H    0.125885
    11  H    0.134342
    12  H    0.129344
    13  H    0.113585
    14  H    0.113875
    15  H    0.133359
    16  H    0.130587
    17  H    0.142722
    18  H    0.104719
    19  H    0.089727
 Sum of Mulliken charges =   0.00000

 Dipole moment (field-independent basis, Debye):
    X=             -3.5968    Y=              1.0130    Z=             -0.4672  Tot=              3.7658
 Quadrupole moment (field-independent basis, Debye-Ang):
   XX=            -63.3724   YY=            -51.7149   ZZ=            -51.8125
   XY=             -1.4728   XZ=              3.2412   YZ=              3.2159

  Exact polarizability:  88.027  -0.664  72.530  -1.623   2.181  73.364
 Approx polarizability: 130.130   0.753 104.989  -9.097   0.546 108.971

                      1                      2                      3
                      A                      A                      A
 Frequencies --     86.1897               153.5833               182.4757
 Red. masses --      4.7781                 3.0024                 2.8372
 Frc consts  --      0.0209                 0.0417                 0.0557
 IR Inten    --      4.4640                 2.4627                 1.6600

                      4                      5                      6
                      A                      A                      A
 Frequencies --    186.4710               197.3878               226.4744
 Red. masses --      1.0749                 1.0519                 2.3603
 Frc consts  --      0.0220                 0.0241                 0.0713
 IR Inten    --      0.1177                 0.0265                 3.1384

                      7                      8                      9
                      A                      A                      A
 Frequencies --    258.2214               299.2208               360.2615
 Red. masses --      2.5199                 2.9945                 2.6820
 Frc consts  --      0.0990                 0.1580                 0.2051
 IR Inten    --      2.9475                 0.5307                 2.3517

                     10                     11                     12
                      A                      A                      A
 Frequencies --    465.0339               484.1438               556.8724
 Red. masses --      4.0263                 3.1570                 3.9257
 Frc consts  --      0.5130                 0.4360                 0.7173
 IR Inten    --     18.5962                 2.3206                 2.1161

                     13                     14                     15
                      A                      A                      A
 Frequencies --    589.1241               692.9398               747.8807
 Red. masses --      3.6495                 3.6940                 3.6402
 Frc consts  --      0.7463                 1.0450                 1.1996
 IR Inten    --      1.1000                 6.5803                 6.6523

                     16                     17                     18
                      A                      A                      A
 Frequencies --    861.4501               910.9399               965.8791
 Red. masses --      3.3810                 2.3966                 1.6156
 Frc consts  --      1.4783                 1.1717                 0.8880
 IR Inten    --      2.7308                22.1780                10.1514

                     19                     20                     21
                      A                      A                      A
 Frequencies --    969.0648               983.1146              1033.2788
 Red. masses --      1.2738                 5.1875                 1.4359
 Frc consts  --      0.7048                 2.9540                 0.9033
 IR Inten    --     14.3252                56.1658                 5.1782

                     22                     23                     24
                      A                      A                      A
 Frequencies --   1056.6619              1099.1519              1118.5723
 Red. masses --      1.8720                 1.6560                 1.9868
 Frc consts  --      1.2315                 1.1788                 1.4646
 IR Inten    --      1.0128                21.7644                20.3497

                     25                     26                     27
                      A                      A                      A
 Frequencies --   1123.1488              1153.7360              1179.2542
 Red. masses --      3.4399                 1.3449                 1.9408
 Frc consts  --      2.5567                 1.0547                 1.5902
 IR Inten    --    104.9089                 4.2753                25.8940

                     28                     29                     30
                      A                      A                      A
 Frequencies --   1216.5939              1252.6446              1290.0055
 Red. masses --      3.1061                 1.6107                 1.9735
 Frc consts  --      2.7087                 1.4891                 1.9349
 IR Inten    --     26.6597                 2.9168                11.6848

                     31                     32                     33
                      A                      A                      A
 Frequencies --   1345.2840              1409.6237              1417.8577
 Red. masses --      1.7693                 1.3257                 1.2366
 Frc consts  --      1.8866                 1.5521                 1.4646
 IR Inten    --      8.8910                 5.3007                 3.0642

                     34                     35                     36
                      A                      A                      A
 Frequencies --   1430.9386              1471.8806              1483.2012
 Red. masses --      1.3209                 1.0782                 1.1874
 Frc consts  --      1.5935                 1.3763                 1.5390
 IR Inten    --      1.8334                 2.7494                 0.7915

                     37                     38                     39
                      A                      A                      A
 Frequencies --   1490.1853              1495.9217              1508.3615
 Red. masses --      1.1455                 1.0983                 1.5988
 Frc consts  --      1.4988                 1.4481                 2.1432
 IR Inten    --      4.2425                 3.5025                23.6559

                     40                     41                     42
                      A                      A                      A
 Frequencies --   1523.9664              1801.7026              2927.8370
 Red. masses --      1.2939                 9.5155                 1.0825
 Frc consts  --      1.7706                18.1990                 5.4672
 IR Inten    --      4.2660               250.0201                58.9203

                     43                     44                     45
                      A                      A                      A
 Frequencies --   3025.4590              3029.1067              3037.4159
 Red. masses --      1.0461                 1.0462                 1.0353
 Frc consts  --      5.6417                 5.6557                 5.6275
 IR Inten    --     29.9822                62.6954                16.4137

                     46                     47                     48
                      A                      A                      A
 Frequencies --   3078.7168              3088.1538              3103.3583
 Red. masses --      1.1095                 1.1012                 1.1011
 Frc consts  --      6.1960                 6.1875                 6.2481
 IR Inten    --     26.5659                21.9126                14.2785

                     49                     50                     51
                      A                      A                      A
 Frequencies --   3104.5223              3120.8193              3158.1057
 Red. masses --      1.1001                 1.1010                 1.0870
 Frc consts  --      6.2468                 6.3177                 6.3875
 IR Inten    --     13.5492                12.6650                 4.9704

 - Thermochemistry -
 -------------------
 Temperature   298.150 Kelvin.  Pressure   1.00000 Atm.
 Atom     1 has atomic number  6 and mass  12.00000

 Molecular mass:   126.06808 amu.
 Principal axes and moments of inertia in atomic units:
                           1         2         3
     Eigenvalues --   845.990651354.679241491.22893
           X            0.99910  -0.02069   0.03701
           Y            0.01754   0.99635   0.08353
           Z           -0.03861  -0.08281   0.99582
 This molecule is an asymmetric top.
 Rotational symmetry number  1.
 Warning -- assumption of classical behavior for rotation
           may cause significant error
 Rotational temperatures (Kelvin)      0.10238     0.06394     0.05808
 Rotational constants (GHZ):           2.13329     1.33223     1.21024
 Zero-point vibrational energy     411229.4 (Joules/Mol)
                                   98.28620 (Kcal/Mol)
 Warning -- explicit consideration of  13 degrees of freedom as
           vibrations may cause significant error
 Vibrational temperatures:    124.01   220.97   262.54   268.29   284.00
          (Kelvin)            325.85   371.52   430.51   518.34   669.08
                              696.57   801.21   847.62   996.98  1076.03
                             1239.43  1310.64  1389.68  1394.27  1414.48
                             1486.66  1520.30  1581.43  1609.37  1615.96
                             1659.97  1696.68  1750.41  1802.27  1856.03
                             1935.56  2028.13  2039.98  2058.80  2117.71
                             2133.99  2144.04  2152.29  2170.19  2192.65
                             2592.24  4212.50  4352.96  4358.20  4370.16
                             4429.58  4443.16  4465.03  4466.71  4490.16
                             4543.80

 Zero-point correction=                           0.156629 (Hartree/Particle)
 Thermal correction to Energy=                    0.165922
 Thermal correction to Enthalpy=                  0.166866
 Thermal correction to Gibbs Free Energy=         0.122747
 Sum of electronic and zero-point Energies=           -423.003691
 Sum of electronic and thermal Energies=              -422.994398
 Sum of electronic and thermal Enthalpies=            -422.993453
 Sum of electronic and thermal Free Energies=         -423.037573

                     E (Thermal)             CV                S
                      KCal/Mol        Cal/Mol-Kelvin    Cal/Mol-Kelvin
 Total                  104.118             34.156             92.857
 Electronic               0.000              0.000              0.000
 Translational            0.889              2.981             40.409
 Rotational               0.889              2.981             28.926
 Vibrational            102.340             28.194             23.522
 Vibration     1          0.601              1.959              3.745
 Vibration     2          0.619              1.899              2.627
 Vibration     3          0.630              1.864              2.303
 Vibration     4          0.632              1.858              2.263
 Vibration     5          0.637              1.844              2.157
 Vibration     6          0.650              1.801              1.907
 Vibration     7          0.667              1.749              1.674
 Vibration     8          0.692              1.675              1.421
 Vibration     9          0.735              1.554              1.121
 Vibration    10          0.822              1.328              0.752
 Vibration    11          0.840              1.285              0.699
 Vibration    12          0.912              1.125              0.530
 Vibration    13          0.946              1.055              0.469

 Normal termination of Gaussian 09 at Mon Jan 27 19:21:32 2020.
