 Gaussian 09, Revision D.01,
 Gaussian 09:  ES64L-G09RevD.01 24-Apr-2013

 -----------------------------
 # b3lyp 6-31G(2df,p) opt Freq
 -----------------------------

 -----
 titel
 -----
 Symbolic Z-matrix:
 Charge =  0 Multiplicity = 1

 SCF Done:  E(RB3LYP) =  -423.100259900     A.U. after   14 cycles
 Optimization completed.
    -- Stationary point found.
 Normal termination of Gaussian 09 at Mon Jan 27 18:07:03 2020.

 ----------------------------------------------------------------------
 #N Geom=AllCheck Guess=TCheck SCRF=Check GenChk RB3LYP/6-31G(2df,p) Fr
 eq
 ----------------------------------------------------------------------

 Structure from the checkpoint file:  "/scratch/puck/g09_fe12264b-91af-4a7c-b9e0-6861ab1a438d/Gau-62775.chk"
 -----
 titel
 -----
 Charge =  0 Multiplicity = 1

                         Standard orientation:
 ---------------------------------------------------------------------
 Center     Atomic      Atomic             Coordinates (Angstroms)
 Number     Number       Type             X           Y           Z
 ---------------------------------------------------------------------
      1          6           0        2.275799   -1.120547   -0.032627
      2          6           0        1.017020   -0.289479    0.030585
      3          6           0        0.137003   -0.077486    1.288837
      4          6           0       -0.806949    0.550076    0.208200
      5          6           0       -2.172830   -0.115072    0.099280
      6          8           0       -1.458712   -1.323393   -0.340191
      7          6           0       -0.307995   -0.510814   -0.759144
      8          8           0       -0.194921    1.778595   -0.120955
      9          6           0        1.148198    1.233813   -0.373933
     10          1           0        3.049167   -0.722150    0.634411
     11          1           0        2.075232   -2.153480    0.266800
     12          1           0        2.687120   -1.139795   -1.048533
     13          1           0       -0.240671   -1.002611    1.719263
     14          1           0        0.505152    0.608666    2.054513
     15          1           0       -2.748061   -0.286811    1.013443
     16          1           0       -2.816228    0.273289   -0.699493
     17          1           0       -0.305219   -0.377206   -1.845159
     18          1           0        1.404157    1.383126   -1.429581
     19          1           0        1.876934    1.752413    0.256313
 ---------------------------------------------------------------------

 SCF Done:  E(RB3LYP) =  -423.100259900     A.U. after    1 cycles

 The electronic state is 1-A.
 Alpha  occ. eigenvalues --  -19.14545 -19.14509 -10.24184 -10.24117 -10.23749
 Alpha  occ. eigenvalues --  -10.22347 -10.21397 -10.18320 -10.18148  -1.06182
 Alpha  occ. eigenvalues --   -1.02399  -0.83591  -0.74665  -0.70252  -0.67405
 Alpha  occ. eigenvalues --   -0.66323  -0.55700  -0.53620  -0.50986  -0.47941
 Alpha  occ. eigenvalues --   -0.47389  -0.46096  -0.43006  -0.41472  -0.40914
 Alpha  occ. eigenvalues --   -0.39381  -0.37199  -0.36098  -0.33948  -0.32754
 Alpha  occ. eigenvalues --   -0.32484  -0.27970  -0.25677  -0.23643
 Alpha virt. eigenvalues --    0.04738   0.08715   0.10537   0.12205   0.13098
 Alpha virt. eigenvalues --    0.13284   0.13815   0.14958   0.15256   0.16504
 Alpha virt. eigenvalues --    0.17075   0.17684   0.18546   0.20305   0.21349

 Mulliken charges:
               1
     1  C   -0.508022
     2  C    0.212675
     3  C   -0.313647
     4  C    0.389484
     5  C   -0.180878
     6  O   -0.313976
     7  C    0.063504
     8  O   -0.346789
     9  C   -0.115746
    10  H    0.119228
    11  H    0.131675
    12  H    0.119381
    13  H    0.118887
    14  H    0.094912
    15  H    0.115433
    16  H    0.115703
    17  H    0.075649
    18  H    0.108002
    19  H    0.114524
 Sum of Mulliken charges =   0.00000

 Dipole moment (field-independent basis, Debye):
    X=              1.1640    Y=              0.0801    Z=              0.2105  Tot=              1.1856
 Quadrupole moment (field-independent basis, Debye-Ang):
   XX=            -49.3092   YY=            -59.8923   ZZ=            -51.4601
   XY=             -0.9697   XZ=             -1.2747   YZ=             -0.6684

  Exact polarizability:  88.512   1.941  66.569  -1.628  -1.060  69.417
 Approx polarizability: 119.129   4.638 105.843  -2.818  -0.059 105.839

                      1                      2                      3
                      A                      A                      A
 Frequencies --    210.0654               221.5010               251.9732
 Red. masses --      1.0397                 2.9757                 2.3880
 Frc consts  --      0.0270                 0.0860                 0.0893
 IR Inten    --      0.0015                 0.6367                 0.7282

                      4                      5                      6
                      A                      A                      A
 Frequencies --    308.0268               349.0296               387.7678
 Red. masses --      2.1780                 3.5730                 3.2297
 Frc consts  --      0.1218                 0.2565                 0.2861
 IR Inten    --      2.9745                 6.9090                 9.1628

                      7                      8                      9
                      A                      A                      A
 Frequencies --    466.9713               491.4070               570.7716
 Red. masses --      2.3579                 2.4530                 4.1292
 Frc consts  --      0.3029                 0.3490                 0.7926
 IR Inten    --      2.9378                 1.9933                 0.1687

                     10                     11                     12
                      A                      A                      A
 Frequencies --    597.7619               684.6201               740.0423
 Red. masses --      4.1034                 3.8989                 3.1711
 Frc consts  --      0.8639                 1.0767                 1.0232
 IR Inten    --      5.2823                 3.5380                 5.8362

                     13                     14                     15
                      A                      A                      A
 Frequencies --    820.8932               837.4199               889.2454
 Red. masses --      3.6470                 2.4175                 3.0011
 Frc consts  --      1.4480                 0.9989                 1.3982
 IR Inten    --      9.6935                 6.3459                17.1674

                     16                     17                     18
                      A                      A                      A
 Frequencies --    914.5301               922.8647               941.1493
 Red. masses --      2.8515                 4.9158                 2.6265
 Frc consts  --      1.4052                 2.4667                 1.3707
 IR Inten    --     22.8933                71.6102                25.7459

                     19                     20                     21
                      A                      A                      A
 Frequencies --    960.5165               995.5754              1020.5378
 Red. masses --      2.9275                 1.6293                 2.0351
 Frc consts  --      1.5913                 0.9515                 1.2488
 IR Inten    --      9.9007                 4.9689                 8.4452

                     22                     23                     24
                      A                      A                      A
 Frequencies --   1044.3716              1052.1053              1095.6638
 Red. masses --      1.4208                 2.0228                 2.0662
 Frc consts  --      0.9131                 1.3192                 1.4614
 IR Inten    --     13.1713                 7.9382                 1.4277

                     25                     26                     27
                      A                      A                      A
 Frequencies --   1140.5098              1161.4221              1171.4865
 Red. masses --      1.3156                 1.4498                 1.4067
 Frc consts  --      1.0082                 1.1522                 1.1374
 IR Inten    --      3.5508                 1.3888                 1.1221

                     28                     29                     30
                      A                      A                      A
 Frequencies --   1194.2403              1227.2540              1232.3744
 Red. masses --      2.1214                 1.7424                 2.0399
 Frc consts  --      1.7826                 1.5462                 1.8253
 IR Inten    --      2.8997                22.6611                 6.9198

                     31                     32                     33
                      A                      A                      A
 Frequencies --   1265.1567              1286.1640              1328.0603
 Red. masses --      2.1975                 1.8473                 1.2747
 Frc consts  --      2.0723                 1.8005                 1.3246
 IR Inten    --     26.7801                 7.2077                15.7769

                     34                     35                     36
                      A                      A                      A
 Frequencies --   1341.8291              1374.8297              1412.9585
 Red. masses --      2.7076                 1.7373                 1.3374
 Frc consts  --      2.8723                 1.9348                 1.5731
 IR Inten    --     22.1792                 1.4138                 2.4826

                     37                     38                     39
                      A                      A                      A
 Frequencies --   1484.0574              1489.5562              1494.9179
 Red. masses --      1.1354                 1.0522                 1.0480
 Frc consts  --      1.4733                 1.3755                 1.3799
 IR Inten    --      2.5682                 4.7834                 5.2687

                     40                     41                     42
                      A                      A                      A
 Frequencies --   1508.7178              1512.6922              3025.2617
 Red. masses --      1.1009                 1.1329                 1.0377
 Frc consts  --      1.4764                 1.5274                 5.5954
 IR Inten    --      0.5612                 2.1320                23.3503

                     43                     44                     45
                      A                      A                      A
 Frequencies --   3028.5362              3031.8293              3062.8471
 Red. masses --      1.0574                 1.0576                 1.0860
 Frc consts  --      5.7141                 5.7278                 6.0024
 IR Inten    --     67.5186                48.9538                49.8101

                     46                     47                     48
                      A                      A                      A
 Frequencies --   3079.3114              3086.8696              3091.1819
 Red. masses --      1.0621                 1.1015                 1.1061
 Frc consts  --      5.9337                 6.1842                 6.2272
 IR Inten    --     12.6842                 4.2043                47.6691

                     49                     50                     51
                      A                      A                      A
 Frequencies --   3098.1673              3105.4045              3164.3675
 Red. masses --      1.1089                 1.1001                 1.1066
 Frc consts  --      6.2712                 6.2508                 6.5285
 IR Inten    --     31.2352                15.6781                10.6755

 - Thermochemistry -
 -------------------
 Temperature   298.150 Kelvin.  Pressure   1.00000 Atm.
 Atom     1 has atomic number  6 and mass  12.00000

 Molecular mass:   126.06808 amu.
 Principal axes and moments of inertia in atomic units:
                           1         2         3
     Eigenvalues --   643.343141001.515851308.24366
           X            0.99922  -0.03870  -0.00730
           Y            0.03856   0.99908  -0.01854
           Z            0.00801   0.01824   0.99980
 This molecule is an asymmetric top.
 Rotational symmetry number  1.
 Warning -- assumption of classical behavior for rotation
           may cause significant error
 Rotational temperatures (Kelvin)      0.13463     0.08648     0.06621
 Rotational constants (GHZ):           2.80525     1.80201     1.37951
 Zero-point vibrational energy     419738.6 (Joules/Mol)
                                  100.31993 (Kcal/Mol)
 Warning -- explicit consideration of  10 degrees of freedom as
           vibrations may cause significant error
 Vibrational temperatures:    302.24   318.69   362.53   443.18   502.18
          (Kelvin)            557.91   671.87   707.02   821.21   860.04
                              985.01  1064.75  1181.08  1204.86  1279.42
                             1315.80  1327.79  1354.10  1381.97  1432.41
                             1468.32  1502.62  1513.74  1576.41  1640.94
                             1671.03  1685.51  1718.24  1765.74  1773.11
                             1820.28  1850.50  1910.78  1930.59  1978.07
                             2032.93  2135.22  2143.14  2150.85  2170.71
                             2176.42  4352.67  4357.38  4362.12  4406.75
                             4430.44  4441.31  4447.52  4457.57  4467.98
                             4552.81

 Zero-point correction=                           0.159870 (Hartree/Particle)
 Thermal correction to Energy=                    0.167123
 Thermal correction to Enthalpy=                  0.168068
 Thermal correction to Gibbs Free Energy=         0.128760
 Sum of electronic and zero-point Energies=           -422.940390
 Sum of electronic and thermal Energies=              -422.933136
 Sum of electronic and thermal Enthalpies=            -422.932192
 Sum of electronic and thermal Free Energies=         -422.971500

                     E (Thermal)             CV                S
                      KCal/Mol        Cal/Mol-Kelvin    Cal/Mol-Kelvin
 Total                  104.872             30.105             82.730
 Electronic               0.000              0.000              0.000
 Translational            0.889              2.981             40.409
 Rotational               0.889              2.981             28.224
 Vibrational            103.094             24.144             14.097
 Vibration     1          0.642              1.825              2.043
 Vibration     2          0.648              1.808              1.947
 Vibration     3          0.664              1.759              1.717
 Vibration     4          0.698              1.658              1.373
 Vibration     5          0.726              1.577              1.171
 Vibration     6          0.756              1.496              1.009
 Vibration     7          0.824              1.323              0.746
 Vibration     8          0.847              1.269              0.680
 Vibration     9          0.927              1.094              0.503
 Vibration    10          0.956              1.037              0.454

 Normal termination of Gaussian 09 at Mon Jan 27 18:53:23 2020.
