 Gaussian 09, Revision D.01,
 Gaussian 09:  ES64L-G09RevD.01 24-Apr-2013

 -----------------------------
 # b3lyp 6-31G(2df,p) opt Freq
 -----------------------------

 -----
 titel
 -----
 Symbolic Z-matrix:
 Charge =  0 Multiplicity = 1

 SCF Done:  E(RB3LYP) =  -423.166250748     A.U. after   14 cycles
 Optimization completed.
    -- Stationary point found.
 Normal termination of Gaussian 09 at Tue Jan 28 03:51:28 2020.

 ----------------------------------------------------------------------
 #N Geom=AllCheck Guess=TCheck SCRF=Check GenChk RB3LYP/6-31G(2df,p) Fr
 eq
 ----------------------------------------------------------------------

 Structure from the checkpoint file:  "/scratch/puck/g09_a77955ce-08f7-4069-87fb-664b61458382/Gau-116688.chk"
 -----
 titel
 -----
 Charge =  0 Multiplicity = 1

                         Standard orientation:
 ---------------------------------------------------------------------
 Center     Atomic      Atomic             Coordinates (Angstroms)
 Number     Number       Type             X           Y           Z
 ---------------------------------------------------------------------
      1          6           0        1.832613   -1.402902    0.798204
      2          6           0        0.968579   -0.869107   -0.323489
      3          8           0        1.521971    0.308990   -0.964560
      4          6           0        0.271295    1.005761   -0.880387
      5          6           0        0.173315    1.953180    0.333069
      6          6           0       -0.431850    0.798123    1.188746
      7          6           0       -0.377780   -0.155526   -0.029473
      8          6           0       -1.633689   -0.838249   -0.453463
      9          8           0       -2.710369   -0.694215    0.072577
     10          1           0        1.359512   -2.273741    1.264464
     11          1           0        2.801974   -1.715089    0.397344
     12          1           0        2.013146   -0.646202    1.565686
     13          1           0        0.817783   -1.656589   -1.079059
     14          1           0       -0.094887    1.338945   -1.855537
     15          1           0        1.144924    2.337886    0.649227
     16          1           0       -0.512105    2.790648    0.180493
     17          1           0        0.144243    0.485966    2.061474
     18          1           0       -1.463885    0.971277    1.497229
     19          1           0       -1.518414   -1.498983   -1.344705
 ---------------------------------------------------------------------

 SCF Done:  E(RB3LYP) =  -423.166250748     A.U. after    1 cycles

 The electronic state is 1-A.
 Alpha  occ. eigenvalues --  -19.14299 -19.14217 -10.27289 -10.25102 -10.24995
 Alpha  occ. eigenvalues --  -10.20573 -10.19102 -10.19046 -10.18729  -1.05418
 Alpha  occ. eigenvalues --   -1.04706  -0.83710  -0.77240  -0.71326  -0.65714
 Alpha  occ. eigenvalues --   -0.60968  -0.60371  -0.53418  -0.51430  -0.49397
 Alpha  occ. eigenvalues --   -0.46154  -0.45229  -0.43697  -0.42693  -0.40260
 Alpha  occ. eigenvalues --   -0.39801  -0.37910  -0.37094  -0.35534  -0.34906
 Alpha  occ. eigenvalues --   -0.31589  -0.29179  -0.25622  -0.25225
 Alpha virt. eigenvalues --   -0.03455   0.06801   0.09047   0.10065   0.11133
 Alpha virt. eigenvalues --    0.11887   0.13082   0.15252   0.15561   0.16508
 Alpha virt. eigenvalues --    0.17224   0.17487   0.18604   0.20987   0.22469

 Mulliken charges:
               1
     1  C   -0.412496
     2  C    0.100609
     3  O   -0.308162
     4  C    0.080869
     5  C   -0.227982
     6  C   -0.309532
     7  C    0.176005
     8  C    0.062065
     9  O   -0.255342
    10  H    0.124094
    11  H    0.134458
    12  H    0.127687
    13  H    0.078046
    14  H    0.086622
    15  H    0.115710
    16  H    0.110662
    17  H    0.106791
    18  H    0.135866
    19  H    0.074031
 Sum of Mulliken charges =   0.00000

 Dipole moment (field-independent basis, Debye):
    X=              1.3543    Y=             -0.0974    Z=              0.1111  Tot=              1.3624
 Quadrupole moment (field-independent basis, Debye-Ang):
   XX=            -64.1924   YY=            -49.7024   ZZ=            -52.4881
   XY=             -3.6148   XZ=              3.9049   YZ=              0.5621

  Exact polarizability:  81.346  -0.925  78.502  -0.037   2.603  68.860
 Approx polarizability: 123.653   1.770 109.659  -7.812   2.396 103.701

                      1                      2                      3
                      A                      A                      A
 Frequencies --     80.3153                90.2501               202.0253
 Red. masses --      4.3059                 3.0841                 1.4433
 Frc consts  --      0.0164                 0.0148                 0.0347
 IR Inten    --      5.4507                 2.9213                 0.1164

                      4                      5                      6
                      A                      A                      A
 Frequencies --    219.3150               226.8815               280.5442
 Red. masses --      1.5601                 3.6781                 1.9336
 Frc consts  --      0.0442                 0.1116                 0.0897
 IR Inten    --      2.0371                 9.1282                 1.4597

                      7                      8                      9
                      A                      A                      A
 Frequencies --    339.4881               397.9427               489.5186
 Red. masses --      3.8109                 2.3871                 4.0576
 Frc consts  --      0.2588                 0.2227                 0.5729
 IR Inten    --      1.8290                 3.0950                 3.0782

                     10                     11                     12
                      A                      A                      A
 Frequencies --    520.2491               621.6485               724.9301
 Red. masses --      3.2589                 4.1368                 2.9639
 Frc consts  --      0.5197                 0.9419                 0.9177
 IR Inten    --      2.9610                 1.4145                11.4753

                     13                     14                     15
                      A                      A                      A
 Frequencies --    739.0161               812.8166               848.4008
 Red. masses --      1.3928                 2.6126                 2.2707
 Frc consts  --      0.4482                 1.0170                 0.9630
 IR Inten    --      1.5557                 0.8300                25.8721

                     16                     17                     18
                      A                      A                      A
 Frequencies --    870.4520               894.6422               952.7053
 Red. masses --      2.4694                 2.5012                 2.6325
 Frc consts  --      1.1024                 1.1795                 1.4078
 IR Inten    --     25.2083                18.1796                 1.2848

                     19                     20                     21
                      A                      A                      A
 Frequencies --    959.5146              1034.8712              1041.6981
 Red. masses --      1.8349                 1.7888                 2.6587
 Frc consts  --      0.9953                 1.1287                 1.6998
 IR Inten    --      0.9091                28.3605                42.8307

                     22                     23                     24
                      A                      A                      A
 Frequencies --   1081.5393              1099.4139              1111.1834
 Red. masses --      2.1123                 2.4115                 2.5844
 Frc consts  --      1.4557                 1.7174                 1.8801
 IR Inten    --     19.5796                43.2294                 3.1865

                     25                     26                     27
                      A                      A                      A
 Frequencies --   1126.3308              1190.0014              1209.7124
 Red. masses --      2.0368                 1.6245                 1.8989
 Frc consts  --      1.5224                 1.3554                 1.6372
 IR Inten    --     13.7148                12.9851                 0.2748

                     28                     29                     30
                      A                      A                      A
 Frequencies --   1236.3223              1241.7014              1259.1384
 Red. masses --      2.9172                 1.2766                 1.4165
 Frc consts  --      2.6271                 1.1597                 1.3232
 IR Inten    --     17.8259                 0.0537                 5.3348

                     31                     32                     33
                      A                      A                      A
 Frequencies --   1278.1752              1314.6711              1350.6504
 Red. masses --      1.5975                 1.3278                 1.4945
 Frc consts  --      1.5377                 1.3521                 1.6063
 IR Inten    --      3.8091                10.7965                21.5966

                     34                     35                     36
                      A                      A                      A
 Frequencies --   1393.2633              1413.1376              1428.0879
 Red. masses --      1.3673                 1.4382                 1.2165
 Frc consts  --      1.5638                 1.6921                 1.4618
 IR Inten    --      4.3409                21.6859                 4.3023

                     37                     38                     39
                      A                      A                      A
 Frequencies --   1464.1131              1480.2629              1483.9728
 Red. masses --      1.0893                 1.0642                 1.0858
 Frc consts  --      1.3757                 1.3739                 1.4088
 IR Inten    --      0.8112                 2.2348                 9.0123

                     40                     41                     42
                      A                      A                      A
 Frequencies --   1504.8017              1810.5033              2854.4771
 Red. masses --      1.0644                10.7541                 1.0819
 Frc consts  --      1.4201                20.7693                 5.1937
 IR Inten    --      4.4124               185.7767               102.6671

                     43                     44                     45
                      A                      A                      A
 Frequencies --   2970.9016              3040.8342              3062.9357
 Red. masses --      1.0838                 1.0358                 1.0691
 Frc consts  --      5.6362                 5.6433                 5.9092
 IR Inten    --     61.1151                11.3116                21.8750

                     46                     47                     48
                      A                      A                      A
 Frequencies --   3073.3405              3083.3469              3110.2854
 Red. masses --      1.0772                 1.0607                 1.1009
 Frc consts  --      5.9948                 5.9413                 6.2747
 IR Inten    --     63.9607                13.6902                12.7738

                     49                     50                     51
                      A                      A                      A
 Frequencies --   3121.4403              3125.0109              3140.7262
 Red. masses --      1.1075                 1.1012                 1.1066
 Frc consts  --      6.3575                 6.3360                 6.4315
 IR Inten    --      4.8491                22.1396                16.9839

 - Thermochemistry -
 -------------------
 Temperature   298.150 Kelvin.  Pressure   1.00000 Atm.
 Atom     1 has atomic number  6 and mass  12.00000

 Molecular mass:   126.06808 amu.
 Principal axes and moments of inertia in atomic units:
                           1         2         3
     Eigenvalues --   774.684901199.660921464.78207
           X            0.99694  -0.07163   0.03134
           Y            0.07126   0.99738   0.01277
           Z           -0.03217  -0.01049   0.99943
 This molecule is an asymmetric top.
 Rotational symmetry number  1.
 Warning -- assumption of classical behavior for rotation
           may cause significant error
 Rotational temperatures (Kelvin)      0.11181     0.07220     0.05913
 Rotational constants (GHZ):           2.32965     1.50438     1.23209
 Zero-point vibrational energy     415149.1 (Joules/Mol)
                                   99.22301 (Kcal/Mol)
 Warning -- explicit consideration of  10 degrees of freedom as
           vibrations may cause significant error
 Vibrational temperatures:    115.56   129.85   290.67   315.54   326.43
          (Kelvin)            403.64   488.45   572.55   704.31   748.52
                              894.41  1043.01  1063.28  1169.46  1220.66
                             1252.38  1287.19  1370.73  1380.53  1488.95
                             1498.77  1556.09  1581.81  1598.74  1620.54
                             1712.14  1740.50  1778.79  1786.53  1811.62
                             1839.01  1891.52  1943.28  2004.59  2033.19
                             2054.70  2106.53  2129.77  2135.10  2165.07
                             2604.91  4106.95  4274.46  4375.08  4406.88
                             4421.85  4436.24  4475.00  4491.05  4496.19
                             4518.80

 Zero-point correction=                           0.158122 (Hartree/Particle)
 Thermal correction to Energy=                    0.166666
 Thermal correction to Enthalpy=                  0.167610
 Thermal correction to Gibbs Free Energy=         0.124725
 Sum of electronic and zero-point Energies=           -423.008129
 Sum of electronic and thermal Energies=              -422.999585
 Sum of electronic and thermal Enthalpies=            -422.998641
 Sum of electronic and thermal Free Energies=         -423.041526

                     E (Thermal)             CV                S
                      KCal/Mol        Cal/Mol-Kelvin    Cal/Mol-Kelvin
 Total                  104.584             32.017             90.259
 Electronic               0.000              0.000              0.000
 Translational            0.889              2.981             40.409
 Rotational               0.889              2.981             28.700
 Vibrational            102.807             26.056             21.150
 Vibration     1          0.600              1.963              3.883
 Vibration     2          0.602              1.956              3.655
 Vibration     3          0.639              1.837              2.115
 Vibration     4          0.647              1.812              1.965
 Vibration     5          0.651              1.800              1.903
 Vibration     6          0.680              1.710              1.530
 Vibration     7          0.719              1.597              1.215
 Vibration     8          0.764              1.475              0.970
 Vibration     9          0.845              1.273              0.685
 Vibration    10          0.875              1.205              0.609

 Optimization completed.
    -- Stationary point found.
 Normal termination of Gaussian 09 at Tue Jan 28 04:33:12 2020.
