 Gaussian 09, Revision D.01,
 Gaussian 09:  ES64L-G09RevD.01 24-Apr-2013

 -----------------------------
 # b3lyp 6-31G(2df,p) opt Freq
 -----------------------------

 -----
 titel
 -----
 Symbolic Z-matrix:
 Charge =  0 Multiplicity = 1

 SCF Done:  E(RB3LYP) =  -423.122138016     A.U. after   12 cycles
 Optimization completed.
    -- Stationary point found.
 Normal termination of Gaussian 09 at Tue Jan 28 12:49:05 2020.

 ----------------------------------------------------------------------
 #N Geom=AllCheck Guess=TCheck SCRF=Check GenChk RB3LYP/6-31G(2df,p) Fr
 eq
 ----------------------------------------------------------------------

 Structure from the checkpoint file:  "/scratch/puck/g09_33c59e68-a0e6-44d4-bb06-619ccf1c91fa/Gau-10920.chk"
 -----
 titel
 -----
 Charge =  0 Multiplicity = 1

                         Standard orientation:
 ---------------------------------------------------------------------
 Center     Atomic      Atomic             Coordinates (Angstroms)
 Number     Number       Type             X           Y           Z
 ---------------------------------------------------------------------
      1          8           0       -2.959135   -0.280299   -0.214047
      2          6           0       -1.810262    0.490673    0.114402
      3          6           0       -0.539917   -0.038441   -0.537997
      4          6           0        0.010622   -1.308116    0.118889
      5          6           0        1.538273   -1.295643   -0.047181
      6          6           0        1.908173   -0.019452   -0.801408
      7          6           0        0.758266    0.640702    0.011462
      8          8           0        0.780403    1.980379    0.370202
      9          6           0        0.882595   -0.525542    1.072564
     10          1           0       -2.834882   -1.160012    0.155379
     11          1           0       -2.020664    1.501704   -0.248536
     12          1           0       -1.670360    0.561067    1.203868
     13          1           0       -0.663011   -0.050540   -1.629038
     14          1           0       -0.510930   -2.237262    0.315606
     15          1           0        2.112420   -2.209418    0.031080
     16          1           0        2.879793    0.363493   -0.476927
     17          1           0        1.838133   -0.002628   -1.895843
     18          1           0        0.803701    2.512195   -0.433546
     19          1           0        1.009160   -0.544323    2.144333
 ---------------------------------------------------------------------

 SCF Done:  E(RB3LYP) =  -423.122138016     A.U. after    1 cycles

 The electronic state is 1-A.
 Alpha  occ. eigenvalues --  -19.15013 -19.12790 -10.24655 -10.21826 -10.19663
 Alpha  occ. eigenvalues --  -10.19579 -10.19045 -10.18365 -10.18274  -1.03658
 Alpha  occ. eigenvalues --   -1.00801  -0.92789  -0.74658  -0.71116  -0.64743
 Alpha  occ. eigenvalues --   -0.62638  -0.54703  -0.54413  -0.52724  -0.49882
 Alpha  occ. eigenvalues --   -0.46337  -0.44828  -0.43407  -0.41752  -0.41372
 Alpha  occ. eigenvalues --   -0.38296  -0.35926  -0.34911  -0.32341  -0.30164
 Alpha  occ. eigenvalues --   -0.28206  -0.27667  -0.26096  -0.23911
 Alpha virt. eigenvalues --    0.06488   0.07531   0.11039   0.11529   0.12236
 Alpha virt. eigenvalues --    0.13734   0.14170   0.15657   0.16086   0.16712
 Alpha virt. eigenvalues --    0.17995   0.18733   0.19391   0.21831   0.22148

 Mulliken charges:
               1
     1  O   -0.427830
     2  C   -0.071013
     3  C   -0.098531
     4  C   -0.065752
     5  C   -0.077672
     6  C   -0.303563
     7  C    0.376695
     8  O   -0.479740
     9  C   -0.127863
    10  H    0.280889
    11  H    0.102583
    12  H    0.091582
    13  H    0.061299
    14  H    0.079633
    15  H    0.090190
    16  H    0.103394
    17  H    0.085746
    18  H    0.283923
    19  H    0.096030
 Sum of Mulliken charges =   0.00000

 Dipole moment (field-independent basis, Debye):
    X=              1.4792    Y=             -0.7497    Z=             -0.3358  Tot=              1.6919
 Quadrupole moment (field-independent basis, Debye-Ang):
   XX=            -59.4392   YY=            -48.5485   ZZ=            -52.6963
   XY=              1.7583   XZ=             -3.0490   YZ=             -5.1366

  Exact polarizability:  80.892  -0.609  75.245  -0.968  -2.801  66.353
 Approx polarizability: 109.391   1.114 112.406   1.067  -1.267 105.940

                      1                      2                      3
                      A                      A                      A
 Frequencies --     91.2561               153.9556               196.4753
 Red. masses --      3.1316                 4.9374                 1.1092
 Frc consts  --      0.0154                 0.0690                 0.0252
 IR Inten    --      3.3320                 0.5716                88.3272

                      4                      5                      6
                      A                      A                      A
 Frequencies --    210.1920               290.4154               310.7148
 Red. masses --      1.9452                 1.6858                 2.7199
 Frc consts  --      0.0506                 0.0838                 0.1547
 IR Inten    --     11.9534                76.0356                31.9404

                      7                      8                      9
                      A                      A                      A
 Frequencies --    353.8558               425.9938               494.9957
 Red. masses --      2.6591                 2.5767                 3.2734
 Frc consts  --      0.1962                 0.2755                 0.4726
 IR Inten    --     11.8823                 5.8767                 6.3778

                     10                     11                     12
                      A                      A                      A
 Frequencies --    512.7558               654.1796               729.7628
 Red. masses --      3.5095                 3.9111                 3.6034
 Frc consts  --      0.5436                 0.9861                 1.1306
 IR Inten    --     11.4416                 1.5495                 3.3213

                     13                     14                     15
                      A                      A                      A
 Frequencies --    780.2378               795.9163               806.3054
 Red. masses --      1.6468                 1.8737                 1.8236
 Frc consts  --      0.5907                 0.6993                 0.6985
 IR Inten    --      7.5387                 3.6504                10.6502

                     16                     17                     18
                      A                      A                      A
 Frequencies --    871.8171               908.5349               930.7135
 Red. masses --      1.9446                 2.6976                 1.4136
 Frc consts  --      0.8708                 1.3119                 0.7215
 IR Inten    --      2.8464                 3.0950                 5.0316

                     19                     20                     21
                      A                      A                      A
 Frequencies --    940.1863               980.2946               999.5300
 Red. masses --      3.1533                 2.0303                 1.7742
 Frc consts  --      1.6423                 1.1496                 1.0443
 IR Inten    --     27.1464                 1.6716                 7.5107

                     22                     23                     24
                      A                      A                      A
 Frequencies --   1019.3072              1045.9346              1055.8689
 Red. masses --      1.3325                 2.0616                 1.7429
 Frc consts  --      0.8157                 1.3288                 1.1448
 IR Inten    --      0.2899                63.9394                 2.6015

                     25                     26                     27
                      A                      A                      A
 Frequencies --   1074.0033              1101.5237              1115.8016
 Red. masses --      3.1952                 2.3041                 2.2545
 Frc consts  --      2.1715                 1.6472                 1.6537
 IR Inten    --     39.4192                 6.7354                33.6720

                     28                     29                     30
                      A                      A                      A
 Frequencies --   1151.7969              1169.8139              1194.7450
 Red. masses --      1.4789                 1.6299                 1.2844
 Frc consts  --      1.1560                 1.3141                 1.0802
 IR Inten    --      5.1477                 3.3377                12.0021

                     31                     32                     33
                      A                      A                      A
 Frequencies --   1227.7062              1242.7928              1277.3569
 Red. masses --      1.5173                 1.7252                 2.3016
 Frc consts  --      1.3475                 1.5700                 2.2127
 IR Inten    --     15.6622                14.4689               145.3306

                     34                     35                     36
                      A                      A                      A
 Frequencies --   1285.6803              1350.7781              1353.6952
 Red. masses --      1.5918                 2.7016                 1.5956
 Frc consts  --      1.5503                 2.9043                 1.7227
 IR Inten    --      8.1307                26.5360                 4.4196

                     37                     38                     39
                      A                      A                      A
 Frequencies --   1379.6378              1398.1161              1422.3893
 Red. masses --      2.2802                 1.2855                 1.3293
 Frc consts  --      2.5572                 1.4805                 1.5846
 IR Inten    --      9.3895                11.3074                53.0547

                     40                     41                     42
                      A                      A                      A
 Frequencies --   1496.9381              1498.9760              2991.1441
 Red. masses --      1.0892                 1.1359                 1.0692
 Frc consts  --      1.4381                 1.5038                 5.6360
 IR Inten    --      0.9620                 1.9762                29.4346

                     43                     44                     45
                      A                      A                      A
 Frequencies --   3017.9935              3028.4410              3077.5465
 Red. masses --      1.0782                 1.0650                 1.0944
 Frc consts  --      5.7863                 5.7546                 6.1069
 IR Inten    --     23.6790                82.2048                38.7535

                     46                     47                     48
                      A                      A                      A
 Frequencies --   3098.7439              3179.5654              3201.2231
 Red. masses --      1.1031                 1.0914                 1.0920
 Frc consts  --      6.2408                 6.5009                 6.5936
 IR Inten    --     25.4174                14.5654                18.4524

                     49                     50                     51
                      A                      A                      A
 Frequencies --   3234.6670              3796.0875              3820.0074
 Red. masses --      1.0997                 1.0657                 1.0660
 Frc consts  --      6.7791                 9.0480                 9.1653
 IR Inten    --      5.1650                26.0972                10.6102

 - Thermochemistry -
 -------------------
 Temperature   298.150 Kelvin.  Pressure   1.00000 Atm.
 Atom     1 has atomic number  8 and mass  15.99491

 Molecular mass:   126.06808 amu.
 Principal axes and moments of inertia in atomic units:
                           1         2         3
     Eigenvalues --   634.556941270.613231611.55983
           X            0.99985  -0.00992  -0.01435
           Y            0.00948   0.99948  -0.03076
           Z            0.01465   0.03062   0.99942
 This molecule is an asymmetric top.
 Rotational symmetry number  1.
 Warning -- assumption of classical behavior for rotation
           may cause significant error
 Rotational temperatures (Kelvin)      0.13649     0.06817     0.05375
 Rotational constants (GHZ):           2.84410     1.42037     1.11987
 Zero-point vibrational energy     417175.9 (Joules/Mol)
                                   99.70744 (Kcal/Mol)
 Warning -- explicit consideration of  10 degrees of freedom as
           vibrations may cause significant error
 Vibrational temperatures:    131.30   221.51   282.68   302.42   417.84
          (Kelvin)            447.05   509.12   612.91   712.19   737.74
                              941.22  1049.96  1122.59  1145.14  1160.09
                             1254.35  1307.18  1339.09  1352.72  1410.42
                             1438.10  1466.55  1504.86  1519.16  1545.25
                             1584.84  1605.39  1657.18  1683.10  1718.97
                             1766.39  1788.10  1837.83  1849.80  1943.47
                             1947.66  1984.99  2011.57  2046.50  2153.76
                             2156.69  4303.58  4342.21  4357.25  4427.90
                             4458.40  4574.68  4605.84  4653.96  5461.72
                             5496.13

 Zero-point correction=                           0.158894 (Hartree/Particle)
 Thermal correction to Energy=                    0.167238
 Thermal correction to Enthalpy=                  0.168182
 Thermal correction to Gibbs Free Energy=         0.126133
 Sum of electronic and zero-point Energies=           -422.963244
 Sum of electronic and thermal Energies=              -422.954900
 Sum of electronic and thermal Enthalpies=            -422.953956
 Sum of electronic and thermal Free Energies=         -422.996005

                     E (Thermal)             CV                S
                      KCal/Mol        Cal/Mol-Kelvin    Cal/Mol-Kelvin
 Total                  104.943             32.607             88.498
 Electronic               0.000              0.000              0.000
 Translational            0.889              2.981             40.409
 Rotational               0.889              2.981             28.654
 Vibrational            103.166             26.645             19.436
 Vibration     1          0.602              1.955              3.633
 Vibration     2          0.619              1.898              2.623
 Vibration     3          0.636              1.845              2.166
 Vibration     4          0.642              1.825              2.042
 Vibration     5          0.686              1.692              1.472
 Vibration     6          0.700              1.653              1.359
 Vibration     7          0.730              1.567              1.149
 Vibration     8          0.788              1.414              0.872
 Vibration     9          0.851              1.261              0.671
 Vibration    10          0.868              1.222              0.627

 Normal termination of Gaussian 09 at Tue Jan 28 14:45:29 2020.
