 Gaussian 09, Revision D.01,
 Gaussian 09:  ES64L-G09RevD.01 24-Apr-2013

 -----------------------------
 # b3lyp 6-31G(2df,p) opt Freq
 -----------------------------

 -----
 titel
 -----
 Symbolic Z-matrix:
 Charge =  0 Multiplicity = 1

 SCF Done:  E(RB3LYP) =  -423.194502407     A.U. after   14 cycles
 Optimization completed.
    -- Stationary point found.
 Normal termination of Gaussian 09 at Mon Jan 27 13:49:51 2020.

 ----------------------------------------------------------------------
 #N Geom=AllCheck Guess=TCheck SCRF=Check GenChk RB3LYP/6-31G(2df,p) Fr
 eq
 ----------------------------------------------------------------------

 Structure from the checkpoint file:  "/scratch/puck/g09_362aeb91-b911-4caf-b49b-c28860b7c871/Gau-76143.chk"
 -----
 titel
 -----
 Charge =  0 Multiplicity = 1

                         Standard orientation:
 ---------------------------------------------------------------------
 Center     Atomic      Atomic             Coordinates (Angstroms)
 Number     Number       Type             X           Y           Z
 ---------------------------------------------------------------------
      1          8           0       -4.026063    0.306178   -0.435723
      2          6           0       -3.110535   -0.239558    0.122509
      3          6           0       -1.679409   -0.252785   -0.364075
      4          6           0       -0.707009    0.277637    0.717071
      5          6           0        0.731693    0.188543    0.310418
      6          6           0        1.586423    1.179185    0.068099
      7          6           0        2.933945    0.629403   -0.296527
      8          8           0        2.781689   -0.788265   -0.255782
      9          6           0        1.455156   -1.125396    0.127113
     10          1           0       -3.270612   -0.790100    1.080648
     11          1           0       -1.424253   -1.294586   -0.603194
     12          1           0       -1.609896    0.334145   -1.283482
     13          1           0       -0.958421    1.318298    0.946760
     14          1           0       -0.864059   -0.296529    1.641672
     15          1           0        1.374513    2.239888    0.126268
     16          1           0        3.261181    0.939014   -1.301820
     17          1           0        3.721206    0.942745    0.408118
     18          1           0        0.997049   -1.760409   -0.648424
     19          1           0        1.466706   -1.717949    1.057851
 ---------------------------------------------------------------------

 SCF Done:  E(RB3LYP) =  -423.194502407     A.U. after    1 cycles

 The electronic state is 1-A.
 Alpha  occ. eigenvalues --  -19.14460 -19.13681 -10.27676 -10.23513 -10.23322
 Alpha  occ. eigenvalues --  -10.21189 -10.20465 -10.19938 -10.18905  -1.05145
 Alpha  occ. eigenvalues --   -1.03557  -0.82899  -0.77488  -0.73878  -0.67140
 Alpha  occ. eigenvalues --   -0.60694  -0.58179  -0.55236  -0.49772  -0.48649
 Alpha  occ. eigenvalues --   -0.48126  -0.45363  -0.44041  -0.42995  -0.41434
 Alpha  occ. eigenvalues --   -0.41338  -0.39316  -0.37727  -0.35999  -0.35762
 Alpha  occ. eigenvalues --   -0.31924  -0.27728  -0.25481  -0.23427
 Alpha virt. eigenvalues --   -0.02763   0.01375   0.08228   0.10331   0.11149
 Alpha virt. eigenvalues --    0.11694   0.13004   0.13530   0.15004   0.15953
 Alpha virt. eigenvalues --    0.16518   0.17514   0.18446   0.20714   0.21939

 Mulliken charges:
               1
     1  O   -0.232277
     2  C    0.160225
     3  C   -0.270395
     4  C   -0.333017
     5  C    0.319984
     6  C   -0.211313
     7  C   -0.101784
     8  O   -0.263160
     9  C   -0.149430
    10  H    0.070799
    11  H    0.125467
    12  H    0.130281
    13  H    0.122346
    14  H    0.113230
    15  H    0.102220
    16  H    0.107088
    17  H    0.105843
    18  H    0.102836
    19  H    0.101058
 Sum of Mulliken charges =   0.00000

 Dipole moment (field-independent basis, Debye):
    X=              1.0674    Y=              0.1363    Z=              1.1832  Tot=              1.5993
 Quadrupole moment (field-independent basis, Debye-Ang):
   XX=            -71.1195   YY=            -50.9390   ZZ=            -53.0593
   XY=              7.8829   XZ=             -3.1148   YZ=             -0.3794

  Exact polarizability: 104.040   8.589  75.064  -3.362  -4.983  62.109
 Approx polarizability: 134.034  12.026 119.276  -2.214 -10.222  95.365

                      1                      2                      3
                      A                      A                      A
 Frequencies --     46.9166                58.3007                72.4831
 Red. masses --      3.7003                 3.2450                 3.1759
 Frc consts  --      0.0048                 0.0065                 0.0098
 IR Inten    --      5.4381                 4.6824                 2.2232

                      4                      5                      6
                      A                      A                      A
 Frequencies --    103.5906               129.0085               264.9592
 Red. masses --      3.0042                 2.8533                 2.6085
 Frc consts  --      0.0190                 0.0280                 0.1079
 IR Inten    --      3.8127                 1.7659                 2.2798

                      7                      8                      9
                      A                      A                      A
 Frequencies --    286.4002               334.5378               459.9382
 Red. masses --      3.0315                 2.6375                 2.8156
 Frc consts  --      0.1465                 0.1739                 0.3509
 IR Inten    --      0.7762                 0.0830                 4.8122

                     10                     11                     12
                      A                      A                      A
 Frequencies --    534.2460               653.0241               760.4920
 Red. masses --      2.3691                 3.9909                 1.2991
 Frc consts  --      0.3984                 1.0027                 0.4427
 IR Inten    --     15.9160                 1.1751                 0.5149

                     13                     14                     15
                      A                      A                      A
 Frequencies --    777.8127               833.2117               846.0359
 Red. masses --      6.3346                 1.2836                 1.7197
 Frc consts  --      2.2580                 0.5250                 0.7252
 IR Inten    --      7.7626                 7.7842                 1.1707

                     16                     17                     18
                      A                      A                      A
 Frequencies --    914.6334               926.7607               972.0203
 Red. masses --      3.0091                 3.8079                 2.1983
 Frc consts  --      1.4831                 1.9270                 1.2237
 IR Inten    --     20.4080                 4.5641                 9.7348

                     19                     20                     21
                      A                      A                      A
 Frequencies --    987.0654              1022.2004              1057.7194
 Red. masses --      2.9644                 1.5669                 1.6944
 Frc consts  --      1.7017                 0.9647                 1.1169
 IR Inten    --     10.1096                13.7993                 3.2699

                     22                     23                     24
                      A                      A                      A
 Frequencies --   1067.8768              1095.1357              1115.2427
 Red. masses --      1.9831                 2.4761                 7.4322
 Frc consts  --      1.3324                 1.7497                 5.4464
 IR Inten    --      9.7677                15.4798                84.6003

                     25                     26                     27
                      A                      A                      A
 Frequencies --   1172.2153              1188.3090              1211.2967
 Red. masses --      1.1428                 1.4236                 2.0727
 Frc consts  --      0.9252                 1.1844                 1.7918
 IR Inten    --      4.7916                 6.8114                 9.9415

                     28                     29                     30
                      A                      A                      A
 Frequencies --   1226.7627              1264.3740              1284.0155
 Red. masses --      1.0701                 1.4168                 1.3564
 Frc consts  --      0.9488                 1.3345                 1.3176
 IR Inten    --      0.2334                 0.2312                 3.7479

                     31                     32                     33
                      A                      A                      A
 Frequencies --   1328.6440              1363.0428              1373.4100
 Red. masses --      1.2117                 1.4570                 1.7657
 Frc consts  --      1.2602                 1.5949                 1.9624
 IR Inten    --      0.8904                16.9546                 2.8021

                     34                     35                     36
                      A                      A                      A
 Frequencies --   1397.3114              1429.0902              1463.4678
 Red. masses --      1.5301                 1.1917                 1.0865
 Frc consts  --      1.7601                 1.4339                 1.3711
 IR Inten    --      5.5587                 6.6416                 1.9338

                     37                     38                     39
                      A                      A                      A
 Frequencies --   1487.4716              1516.0658              1528.9821
 Red. masses --      1.1002                 1.0816                 1.0872
 Frc consts  --      1.4342                 1.4647                 1.4975
 IR Inten    --      5.6356                 3.4693                 0.5636

                     40                     41                     42
                      A                      A                      A
 Frequencies --   1729.2409              1838.7479              2845.1574
 Red. masses --      7.3728                10.1616                 1.0814
 Frc consts  --     12.9896                20.2421                 5.1575
 IR Inten    --      2.0642               204.5471               114.5636

                     43                     44                     45
                      A                      A                      A
 Frequencies --   2956.5308              2971.2426              2975.7185
 Red. masses --      1.0609                 1.0632                 1.0927
 Frc consts  --      5.4637                 5.5300                 5.7006
 IR Inten    --    103.2278                80.2248                23.8183

                     46                     47                     48
                      A                      A                      A
 Frequencies --   2986.3442              3006.6597              3022.5394
 Red. masses --      1.1044                 1.0655                 1.0659
 Frc consts  --      5.8031                 5.6748                 5.7373
 IR Inten    --     60.4057                26.9219                11.0624

                     49                     50                     51
                      A                      A                      A
 Frequencies --   3072.9021              3110.6766              3210.2259
 Red. masses --      1.0931                 1.0977                 1.0953
 Frc consts  --      6.0815                 6.2579                 6.6507
 IR Inten    --     14.3812                14.0672                 5.9104

 - Thermochemistry -
 -------------------
 Temperature   298.150 Kelvin.  Pressure   1.00000 Atm.
 Atom     1 has atomic number  8 and mass  15.99491

 Molecular mass:   126.06808 amu.
 Principal axes and moments of inertia in atomic units:
                           1         2         3
     Eigenvalues --   331.047172770.885722925.63339
           X            0.99991   0.01181  -0.00647
           Y           -0.01195   0.99965  -0.02343
           Z            0.00619   0.02350   0.99970
 This molecule is an asymmetric top.
 Rotational symmetry number  1.
 Rotational temperatures (Kelvin)      0.26164     0.03126     0.02961
 Rotational constants (GHZ):           5.45161     0.65132     0.61687
 Zero-point vibrational energy     414386.8 (Joules/Mol)
                                   99.04081 (Kcal/Mol)
 Warning -- explicit consideration of  10 degrees of freedom as
           vibrations may cause significant error
 Vibrational temperatures:     67.50    83.88   104.29   149.04   185.61
          (Kelvin)            381.22   412.07   481.32   661.75   768.66
                              939.55  1094.18  1119.10  1198.80  1217.26
                             1315.95  1333.40  1398.52  1420.17  1470.72
                             1521.82  1536.43  1575.65  1604.58  1686.55
                             1709.71  1742.78  1765.04  1819.15  1847.41
                             1911.62  1961.11  1976.03  2010.42  2056.14
                             2105.60  2140.14  2181.28  2199.86  2487.99
                             2645.54  4093.54  4253.78  4274.95  4281.39
                             4296.68  4325.91  4348.75  4421.22  4475.56
                             4618.79

 Zero-point correction=                           0.157832 (Hartree/Particle)
 Thermal correction to Energy=                    0.167178
 Thermal correction to Enthalpy=                  0.168122
 Thermal correction to Gibbs Free Energy=         0.121672
 Sum of electronic and zero-point Energies=           -423.036671
 Sum of electronic and thermal Energies=              -423.027324
 Sum of electronic and thermal Enthalpies=            -423.026380
 Sum of electronic and thermal Free Energies=         -423.072830

                     E (Thermal)             CV                S
                      KCal/Mol        Cal/Mol-Kelvin    Cal/Mol-Kelvin
 Total                  104.906             32.165             97.762
 Electronic               0.000              0.000              0.000
 Translational            0.889              2.981             40.409
 Rotational               0.889              2.981             29.374
 Vibrational            103.128             26.203             27.979
 Vibration     1          0.595              1.979              4.943
 Vibration     2          0.596              1.974              4.514
 Vibration     3          0.599              1.967              4.085
 Vibration     4          0.605              1.946              3.386
 Vibration     5          0.611              1.924              2.961
 Vibration     6          0.671              1.737              1.629
 Vibration     7          0.684              1.699              1.495
 Vibration     8          0.716              1.607              1.238
 Vibration     9          0.818              1.339              0.766
 Vibration    10          0.889              1.174              0.578

 Optimization completed.
    -- Stationary point found.
 Normal termination of Gaussian 09 at Mon Jan 27 14:25:23 2020.
