 Gaussian 09, Revision D.01,
 Gaussian 09:  ES64L-G09RevD.01 24-Apr-2013

 -----------------------------
 # b3lyp 6-31G(2df,p) opt Freq
 -----------------------------

 -----
 titel
 -----
 Symbolic Z-matrix:
 Charge =  0 Multiplicity = 1

 SCF Done:  E(RB3LYP) =  -423.190247135     A.U. after   14 cycles
 Optimization completed.
    -- Stationary point found.
 Normal termination of Gaussian 09 at Mon Jan 27 22:57:19 2020.

 ----------------------------------------------------------------------
 #N Geom=AllCheck Guess=TCheck SCRF=Check GenChk RB3LYP/6-31G(2df,p) Fr
 eq
 ----------------------------------------------------------------------

 Structure from the checkpoint file:  "/scratch/puck/g09_30716354-d2f6-4b10-8e62-9228f37ad386/Gau-183461.chk"
 -----
 titel
 -----
 Charge =  0 Multiplicity = 1

                         Standard orientation:
 ---------------------------------------------------------------------
 Center     Atomic      Atomic             Coordinates (Angstroms)
 Number     Number       Type             X           Y           Z
 ---------------------------------------------------------------------
      1          6           0       -0.590813    2.261206   -0.017319
      2          6           0       -0.654748    0.822174    0.487296
      3          6           0        0.684178    0.255493    1.033627
      4          6           0        0.371578   -1.272775    1.116293
      5          6           0        0.258852   -1.184795   -0.445601
      6          6           0       -0.963393   -0.252284   -0.624743
      7          8           0       -2.221786   -0.881596   -0.509760
      8          6           0        1.375587   -0.132131   -0.287095
      9          8           0        2.383713    0.152525   -0.860718
     10          1           0        0.179701    2.379567   -0.786967
     11          1           0       -1.550002    2.560958   -0.451569
     12          1           0       -0.357505    2.957527    0.794839
     13          1           0       -1.428398    0.740398    1.260521
     14          1           0        1.188632    0.802535    1.828189
     15          1           0        1.215030   -1.877356    1.452265
     16          1           0       -0.530715   -1.552395    1.668473
     17          1           0        0.343738   -2.045353   -1.105120
     18          1           0       -0.970467    0.198176   -1.621346
     19          1           0       -2.272876   -1.312814    0.349797
 ---------------------------------------------------------------------

 SCF Done:  E(RB3LYP) =  -423.190247135     A.U. after    1 cycles

 The electronic state is 1-A.
 Alpha  occ. eigenvalues --  -19.14581 -19.14044 -10.27328 -10.24453 -10.21070
 Alpha  occ. eigenvalues --  -10.20439 -10.20323 -10.20159 -10.18274  -1.05127
 Alpha  occ. eigenvalues --   -1.02983  -0.89826  -0.76819  -0.70802  -0.66196
 Alpha  occ. eigenvalues --   -0.63570  -0.58476  -0.53357  -0.51306  -0.48182
 Alpha  occ. eigenvalues --   -0.46196  -0.44529  -0.43633  -0.41197  -0.40537
 Alpha  occ. eigenvalues --   -0.38789  -0.37583  -0.36988  -0.35506  -0.34807
 Alpha  occ. eigenvalues --   -0.33720  -0.31921  -0.27209  -0.23857
 Alpha virt. eigenvalues --   -0.01023   0.06402   0.09946   0.11004   0.12000
 Alpha virt. eigenvalues --    0.13021   0.13989   0.14505   0.15804   0.16471
 Alpha virt. eigenvalues --    0.16992   0.17898   0.19393   0.20178   0.20959

 Mulliken charges:
               1
     1  C   -0.425519
     2  C   -0.012079
     3  C   -0.139682
     4  C   -0.274086
     5  C   -0.177434
     6  C    0.137593
     7  O   -0.437699
     8  C    0.436113
     9  O   -0.327241
    10  H    0.132869
    11  H    0.126417
    12  H    0.118571
    13  H    0.074387
    14  H    0.084007
    15  H    0.123576
    16  H    0.092773
    17  H    0.089629
    18  H    0.100221
    19  H    0.277581
 Sum of Mulliken charges =   0.00000

 Dipole moment (field-independent basis, Debye):
    X=             -1.4191    Y=             -0.5028    Z=              2.4082  Tot=              2.8401
 Quadrupole moment (field-independent basis, Debye-Ang):
   XX=            -63.1879   YY=            -50.5486   ZZ=            -52.6093
   XY=             -1.6436   XZ=              0.3795   YZ=             -1.4733

  Exact polarizability:  78.250   0.832  76.511  -1.908  -0.906  69.632
 Approx polarizability: 121.357   6.370 106.086  -7.864  -2.458 110.026

                      1                      2                      3
                      A                      A                      A
 Frequencies --    120.3679               136.6011               227.9243
 Red. masses --      3.9215                 6.0614                 1.0608
 Frc consts  --      0.0335                 0.0666                 0.0325
 IR Inten    --      1.5426                 2.6525                 3.3366

                      4                      5                      6
                      A                      A                      A
 Frequencies --    240.8799               267.7973               303.2413
 Red. masses --      1.4988                 1.7471                 2.9791
 Frc consts  --      0.0512                 0.0738                 0.1614
 IR Inten    --     20.7718                45.2459                 3.3449

                      7                      8                      9
                      A                      A                      A
 Frequencies --    351.6712               436.9389               478.1353
 Red. masses --      3.6018                 3.0354                 3.3748
 Frc consts  --      0.2625                 0.3414                 0.4546
 IR Inten    --     21.0715                 1.5493                 0.7554

                     10                     11                     12
                      A                      A                      A
 Frequencies --    544.3737               604.2957               657.7585
 Red. masses --      4.0992                 4.4113                 2.8750
 Frc consts  --      0.7157                 0.9491                 0.7329
 IR Inten    --      3.6719                 8.4833                 2.9581

                     13                     14                     15
                      A                      A                      A
 Frequencies --    775.0606               808.8830               832.7859
 Red. masses --      4.2631                 2.6327                 2.8603
 Frc consts  --      1.5089                 1.0149                 1.1688
 IR Inten    --      0.9273                 3.9046                 4.4065

                     16                     17                     18
                      A                      A                      A
 Frequencies --    837.2012               896.8821               958.7577
 Red. masses --      2.5922                 2.4622                 2.2658
 Frc consts  --      1.0705                 1.1669                 1.2271
 IR Inten    --     12.4074                 2.8325                 2.2071

                     19                     20                     21
                      A                      A                      A
 Frequencies --    990.0792              1006.1191              1027.4199
 Red. masses --      2.0558                 1.5317                 1.7404
 Frc consts  --      1.1873                 0.9135                 1.0824
 IR Inten    --     20.3592                 4.2652                 0.8559

                     22                     23                     24
                      A                      A                      A
 Frequencies --   1041.0071              1055.1098              1088.2891
 Red. masses --      1.6732                 1.6262                 2.0661
 Frc consts  --      1.0683                 1.0666                 1.4417
 IR Inten    --     31.1627                18.5400                41.7028

                     25                     26                     27
                      A                      A                      A
 Frequencies --   1099.9182              1123.2072              1152.4406
 Red. masses --      1.5539                 2.0665                 1.8114
 Frc consts  --      1.1076                 1.5361                 1.4174
 IR Inten    --     16.6177                54.6869                 0.0650

                     28                     29                     30
                      A                      A                      A
 Frequencies --   1192.5831              1200.5822              1219.4375
 Red. masses --      1.9578                 1.7887                 1.5512
 Frc consts  --      1.6406                 1.5190                 1.3591
 IR Inten    --      1.5683                30.7994                 2.2819

                     31                     32                     33
                      A                      A                      A
 Frequencies --   1250.9011              1268.7919              1305.2297
 Red. masses --      1.5144                 1.5215                 1.4424
 Frc consts  --      1.3961                 1.4431                 1.4478
 IR Inten    --      1.0768                15.8409                 2.6382

                     34                     35                     36
                      A                      A                      A
 Frequencies --   1319.3455              1369.7381              1414.6007
 Red. masses --      1.5268                 1.4613                 1.2345
 Frc consts  --      1.5658                 1.6153                 1.4555
 IR Inten    --      0.3562                 3.5783                 2.8219

                     37                     38                     39
                      A                      A                      A
 Frequencies --   1440.8528              1496.0273              1499.6408
 Red. masses --      1.1903                 1.0485                 1.0494
 Frc consts  --      1.4559                 1.3826                 1.3905
 IR Inten    --     65.7006                 4.9043                 4.5395

                     40                     41                     42
                      A                      A                      A
 Frequencies --   1505.9065              1899.7885              3030.0411
 Red. masses --      1.0944                12.1275                 1.0842
 Frc consts  --      1.4622                25.7889                 5.8647
 IR Inten    --      3.9572               303.7679                17.8455

                     43                     44                     45
                      A                      A                      A
 Frequencies --   3031.4497              3058.0151              3074.5124
 Red. masses --      1.0354                 1.0607                 1.0866
 Frc consts  --      5.6062                 5.8442                 6.0515
 IR Inten    --     18.8019                31.1303                20.7901

                     46                     47                     48
                      A                      A                      A
 Frequencies --   3100.5485              3104.5443              3129.9179
 Red. masses --      1.1013                 1.1017                 1.1042
 Frc consts  --      6.2377                 6.2561                 6.3735
 IR Inten    --     24.3661                19.3031                13.5802

                     49                     50                     51
                      A                      A                      A
 Frequencies --   3138.2062              3153.1636              3807.6683
 Red. masses --      1.0912                 1.0915                 1.0657
 Frc consts  --      6.3315                 6.3939                 9.1034
 IR Inten    --     26.3282                16.3539                11.1989

 - Thermochemistry -
 -------------------
 Temperature   298.150 Kelvin.  Pressure   1.00000 Atm.
 Atom     1 has atomic number  6 and mass  12.00000

 Molecular mass:   126.06808 amu.
 Principal axes and moments of inertia in atomic units:
                           1         2         3
     Eigenvalues --   800.985501089.876641391.62745
           X            0.99866  -0.05045   0.01147
           Y            0.05071   0.99841  -0.02443
           Z           -0.01022   0.02497   0.99964
 This molecule is an asymmetric top.
 Rotational symmetry number  1.
 Warning -- assumption of classical behavior for rotation
           may cause significant error
 Rotational temperatures (Kelvin)      0.10813     0.07947     0.06224
 Rotational constants (GHZ):           2.25315     1.65591     1.29686
 Zero-point vibrational energy     419139.4 (Joules/Mol)
                                  100.17672 (Kcal/Mol)
 Warning -- explicit consideration of  11 degrees of freedom as
           vibrations may cause significant error
 Vibrational temperatures:    173.18   196.54   327.93   346.57   385.30
          (Kelvin)            436.30   505.98   628.66   687.93   783.23
                              869.45   946.37  1115.14  1163.80  1198.19
                             1204.54  1290.41  1379.44  1424.50  1447.58
                             1478.23  1497.78  1518.07  1565.80  1582.53
                             1616.04  1658.10  1715.86  1727.37  1754.50
                             1799.77  1825.51  1877.93  1898.24  1970.75
                             2035.29  2073.06  2152.45  2157.65  2166.66
                             2733.37  4359.55  4361.57  4399.80  4423.53
                             4460.99  4466.74  4503.25  4515.17  4536.69
                             5478.38

 Zero-point correction=                           0.159642 (Hartree/Particle)
 Thermal correction to Energy=                    0.167885
 Thermal correction to Enthalpy=                  0.168829
 Thermal correction to Gibbs Free Energy=         0.127140
 Sum of electronic and zero-point Energies=           -423.030605
 Sum of electronic and thermal Energies=              -423.022362
 Sum of electronic and thermal Enthalpies=            -423.021418
 Sum of electronic and thermal Free Energies=         -423.063107

                     E (Thermal)             CV                S
                      KCal/Mol        Cal/Mol-Kelvin    Cal/Mol-Kelvin
 Total                  105.349             32.194             87.742
 Electronic               0.000              0.000              0.000
 Translational            0.889              2.981             40.409
 Rotational               0.889              2.981             28.587
 Vibrational            103.572             26.233             18.747
 Vibration     1          0.609              1.932              3.094
 Vibration     2          0.614              1.917              2.851
 Vibration     3          0.651              1.798              1.895
 Vibration     4          0.658              1.778              1.796
 Vibration     5          0.673              1.732              1.610
 Vibration     6          0.695              1.668              1.399
 Vibration     7          0.728              1.572              1.159
 Vibration     8          0.797              1.390              0.836
 Vibration     9          0.835              1.299              0.715
 Vibration    10          0.900              1.152              0.556
 Vibration    11          0.963              1.023              0.442

 Normal termination of Gaussian 09 at Mon Jan 27 23:42:05 2020.
