 Gaussian 09, Revision D.01,
 Gaussian 09:  ES64L-G09RevD.01 24-Apr-2013

 -----------------------------
 # b3lyp 6-31G(2df,p) opt Freq
 -----------------------------

 -----
 titel
 -----
 Symbolic Z-matrix:
 Charge =  0 Multiplicity = 1

 SCF Done:  E(RB3LYP) =  -423.200584339     A.U. after   14 cycles
 Optimization completed.
    -- Stationary point found.
 Normal termination of Gaussian 09 at Tue Jan 28 04:06:50 2020.

 ----------------------------------------------------------------------
 #N Geom=AllCheck Guess=TCheck SCRF=Check GenChk RB3LYP/6-31G(2df,p) Fr
 eq
 ----------------------------------------------------------------------

 Structure from the checkpoint file:  "/scratch/puck/g09_598af92a-ce4b-4661-a308-5f86790743f4/Gau-176392.chk"
 -----
 titel
 -----
 Charge =  0 Multiplicity = 1

                         Standard orientation:
 ---------------------------------------------------------------------
 Center     Atomic      Atomic             Coordinates (Angstroms)
 Number     Number       Type             X           Y           Z
 ---------------------------------------------------------------------
      1          6           0       -2.883639   -0.506472   -0.187219
      2          6           0       -1.515490    0.057377   -0.577121
      3          6           0       -1.116259    1.343890    0.190869
      4          6           0        0.428759    1.364055    0.219735
      5          6           0        0.808836   -0.101147    0.170024
      6          8           0        0.050399   -0.947712    1.060955
      7          6           0       -0.357087   -0.889324   -0.300995
      8          6           0        2.195421   -0.563792   -0.093306
      9          8           0        3.087584    0.157658   -0.464737
     10          1           0       -3.130830   -1.400524   -0.769102
     11          1           0       -2.897605   -0.777129    0.873358
     12          1           0       -3.673093    0.231908   -0.359555
     13          1           0       -1.503007    0.258000   -1.657730
     14          1           0       -1.539358    2.242531   -0.264226
     15          1           0       -1.500769    1.282639    1.212445
     16          1           0        0.854086    1.854928   -0.661981
     17          1           0        0.832811    1.871729    1.099899
     18          1           0       -0.250460   -1.818871   -0.857870
     19          1           0        2.341119   -1.652307    0.083102
 ---------------------------------------------------------------------

 SCF Done:  E(RB3LYP) =  -423.200584339     A.U. after    1 cycles

 The electronic state is 1-A.
 Alpha  occ. eigenvalues --  -19.16873 -19.14380 -10.27425 -10.25107 -10.24914
 Alpha  occ. eigenvalues --  -10.20372 -10.19346 -10.18995 -10.18421  -1.09117
 Alpha  occ. eigenvalues --   -1.04916  -0.82690  -0.76320  -0.70371  -0.67718
 Alpha  occ. eigenvalues --   -0.63234  -0.57118  -0.55874  -0.51349  -0.49074
 Alpha  occ. eigenvalues --   -0.46447  -0.44242  -0.43748  -0.41926  -0.40265
 Alpha  occ. eigenvalues --   -0.39213  -0.38318  -0.37167  -0.36019  -0.34750
 Alpha  occ. eigenvalues --   -0.33501  -0.30414  -0.28048  -0.25581
 Alpha virt. eigenvalues --   -0.03446   0.08007   0.10438   0.11298   0.11554
 Alpha virt. eigenvalues --    0.12449   0.13141   0.15045   0.15709   0.16528
 Alpha virt. eigenvalues --    0.17102   0.17570   0.19582   0.19969   0.21034

 Mulliken charges:
               1
     1  C   -0.405449
     2  C    0.004679
     3  C   -0.236679
     4  C   -0.298962
     5  C    0.310459
     6  O   -0.290250
     7  C   -0.012984
     8  C    0.088022
     9  O   -0.259346
    10  H    0.115541
    11  H    0.132033
    12  H    0.119970
    13  H    0.082188
    14  H    0.104213
    15  H    0.118155
    16  H    0.125684
    17  H    0.118322
    18  H    0.099575
    19  H    0.084828
 Sum of Mulliken charges =   0.00000

 Dipole moment (field-independent basis, Debye):
    X=             -2.6202    Y=             -0.1417    Z=             -0.8739  Tot=              2.7657
 Quadrupole moment (field-independent basis, Debye-Ang):
   XX=            -60.9866   YY=            -51.2590   ZZ=            -53.9532
   XY=             -2.5023   XZ=              2.9340   YZ=              2.4396

  Exact polarizability:  95.329   3.082  74.640   0.187   0.893  60.303
 Approx polarizability: 128.188  12.690 110.596  -3.102  -3.696 100.410

                      1                      2                      3
                      A                      A                      A
 Frequencies --     86.7839               148.7666               167.0459
 Red. masses --      4.9717                 2.6528                 4.0647
 Frc consts  --      0.0221                 0.0346                 0.0668
 IR Inten    --      2.9216                 3.0109                 4.4413

                      4                      5                      6
                      A                      A                      A
 Frequencies --    213.9895               246.6382               278.3945
 Red. masses --      1.6543                 1.2303                 2.9422
 Frc consts  --      0.0446                 0.0441                 0.1344
 IR Inten    --      4.4573                 1.0012                 5.4768

                      7                      8                      9
                      A                      A                      A
 Frequencies --    360.6401               390.1165               477.1141
 Red. masses --      2.3071                 3.1259                 5.3716
 Frc consts  --      0.1768                 0.2803                 0.7204
 IR Inten    --      0.6945                10.7033                 1.5750

                     10                     11                     12
                      A                      A                      A
 Frequencies --    529.8851               615.7984               649.3288
 Red. masses --      3.5035                 3.8825                 2.8548
 Frc consts  --      0.5796                 0.8674                 0.7092
 IR Inten    --      1.1870                 0.3089                16.2519

                     13                     14                     15
                      A                      A                      A
 Frequencies --    738.9726               823.2044               843.2447
 Red. masses --      3.0485                 2.2440                 3.2726
 Frc consts  --      0.9808                 0.8960                 1.3710
 IR Inten    --     15.3818                 1.5044                28.9629

                     16                     17                     18
                      A                      A                      A
 Frequencies --    862.7639               929.0214               944.3010
 Red. masses --      2.7894                 1.8486                 3.5711
 Frc consts  --      1.2233                 0.9401                 1.8761
 IR Inten    --      6.9707                 1.1120                11.8906

                     19                     20                     21
                      A                      A                      A
 Frequencies --    966.3516               997.2262              1023.0129
 Red. masses --      1.4401                 1.9638                 1.6086
 Frc consts  --      0.7923                 1.1506                 0.9919
 IR Inten    --      2.4726                 0.9804                 7.7021

                     22                     23                     24
                      A                      A                      A
 Frequencies --   1054.4463              1066.3750              1133.6858
 Red. masses --      1.7507                 1.9778                 1.7644
 Frc consts  --      1.1469                 1.3251                 1.3361
 IR Inten    --      7.3381                 7.3470                 5.4526

                     25                     26                     27
                      A                      A                      A
 Frequencies --   1142.3878              1196.2758              1225.4472
 Red. masses --      1.7696                 1.6952                 1.2892
 Frc consts  --      1.3607                 1.4293                 1.1406
 IR Inten    --      1.4891                 1.7769                 1.7190

                     28                     29                     30
                      A                      A                      A
 Frequencies --   1258.8367              1281.1329              1313.6760
 Red. masses --      2.0714                 1.4683                 1.3757
 Frc consts  --      1.9340                 1.4198                 1.3988
 IR Inten    --     14.3114                 2.3001                 1.1141

                     31                     32                     33
                      A                      A                      A
 Frequencies --   1335.0486              1345.8842              1364.6055
 Red. masses --      1.4624                 2.3090                 1.5234
 Frc consts  --      1.5357                 2.4643                 1.6714
 IR Inten    --      2.0310                 3.5831                 4.5478

                     34                     35                     36
                      A                      A                      A
 Frequencies --   1393.3599              1410.9090              1439.9588
 Red. masses --      1.4474                 1.2282                 2.0969
 Frc consts  --      1.6557                 1.4405                 2.5617
 IR Inten    --      1.2960                 1.8735                21.8108

                     37                     38                     39
                      A                      A                      A
 Frequencies --   1483.4719              1494.4481              1499.0054
 Red. masses --      1.1199                 1.0891                 1.0554
 Frc consts  --      1.4520                 1.4331                 1.3972
 IR Inten    --      4.9097                 2.4707                 6.0258

                     40                     41                     42
                      A                      A                      A
 Frequencies --   1501.5338              1817.2316              2896.8845
 Red. masses --      1.0550                10.6665                 1.0842
 Frc consts  --      1.4015                20.7535                 5.3607
 IR Inten    --      2.9513               212.3220                89.9911

                     43                     44                     45
                      A                      A                      A
 Frequencies --   3011.3086              3033.8816              3058.1350
 Red. masses --      1.0826                 1.0348                 1.0601
 Frc consts  --      5.7842                 5.6119                 5.8411
 IR Inten    --     18.5094                25.6870                15.6406

                     46                     47                     48
                      A                      A                      A
 Frequencies --   3066.5851              3098.0354              3101.6243
 Red. masses --      1.0620                 1.1018                 1.1015
 Frc consts  --      5.8841                 6.2307                 6.2433
 IR Inten    --     20.0970                14.8038                21.3758

                     49                     50                     51
                      A                      A                      A
 Frequencies --   3108.9880              3115.5154              3132.0702
 Red. masses --      1.1027                 1.1047                 1.0903
 Frc consts  --      6.2796                 6.3174                 6.3018
 IR Inten    --      8.5045                36.8528                23.6644

 - Thermochemistry -
 -------------------
 Temperature   298.150 Kelvin.  Pressure   1.00000 Atm.
 Atom     1 has atomic number  6 and mass  12.00000

 Molecular mass:   126.06808 amu.
 Principal axes and moments of inertia in atomic units:
                           1         2         3
     Eigenvalues --   479.987791591.908701811.44564
           X            0.99996  -0.00183   0.00828
           Y            0.00142   0.99877   0.04966
           Z           -0.00836  -0.04965   0.99873
 This molecule is an asymmetric top.
 Rotational symmetry number  1.
 Warning -- assumption of classical behavior for rotation
           may cause significant error
 Rotational temperatures (Kelvin)      0.18045     0.05441     0.04781
 Rotational constants (GHZ):           3.75997     1.13370     0.99630
 Zero-point vibrational energy     416739.2 (Joules/Mol)
                                   99.60305 (Kcal/Mol)
 Warning -- explicit consideration of  11 degrees of freedom as
           vibrations may cause significant error
 Vibrational temperatures:    124.86   214.04   240.34   307.88   354.86
          (Kelvin)            400.55   518.88   561.29   686.46   762.39
                              886.00   934.24  1063.22  1184.41  1213.24
                             1241.32  1336.65  1358.64  1390.36  1434.78
                             1471.89  1517.11  1534.27  1631.12  1643.64
                             1721.17  1763.14  1811.18  1843.26  1890.08
                             1920.83  1936.42  1963.36  2004.73  2029.98
                             2071.78  2134.38  2150.17  2156.73  2160.37
                             2614.59  4167.97  4332.60  4365.07  4399.97
                             4412.13  4457.38  4462.54  4473.13  4482.53
                             4506.34

 Zero-point correction=                           0.158728 (Hartree/Particle)
 Thermal correction to Energy=                    0.167203
 Thermal correction to Enthalpy=                  0.168147
 Thermal correction to Gibbs Free Energy=         0.125648
 Sum of electronic and zero-point Energies=           -423.041857
 Sum of electronic and thermal Energies=              -423.033382
 Sum of electronic and thermal Enthalpies=            -423.032437
 Sum of electronic and thermal Free Energies=         -423.074936

                     E (Thermal)             CV                S
                      KCal/Mol        Cal/Mol-Kelvin    Cal/Mol-Kelvin
 Total                  104.921             32.028             89.447
 Electronic               0.000              0.000              0.000
 Translational            0.889              2.981             40.409
 Rotational               0.889              2.981             28.717
 Vibrational            103.144             26.067             20.322
 Vibration     1          0.601              1.958              3.731
 Vibration     2          0.618              1.904              2.688
 Vibration     3          0.624              1.883              2.468
 Vibration     4          0.644              1.820              2.009
 Vibration     5          0.661              1.768              1.754
 Vibration     6          0.679              1.713              1.544
 Vibration     7          0.735              1.553              1.119
 Vibration     8          0.758              1.491              1.000
 Vibration     9          0.834              1.301              0.718
 Vibration    10          0.885              1.184              0.587
 Vibration    11          0.975              0.998              0.423

 Optimization completed.
    -- Stationary point found.
 Normal termination of Gaussian 09 at Tue Jan 28 04:39:54 2020.
