 Gaussian 09, Revision D.01,
 Gaussian 09:  ES64L-G09RevD.01 24-Apr-2013

 -----------------------------
 # b3lyp 6-31G(2df,p) opt Freq
 -----------------------------

 -----
 titel
 -----
 Symbolic Z-matrix:
 Charge =  0 Multiplicity = 1

 SCF Done:  E(RB3LYP) =  -423.214643348     A.U. after   14 cycles
 Optimization completed.
    -- Stationary point found.
 Normal termination of Gaussian 09 at Mon Jan 27 13:09:43 2020.

 ----------------------------------------------------------------------
 #N Geom=AllCheck Guess=TCheck SCRF=Check GenChk RB3LYP/6-31G(2df,p) Fr
 eq
 ----------------------------------------------------------------------

 Structure from the checkpoint file:  "/scratch/puck/g09_13945654-6634-4e12-8a65-928f8e4eede1/Gau-28009.chk"
 -----
 titel
 -----
 Charge =  0 Multiplicity = 1

                         Standard orientation:
 ---------------------------------------------------------------------
 Center     Atomic      Atomic             Coordinates (Angstroms)
 Number     Number       Type             X           Y           Z
 ---------------------------------------------------------------------
      1          8           0       -2.589665   -0.218893   -0.029913
      2          6           0       -1.402483   -0.036286    0.010920
      3          8           0       -0.936591    1.224158   -0.222062
      4          6           0        0.317393    1.705899    0.284067
      5          6           0        1.580742    1.038502   -0.259965
      6          6           0        1.629660   -0.486002   -0.095051
      7          6           0        0.804337   -1.001417    1.118174
      8          6           0       -0.416966   -1.181386    0.163687
      9          6           0        0.609738   -1.212523   -1.014130
     10          1           0        0.319760    2.764307    0.012405
     11          1           0        0.297369    1.656662    1.378517
     12          1           0        1.708358    1.293172   -1.319090
     13          1           0        2.419597    1.499661    0.277455
     14          1           0        2.664060   -0.831834   -0.163129
     15          1           0        1.151005   -1.985265    1.443754
     16          1           0        0.701493   -0.369077    2.002310
     17          1           0       -1.022573   -2.073558    0.315589
     18          1           0        0.912344   -2.239285   -1.232589
     19          1           0        0.324109   -0.717625   -1.945638
 ---------------------------------------------------------------------

 SCF Done:  E(RB3LYP) =  -423.214643348     A.U. after    1 cycles

 The electronic state is 1-A.
 Alpha  occ. eigenvalues --  -19.16941 -19.11362 -10.29854 -10.24764 -10.20366
 Alpha  occ. eigenvalues --  -10.20298 -10.19852 -10.19814 -10.19535  -1.08530
 Alpha  occ. eigenvalues --   -1.00662  -0.86810  -0.78108  -0.69110  -0.67563
 Alpha  occ. eigenvalues --   -0.66159  -0.55939  -0.54656  -0.51123  -0.50301
 Alpha  occ. eigenvalues --   -0.47246  -0.44415  -0.43567  -0.42412  -0.41826
 Alpha  occ. eigenvalues --   -0.39888  -0.37767  -0.35011  -0.34129  -0.33274
 Alpha  occ. eigenvalues --   -0.31426  -0.30873  -0.28668  -0.25355
 Alpha virt. eigenvalues --    0.00878   0.06764   0.08882   0.10425   0.12620
 Alpha virt. eigenvalues --    0.13064   0.13399   0.13612   0.14616   0.16889
 Alpha virt. eigenvalues --    0.17514   0.19074   0.19840   0.20531   0.23276

 Mulliken charges:
               1
     1  O   -0.318782
     2  C    0.385432
     3  O   -0.231940
     4  C   -0.070595
     5  C   -0.226246
     6  C   -0.000134
     7  C   -0.258877
     8  C   -0.115995
     9  C   -0.229055
    10  H    0.123477
    11  H    0.115735
    12  H    0.112007
    13  H    0.105721
    14  H    0.071718
    15  H    0.110114
    16  H    0.106092
    17  H    0.100573
    18  H    0.108410
    19  H    0.112343
 Sum of Mulliken charges =   0.00000

 Dipole moment (field-independent basis, Debye):
    X=              4.4396    Y=             -0.2003    Z=              0.6161  Tot=              4.4866
 Quadrupole moment (field-independent basis, Debye-Ang):
   XX=            -63.0978   YY=            -49.8356   ZZ=            -51.6048
   XY=              1.1673   XZ=             -0.5500   YZ=              0.8050

  Exact polarizability:  82.312   3.695  77.446   0.174   0.062  64.465
 Approx polarizability: 122.619   6.805 108.273   1.317  -0.820  98.674

                      1                      2                      3
                      A                      A                      A
 Frequencies --     91.2824               196.5288               267.0861
 Red. masses --      5.7383                 3.2503                 2.2244
 Frc consts  --      0.0282                 0.0740                 0.0935
 IR Inten    --      1.3683                 3.7196                 1.3795

                      4                      5                      6
                      A                      A                      A
 Frequencies --    320.8485               356.2952               376.7122
 Red. masses --      4.4799                 2.6625                 2.1528
 Frc consts  --      0.2717                 0.1991                 0.1800
 IR Inten    --      1.2024                 0.4302                 0.1895

                      7                      8                      9
                      A                      A                      A
 Frequencies --    440.0931               515.2749               631.8478
 Red. masses --      4.8187                 2.5684                 2.5999
 Frc consts  --      0.5499                 0.4018                 0.6116
 IR Inten    --      4.9169                 1.9839                 8.1304

                     10                     11                     12
                      A                      A                      A
 Frequencies --    701.5929               753.3142               790.9164
 Red. masses --      3.9178                 4.0751                 2.7817
 Frc consts  --      1.1362                 1.3625                 1.0252
 IR Inten    --      0.8269                 7.6892                 0.0299

                     13                     14                     15
                      A                      A                      A
 Frequencies --    806.1936               836.5268               890.6668
 Red. masses --      1.8059                 2.9683                 2.5508
 Frc consts  --      0.6916                 1.2238                 1.1922
 IR Inten    --      0.7312                 6.4545                 2.7349

                     16                     17                     18
                      A                      A                      A
 Frequencies --    929.9642               930.9487               962.2709
 Red. masses --      2.5470                 2.1519                 2.1126
 Frc consts  --      1.2978                 1.0988                 1.1526
 IR Inten    --      6.7232                 0.6762                 8.5195

                     19                     20                     21
                      A                      A                      A
 Frequencies --    988.3533              1059.0632              1061.2008
 Red. masses --      1.9709                 1.6460                 1.7410
 Frc consts  --      1.1343                 1.0877                 1.1552
 IR Inten    --     13.0785                21.3149                48.8597

                     22                     23                     24
                      A                      A                      A
 Frequencies --   1085.0390              1101.1580              1124.7011
 Red. masses --      2.8721                 2.2816                 1.4862
 Frc consts  --      1.9922                 1.6300                 1.1077
 IR Inten    --     45.3914                19.1507                12.9106

                     25                     26                     27
                      A                      A                      A
 Frequencies --   1162.8101              1177.1628              1237.6701
 Red. masses --      1.6943                 1.3979                 1.3129
 Frc consts  --      1.3498                 1.1413                 1.1849
 IR Inten    --     67.3772                 6.3545                15.6834

                     28                     29                     30
                      A                      A                      A
 Frequencies --   1238.8629              1263.0390              1278.5037
 Red. masses --      1.8393                 1.3327                 1.5782
 Frc consts  --      1.6632                 1.2526                 1.5199
 IR Inten    --     59.3963                 0.0808                 0.8525

                     31                     32                     33
                      A                      A                      A
 Frequencies --   1297.8134              1313.3860              1343.3041
 Red. masses --      1.4206                 1.4475                 1.4883
 Frc consts  --      1.4098                 1.4711                 1.5823
 IR Inten    --      7.8081                46.9976                10.4705

                     34                     35                     36
                      A                      A                      A
 Frequencies --   1358.8871              1390.8724              1426.6300
 Red. masses --      1.4925                 1.3943                 1.3251
 Frc consts  --      1.6238                 1.5892                 1.5890
 IR Inten    --      4.3788                11.1353                 9.3769

                     37                     38                     39
                      A                      A                      A
 Frequencies --   1473.1496              1481.3307              1501.3454
 Red. masses --      1.0837                 1.0887                 1.1234
 Frc consts  --      1.3857                 1.4076                 1.4920
 IR Inten    --      1.3239                 4.3505                11.4715

                     40                     41                     42
                      A                      A                      A
 Frequencies --   1522.8775              1830.1357              3022.1542
 Red. masses --      1.0867                11.9642                 1.0606
 Frc consts  --      1.4849                23.6103                 5.7074
 IR Inten    --      3.1009               319.6012                20.7148

                     43                     44                     45
                      A                      A                      A
 Frequencies --   3040.2578              3060.8296              3065.6157
 Red. masses --      1.0698                 1.0668                 1.0672
 Frc consts  --      5.8261                 5.8888                 5.9091
 IR Inten    --     12.8663                 7.0281                25.7912

                     46                     47                     48
                      A                      A                      A
 Frequencies --   3065.8696              3076.8917              3100.8402
 Red. masses --      1.0878                 1.0782                 1.1010
 Frc consts  --      6.0244                 6.0141                 6.2371
 IR Inten    --     61.8684                45.0587                31.8862

                     49                     50                     51
                      A                      A                      A
 Frequencies --   3115.1465              3118.2948              3126.4850
 Red. masses --      1.1041                 1.1078                 1.0917
 Frc consts  --      6.3125                 6.3466                 6.2875
 IR Inten    --     19.9579                12.5792                28.2165

 - Thermochemistry -
 -------------------
 Temperature   298.150 Kelvin.  Pressure   1.00000 Atm.
 Atom     1 has atomic number  8 and mass  15.99491

 Molecular mass:   126.06808 amu.
 Principal axes and moments of inertia in atomic units:
                           1         2         3
     Eigenvalues --   702.278491026.158411402.01336
           X            0.99970   0.02437  -0.00270
           Y           -0.02434   0.99965   0.00987
           Z            0.00294  -0.00980   0.99995
 This molecule is an asymmetric top.
 Rotational symmetry number  1.
 Warning -- assumption of classical behavior for rotation
           may cause significant error
 Rotational temperatures (Kelvin)      0.12333     0.08441     0.06178
 Rotational constants (GHZ):           2.56984     1.75874     1.28725
 Zero-point vibrational energy     426516.8 (Joules/Mol)
                                  101.93997 (Kcal/Mol)
 Warning -- explicit consideration of   8 degrees of freedom as
           vibrations may cause significant error
 Vibrational temperatures:    131.33   282.76   384.28   461.63   512.63
          (Kelvin)            542.00   633.20   741.36   909.09  1009.43
                             1083.85  1137.95  1159.93  1203.57  1281.47
                             1338.01  1339.43  1384.49  1422.02  1523.75
                             1526.83  1561.13  1584.32  1618.19  1673.02
                             1693.67  1780.73  1782.45  1817.23  1839.48
                             1867.26  1889.67  1932.71  1955.13  2001.15
                             2052.60  2119.53  2131.30  2160.10  2191.08
                             2633.15  4348.20  4374.25  4403.85  4410.73
                             4411.10  4426.96  4461.41  4482.00  4486.53
                             4498.31

 Zero-point correction=                           0.162452 (Hartree/Particle)
 Thermal correction to Energy=                    0.169740
 Thermal correction to Enthalpy=                  0.170684
 Thermal correction to Gibbs Free Energy=         0.130746
 Sum of electronic and zero-point Energies=           -423.052192
 Sum of electronic and thermal Energies=              -423.044904
 Sum of electronic and thermal Enthalpies=            -423.043960
 Sum of electronic and thermal Free Energies=         -423.083898

                     E (Thermal)             CV                S
                      KCal/Mol        Cal/Mol-Kelvin    Cal/Mol-Kelvin
 Total                  106.513             29.152             84.057
 Electronic               0.000              0.000              0.000
 Translational            0.889              2.981             40.409
 Rotational               0.889              2.981             28.404
 Vibrational            104.736             23.191             15.244
 Vibration     1          0.602              1.955              3.632
 Vibration     2          0.636              1.845              2.165
 Vibration     3          0.672              1.734              1.615
 Vibration     4          0.706              1.634              1.306
 Vibration     5          0.732              1.562              1.138
 Vibration     6          0.747              1.520              1.052
 Vibration     7          0.800              1.383              0.826
 Vibration     8          0.870              1.216              0.621

 Optimization completed.
    -- Stationary point found.
 Normal termination of Gaussian 09 at Mon Jan 27 14:34:31 2020.
