 Gaussian 09, Revision D.01,
 Gaussian 09:  ES64L-G09RevD.01 24-Apr-2013

 -----------------------------
 # b3lyp 6-31G(2df,p) opt Freq
 -----------------------------

 -----
 titel
 -----
 Symbolic Z-matrix:
 Charge =  0 Multiplicity = 1

 SCF Done:  E(RB3LYP) =  -423.152763964     A.U. after   13 cycles
 Optimization completed.
    -- Stationary point found.
 Normal termination of Gaussian 09 at Mon Jan 27 22:47:35 2020.

 ----------------------------------------------------------------------
 #N Geom=AllCheck Guess=TCheck SCRF=Check GenChk RB3LYP/6-31G(2df,p) Fr
 eq
 ----------------------------------------------------------------------

 Structure from the checkpoint file:  "/scratch/puck/g09_26d84f70-ea95-438a-b007-9913a332a1f5/Gau-101001.chk"
 -----
 titel
 -----
 Charge =  0 Multiplicity = 1

                         Standard orientation:
 ---------------------------------------------------------------------
 Center     Atomic      Atomic             Coordinates (Angstroms)
 Number     Number       Type             X           Y           Z
 ---------------------------------------------------------------------
      1          6           0        2.588644   -0.248506   -0.038957
      2          6           0        1.153780   -0.664158    0.263567
      3          6           0        0.387117    0.355593    1.115503
      4          6           0       -1.128101    0.157605    0.929907
      5          6           0       -1.615299   -1.151901    0.322769
      6          8           0       -0.943126   -1.254454   -0.942721
      7          6           0        0.146663   -0.344927   -0.899433
      8          6           0       -0.328052    0.900497   -0.095976
      9          8           0       -0.478980    2.204781   -0.511361
     10          1           0        3.038353   -0.910462   -0.786814
     11          1           0        2.626482    0.776128   -0.425988
     12          1           0        3.211740   -0.285750    0.861110
     13          1           0        1.116558   -1.707160    0.598358
     14          1           0        0.767704    0.891699    1.977877
     15          1           0       -1.764417    0.720570    1.602617
     16          1           0       -1.381613   -2.026033    0.946164
     17          1           0       -2.697157   -1.144578    0.143843
     18          1           0        0.556083   -0.226721   -1.902731
     19          1           0       -1.325396    2.284482   -0.966058
 ---------------------------------------------------------------------

 SCF Done:  E(RB3LYP) =  -423.152763964     A.U. after    1 cycles

 The electronic state is 1-A.
 Alpha  occ. eigenvalues --  -19.15392 -19.13322 -10.23520 -10.22693 -10.22657
 Alpha  occ. eigenvalues --  -10.19270 -10.19232 -10.18689 -10.17433  -1.04557
 Alpha  occ. eigenvalues --   -1.02699  -0.88282  -0.76821  -0.71232  -0.63373
 Alpha  occ. eigenvalues --   -0.62410  -0.58914  -0.54201  -0.52839  -0.47269
 Alpha  occ. eigenvalues --   -0.46879  -0.44384  -0.41996  -0.41410  -0.39817
 Alpha  occ. eigenvalues --   -0.38704  -0.37346  -0.36683  -0.34737  -0.31927
 Alpha  occ. eigenvalues --   -0.29932  -0.27277  -0.26020  -0.22530
 Alpha virt. eigenvalues --    0.07405   0.09865   0.10159   0.11712   0.12071
 Alpha virt. eigenvalues --    0.14031   0.15230   0.16013   0.16408   0.16664
 Alpha virt. eigenvalues --    0.17730   0.18578   0.20081   0.21626   0.22132

 Mulliken charges:
               1
     1  C   -0.414115
     2  C    0.000151
     3  C   -0.126107
     4  C   -0.176904
     5  C   -0.107077
     6  O   -0.269838
     7  C   -0.004492
     8  C    0.383528
     9  O   -0.467811
    10  H    0.115545
    11  H    0.124110
    12  H    0.114977
    13  H    0.070428
    14  H    0.088441
    15  H    0.095088
    16  H    0.099732
    17  H    0.102183
    18  H    0.083317
    19  H    0.288842
 Sum of Mulliken charges =   0.00000

 Dipole moment (field-independent basis, Debye):
    X=             -0.6899    Y=              0.3750    Z=              0.7591  Tot=              1.0921
 Quadrupole moment (field-independent basis, Debye-Ang):
   XX=            -49.0136   YY=            -56.8511   ZZ=            -52.1932
   XY=             -3.7726   XZ=             -0.5810   YZ=             -2.5237

  Exact polarizability:  84.140  -0.015  70.701  -1.300  -1.336  67.743
 Approx polarizability: 112.809   1.154 105.617   0.260  -2.779 106.251

                      1                      2                      3
                      A                      A                      A
 Frequencies --    140.0083               229.4773               233.0235
 Red. masses --      3.2873                 1.3017                 1.4334
 Frc consts  --      0.0380                 0.0404                 0.0459
 IR Inten    --      2.9672                 4.3208                 9.2587

                      4                      5                      6
                      A                      A                      A
 Frequencies --    262.5181               273.6220               294.8539
 Red. masses --      2.3168                 4.8962                 1.2836
 Frc consts  --      0.0941                 0.2160                 0.0657
 IR Inten    --     10.2363                 6.4303                65.7502

                      7                      8                      9
                      A                      A                      A
 Frequencies --    373.1286               442.8747               497.7378
 Red. masses --      3.7319                 3.6248                 3.0630
 Frc consts  --      0.3061                 0.4189                 0.4471
 IR Inten    --     14.9432                 1.2130                 3.1804

                     10                     11                     12
                      A                      A                      A
 Frequencies --    599.2441               688.9548               724.6301
 Red. masses --      4.1449                 3.7345                 4.3944
 Frc consts  --      0.8769                 1.0444                 1.3595
 IR Inten    --     14.5120                 2.9366                 2.2700

                     13                     14                     15
                      A                      A                      A
 Frequencies --    765.0927               839.2409               840.5154
 Red. masses --      4.6827                 1.9916                 2.3340
 Frc consts  --      1.6150                 0.8265                 0.9715
 IR Inten    --      6.5483                 6.5030                 6.5159

                     16                     17                     18
                      A                      A                      A
 Frequencies --    913.1168               921.4284               950.3459
 Red. masses --      2.0736                 2.4208                 2.4408
 Frc consts  --      1.0187                 1.2110                 1.2988
 IR Inten    --      1.3709                10.6685                27.1017

                     19                     20                     21
                      A                      A                      A
 Frequencies --    978.5360              1008.7788              1017.7474
 Red. masses --      1.4259                 2.1706                 1.8112
 Frc consts  --      0.8045                 1.3014                 1.1053
 IR Inten    --     11.1152                13.3944                12.9324

                     22                     23                     24
                      A                      A                      A
 Frequencies --   1045.5849              1074.8578              1086.0502
 Red. masses --      2.2788                 2.2930                 1.7540
 Frc consts  --      1.4678                 1.5608                 1.2189
 IR Inten    --      7.9004                23.4951                11.2586

                     25                     26                     27
                      A                      A                      A
 Frequencies --   1106.5975              1140.5866              1155.3878
 Red. masses --      2.3327                 2.2660                 1.6739
 Frc consts  --      1.6830                 1.7369                 1.3165
 IR Inten    --     41.7066                 1.2337                 1.3660

                     28                     29                     30
                      A                      A                      A
 Frequencies --   1182.3560              1218.9498              1223.2236
 Red. masses --      1.9595                 1.4158                 1.7697
 Frc consts  --      1.6140                 1.2394                 1.5601
 IR Inten    --      8.0346                20.1950                21.9567

                     31                     32                     33
                      A                      A                      A
 Frequencies --   1261.2311              1294.1858              1303.9031
 Red. masses --      1.5654                 1.7159                 1.3544
 Frc consts  --      1.4671                 1.6933                 1.3567
 IR Inten    --      4.0832                 3.6475                68.9192

                     34                     35                     36
                      A                      A                      A
 Frequencies --   1315.2246              1370.9831              1381.5963
 Red. masses --      1.4189                 1.5709                 1.5008
 Frc consts  --      1.4461                 1.7396                 1.6879
 IR Inten    --     40.3449                 5.1564                 9.6381

                     37                     38                     39
                      A                      A                      A
 Frequencies --   1409.9859              1479.0303              1494.7830
 Red. masses --      1.2390                 3.5585                 1.0632
 Frc consts  --      1.4512                 4.5864                 1.3997
 IR Inten    --      2.1240                47.7278                 8.7318

                     40                     41                     42
                      A                      A                      A
 Frequencies --   1499.8899              1525.8201              3002.1765
 Red. masses --      1.0602                 1.0892                 1.0639
 Frc consts  --      1.4053                 1.4941                 5.6497
 IR Inten    --      4.6026                 0.9507                60.8920

                     43                     44                     45
                      A                      A                      A
 Frequencies --   3025.6601              3037.5829              3047.4125
 Red. masses --      1.0348                 1.0838                 1.1010
 Frc consts  --      5.5813                 5.8919                 6.0243
 IR Inten    --     30.0511                34.4680                47.0001

                     46                     47                     48
                      A                      A                      A
 Frequencies --   3094.1494              3097.2476              3122.3318
 Red. masses --      1.1012                 1.1015                 1.0906
 Frc consts  --      6.2117                 6.2257                 6.2643
 IR Inten    --     25.5358                31.0195                26.6915

                     49                     50                     51
                      A                      A                      A
 Frequencies --   3175.4181              3192.1283              3786.8070
 Red. masses --      1.0920                 1.0914                 1.0660
 Frc consts  --      6.4873                 6.5521                 9.0067
 IR Inten    --     11.0897                10.2803                21.6953

 - Thermochemistry -
 -------------------
 Temperature   298.150 Kelvin.  Pressure   1.00000 Atm.
 Atom     1 has atomic number  6 and mass  12.00000

 Molecular mass:   126.06808 amu.
 Principal axes and moments of inertia in atomic units:
                           1         2         3
     Eigenvalues --   799.36002 987.804891291.08107
           X            0.99940  -0.02854  -0.01985
           Y            0.02812   0.99938  -0.02122
           Z            0.02045   0.02065   0.99958
 This molecule is an asymmetric top.
 Rotational symmetry number  1.
 Warning -- assumption of classical behavior for rotation
           may cause significant error
 Rotational temperatures (Kelvin)      0.10835     0.08768     0.06709
 Rotational constants (GHZ):           2.25773     1.82702     1.39785
 Zero-point vibrational energy     419566.4 (Joules/Mol)
                                  100.27876 (Kcal/Mol)
 Warning -- explicit consideration of  10 degrees of freedom as
           vibrations may cause significant error
 Vibrational temperatures:    201.44   330.17   335.27   377.70   393.68
          (Kelvin)            424.23   536.85   637.20   716.13   862.18
                              991.25  1042.58  1100.80  1207.48  1209.31
                             1313.77  1325.73  1367.33  1407.89  1451.41
                             1464.31  1504.36  1546.48  1562.58  1592.14
                             1641.05  1662.34  1701.14  1753.79  1759.94
                             1814.63  1862.04  1876.02  1892.31  1972.54
                             1987.81  2028.65  2127.99  2150.66  2158.00
                             2195.31  4319.46  4353.24  4370.40  4384.54
                             4451.79  4456.24  4492.33  4568.71  4592.75
                             5448.36

 Zero-point correction=                           0.159804 (Hartree/Particle)
 Thermal correction to Energy=                    0.167656
 Thermal correction to Enthalpy=                  0.168600
 Thermal correction to Gibbs Free Energy=         0.127936
 Sum of electronic and zero-point Energies=           -422.992960
 Sum of electronic and thermal Energies=              -422.985108
 Sum of electronic and thermal Enthalpies=            -422.984164
 Sum of electronic and thermal Free Energies=         -423.024828

                     E (Thermal)             CV                S
                      KCal/Mol        Cal/Mol-Kelvin    Cal/Mol-Kelvin
 Total                  105.206             31.355             85.584
 Electronic               0.000              0.000              0.000
 Translational            0.889              2.981             40.409
 Rotational               0.889              2.981             28.413
 Vibrational            103.428             25.393             16.763
 Vibration     1          0.615              1.913              2.804
 Vibration     2          0.652              1.796              1.883
 Vibration     3          0.654              1.790              1.856
 Vibration     4          0.670              1.741              1.645
 Vibration     5          0.676              1.722              1.573
 Vibration     6          0.689              1.683              1.446
 Vibration     7          0.745              1.527              1.067
 Vibration     8          0.803              1.377              0.818
 Vibration     9          0.853              1.255              0.664
 Vibration    10          0.957              1.033              0.451

 Optimization completed.
    -- Stationary point found.
 Normal termination of Gaussian 09 at Mon Jan 27 23:33:54 2020.
