 Gaussian 09, Revision D.01,
 Gaussian 09:  ES64L-G09RevD.01 24-Apr-2013

 -----------------------------
 # b3lyp 6-31G(2df,p) opt Freq
 -----------------------------

 -----
 titel
 -----
 Symbolic Z-matrix:
 Charge =  0 Multiplicity = 1

 SCF Done:  E(RB3LYP) =  -423.168375297     A.U. after   14 cycles
 Optimization completed.
    -- Stationary point found.
 Normal termination of Gaussian 09 at Mon Jan 27 17:49:23 2020.

 ----------------------------------------------------------------------
 #N Geom=AllCheck Guess=TCheck SCRF=Check GenChk RB3LYP/6-31G(2df,p) Fr
 eq
 ----------------------------------------------------------------------

 Structure from the checkpoint file:  "/scratch/puck/g09_98ca5fa8-68eb-48f1-8990-5af1d5179f1b/Gau-67464.chk"
 -----
 titel
 -----
 Charge =  0 Multiplicity = 1

                         Standard orientation:
 ---------------------------------------------------------------------
 Center     Atomic      Atomic             Coordinates (Angstroms)
 Number     Number       Type             X           Y           Z
 ---------------------------------------------------------------------
      1          6           0        1.911992   -1.363033   -0.381213
      2          6           0        0.992594   -0.260738    0.058798
      3          8           0        1.571574    0.884806    0.706076
      4          6           0        0.887785    1.078008   -0.545128
      5          6           0       -0.497008    1.674557   -0.365837
      6          6           0       -1.278745    0.619237    0.450082
      7          6           0       -2.104593   -0.410912   -0.355780
      8          8           0       -1.155638   -1.468137   -0.092900
      9          6           0       -0.338464   -0.587586    0.711020
     10          1           0        1.369899   -2.060909   -1.025738
     11          1           0        2.771300   -0.963498   -0.925346
     12          1           0        2.284876   -1.921111    0.484735
     13          1           0        1.523744    1.391848   -1.370161
     14          1           0       -0.431217    2.634133    0.156543
     15          1           0       -0.968373    1.864634   -1.336936
     16          1           0       -1.793392    1.035510    1.315009
     17          1           0       -3.092660   -0.646709    0.057484
     18          1           0       -2.207246   -0.207005   -1.429496
     19          1           0       -0.225797   -0.957439    1.736852
 ---------------------------------------------------------------------

 SCF Done:  E(RB3LYP) =  -423.168375297     A.U. after    1 cycles

 The electronic state is 1-A.
 Alpha  occ. eigenvalues --  -19.14665 -19.13429 -10.23582 -10.23365 -10.23293
 Alpha  occ. eigenvalues --  -10.23237 -10.19626 -10.19137 -10.18009  -1.07058
 Alpha  occ. eigenvalues --   -1.03702  -0.79663  -0.75468  -0.69871  -0.69348
 Alpha  occ. eigenvalues --   -0.62345  -0.57362  -0.54065  -0.50750  -0.49177
 Alpha  occ. eigenvalues --   -0.46182  -0.44429  -0.43595  -0.41902  -0.40793
 Alpha  occ. eigenvalues --   -0.39729  -0.37613  -0.36102  -0.35061  -0.32711
 Alpha  occ. eigenvalues --   -0.30378  -0.28170  -0.27423  -0.24311
 Alpha virt. eigenvalues --    0.07359   0.09052   0.09715   0.10200   0.12167
 Alpha virt. eigenvalues --    0.13647   0.14240   0.15212   0.15525   0.16876
 Alpha virt. eigenvalues --    0.17478   0.18267   0.19021   0.20603   0.21891

 Mulliken charges:
               1
     1  C   -0.497622
     2  C    0.395730
     3  O   -0.304540
     4  C   -0.009191
     5  C   -0.270217
     6  C   -0.074327
     7  C   -0.077628
     8  O   -0.296317
     9  C    0.058286
    10  H    0.142231
    11  H    0.125776
    12  H    0.127353
    13  H    0.092297
    14  H    0.115973
    15  H    0.102559
    16  H    0.084757
    17  H    0.103848
    18  H    0.099485
    19  H    0.081548
 Sum of Mulliken charges =   0.00000

 Dipole moment (field-independent basis, Debye):
    X=             -0.9727    Y=              0.8565    Z=             -0.9175  Tot=              1.5879
 Quadrupole moment (field-independent basis, Debye-Ang):
   XX=            -52.4172   YY=            -55.2667   ZZ=            -51.9488
   XY=             -4.2800   XZ=             -2.6393   YZ=             -2.4681

  Exact polarizability:  80.333  -2.817  75.289   0.120  -3.510  65.360
 Approx polarizability: 106.615  -0.403 110.507   5.071  -3.650 103.367

                      1                      2                      3
                      A                      A                      A
 Frequencies --     80.4210               167.5661               202.7229
 Red. masses --      2.6926                 1.7799                 1.4545
 Frc consts  --      0.0103                 0.0294                 0.0352
 IR Inten    --      1.4586                 4.1906                 1.9387

                      4                      5                      6
                      A                      A                      A
 Frequencies --    222.6920               323.1415               369.4764
 Red. masses --      2.9234                 2.6918                 2.5912
 Frc consts  --      0.0854                 0.1656                 0.2084
 IR Inten    --      4.9914                 2.3600                 3.7721

                      7                      8                      9
                      A                      A                      A
 Frequencies --    430.9567               470.9670               560.7653
 Red. masses --      3.1281                 4.6298                 4.2249
 Frc consts  --      0.3423                 0.6051                 0.7828
 IR Inten    --      3.0650                 1.6435                 3.3734

                     10                     11                     12
                      A                      A                      A
 Frequencies --    691.6979               739.7245               793.6446
 Red. masses --      4.1674                 4.7499                 2.7505
 Frc consts  --      1.1747                 1.5313                 1.0207
 IR Inten    --      3.9824                 8.0754                 0.7705

                     13                     14                     15
                      A                      A                      A
 Frequencies --    849.9028               869.5546               881.4140
 Red. masses --      3.4562                 2.0380                 2.8849
 Frc consts  --      1.4709                 0.9079                 1.3205
 IR Inten    --     16.2482                 2.2618                11.6718

                     16                     17                     18
                      A                      A                      A
 Frequencies --    910.7107               947.0949               967.8391
 Red. masses --      1.9889                 2.2501                 1.8928
 Frc consts  --      0.9719                 1.1891                 1.0446
 IR Inten    --      2.1044                 4.2812                 9.2517

                     19                     20                     21
                      A                      A                      A
 Frequencies --    998.3575              1015.9652              1031.5944
 Red. masses --      2.7322                 1.5389                 7.1786
 Frc consts  --      1.6045                 0.9359                 4.5010
 IR Inten    --      8.4675                 9.1344               111.4391

                     22                     23                     24
                      A                      A                      A
 Frequencies --   1058.1158              1085.3563              1106.9627
 Red. masses --      2.0971                 1.7805                 1.9686
 Frc consts  --      1.3834                 1.2357                 1.4212
 IR Inten    --      5.5086                 1.8530                15.7219

                     25                     26                     27
                      A                      A                      A
 Frequencies --   1123.9714              1163.9342              1206.1166
 Red. masses --      2.4030                 1.1324                 1.4301
 Frc consts  --      1.7886                 0.9039                 1.2257
 IR Inten    --      9.2477                 0.7165                 2.0476

                     28                     29                     30
                      A                      A                      A
 Frequencies --   1225.3863              1248.8468              1273.0985
 Red. masses --      1.4708                 1.5861                 1.4382
 Frc consts  --      1.3012                 1.4575                 1.3734
 IR Inten    --      2.0739                 3.5992                 6.9550

                     31                     32                     33
                      A                      A                      A
 Frequencies --   1289.9165              1315.6400              1339.4600
 Red. masses --      1.4163                 1.6704                 1.3602
 Frc consts  --      1.3884                 1.7035                 1.4379
 IR Inten    --      1.4923                 1.2853                 3.0676

                     34                     35                     36
                      A                      A                      A
 Frequencies --   1341.8798              1363.8646              1407.0661
 Red. masses --      2.1900                 1.5354                 1.2864
 Frc consts  --      2.3234                 1.6827                 1.5006
 IR Inten    --      0.5174                 1.9460                 7.2571

                     37                     38                     39
                      A                      A                      A
 Frequencies --   1459.0127              1480.1718              1485.6004
 Red. masses --      2.5813                 1.0830                 1.1000
 Frc consts  --      3.2374                 1.3980                 1.4303
 IR Inten    --     13.0147                 4.5460                 7.7372

                     40                     41                     42
                      A                      A                      A
 Frequencies --   1499.8880              1523.5464              3009.7114
 Red. masses --      1.2139                 1.1017                 1.0557
 Frc consts  --      1.6089                 1.5067                 5.6343
 IR Inten    --      3.1881                 0.9372                78.2389

                     43                     44                     45
                      A                      A                      A
 Frequencies --   3039.2228              3040.1615              3042.9362
 Red. masses --      1.0465                 1.0611                 1.0765
 Frc consts  --      5.6951                 5.7781                 5.8729
 IR Inten    --     10.6815                51.9597                22.7376

                     46                     47                     48
                      A                      A                      A
 Frequencies --   3054.1036              3081.7584              3106.3342
 Red. masses --      1.1092                 1.1023                 1.0985
 Frc consts  --      6.0956                 6.1680                 6.2454
 IR Inten    --     41.9683                13.1293                13.0648

                     49                     50                     51
                      A                      A                      A
 Frequencies --   3118.7514              3129.1234              3137.9061
 Red. masses --      1.0892                 1.1022                 1.0909
 Frc consts  --      6.2421                 6.3588                 6.3284
 IR Inten    --     36.4381                 8.5050                30.7444

 - Thermochemistry -
 -------------------
 Temperature   298.150 Kelvin.  Pressure   1.00000 Atm.
 Atom     1 has atomic number  6 and mass  12.00000

 Molecular mass:   126.06808 amu.
 Principal axes and moments of inertia in atomic units:
                           1         2         3
     Eigenvalues --   674.71999 993.353441398.95024
           X            0.99368  -0.11106  -0.01634
           Y            0.11081   0.99372  -0.01552
           Z            0.01796   0.01361   0.99975
 This molecule is an asymmetric top.
 Rotational symmetry number  1.
 Warning -- assumption of classical behavior for rotation
           may cause significant error
 Rotational temperatures (Kelvin)      0.12837     0.08719     0.06191
 Rotational constants (GHZ):           2.67480     1.81682     1.29007
 Zero-point vibrational energy     420392.0 (Joules/Mol)
                                  100.47610 (Kcal/Mol)
 Warning -- explicit consideration of   9 degrees of freedom as
           vibrations may cause significant error
 Vibrational temperatures:    115.71   241.09   291.67   320.40   464.93
          (Kelvin)            531.59   620.05   677.62   806.82   995.20
                             1064.30  1141.88  1222.82  1251.09  1268.16
                             1310.31  1362.66  1392.50  1436.41  1461.75
                             1484.23  1522.39  1561.58  1592.67  1617.14
                             1674.64  1735.33  1763.06  1796.81  1831.70
                             1855.90  1892.91  1927.18  1930.66  1962.29
                             2024.45  2099.19  2129.63  2137.44  2158.00
                             2192.04  4330.30  4372.76  4374.11  4378.10
                             4394.17  4433.96  4469.32  4487.18  4502.10
                             4514.74

 Zero-point correction=                           0.160119 (Hartree/Particle)
 Thermal correction to Energy=                    0.167845
 Thermal correction to Enthalpy=                  0.168790
 Thermal correction to Gibbs Free Energy=         0.127856
 Sum of electronic and zero-point Energies=           -423.008256
 Sum of electronic and thermal Energies=              -423.000530
 Sum of electronic and thermal Enthalpies=            -422.999586
 Sum of electronic and thermal Free Energies=         -423.040520

                     E (Thermal)             CV                S
                      KCal/Mol        Cal/Mol-Kelvin    Cal/Mol-Kelvin
 Total                  105.325             30.037             86.152
 Electronic               0.000              0.000              0.000
 Translational            0.889              2.981             40.409
 Rotational               0.889              2.981             28.330
 Vibrational            103.547             24.076             17.414
 Vibration     1          0.600              1.962              3.881
 Vibration     2          0.624              1.882              2.463
 Vibration     3          0.639              1.836              2.108
 Vibration     4          0.648              1.807              1.937
 Vibration     5          0.708              1.629              1.294
 Vibration     6          0.742              1.535              1.082
 Vibration     7          0.792              1.403              0.856
 Vibration     8          0.828              1.314              0.735
 Vibration     9          0.916              1.116              0.522

 Normal termination of Gaussian 09 at Mon Jan 27 18:36:56 2020.
