 Gaussian 09, Revision D.01,
 Gaussian 09:  ES64L-G09RevD.01 24-Apr-2013

 -----------------------------
 # b3lyp 6-31G(2df,p) opt Freq
 -----------------------------

 -----
 titel
 -----
 Symbolic Z-matrix:
 Charge =  0 Multiplicity = 1

 SCF Done:  E(RB3LYP) =  -423.177103768     A.U. after   13 cycles
 Optimization completed.
    -- Stationary point found.
 Normal termination of Gaussian 09 at Tue Jan 28 00:33:35 2020.

 ----------------------------------------------------------------------
 #N Geom=AllCheck Guess=TCheck SCRF=Check GenChk RB3LYP/6-31G(2df,p) Fr
 eq
 ----------------------------------------------------------------------

 Structure from the checkpoint file:  "/scratch/puck/g09_b72c66c3-5b6b-4b19-9709-320908703084/Gau-70817.chk"
 -----
 titel
 -----
 Charge =  0 Multiplicity = 1

                         Standard orientation:
 ---------------------------------------------------------------------
 Center     Atomic      Atomic             Coordinates (Angstroms)
 Number     Number       Type             X           Y           Z
 ---------------------------------------------------------------------
      1          8           0        2.104032   -1.114263   -0.821962
      2          6           0        1.380613   -0.584135    0.297016
      3          6           0        1.531541    0.914814    0.347404
      4          6           0        0.562349    1.773659    0.030912
      5          6           0       -0.837124    1.386568   -0.360755
      6          6           0       -1.179909   -0.055314   -0.054438
      7          8           0       -2.270933   -0.451545   -0.844374
      8          6           0       -1.037582   -0.567631    1.352086
      9          6           0       -0.069972   -1.026196    0.268291
     10          1           0        1.782838   -0.653221   -1.605370
     11          1           0        1.879692   -1.036375    1.163852
     12          1           0        2.524532    1.281364    0.592755
     13          1           0        0.775255    2.840319    0.033731
     14          1           0       -1.564312    2.052753    0.121960
     15          1           0       -0.971969    1.543054   -1.440634
     16          1           0       -2.558104   -1.324744   -0.559713
     17          1           0       -0.668404    0.107723    2.117943
     18          1           0       -1.768342   -1.288225    1.707427
     19          1           0       -0.195470   -2.046770   -0.084366
 ---------------------------------------------------------------------

 SCF Done:  E(RB3LYP) =  -423.177103768     A.U. after    1 cycles

 The electronic state is 1-A.
 Alpha  occ. eigenvalues --  -19.14335 -19.13090 -10.24307 -10.23380 -10.19166
 Alpha  occ. eigenvalues --  -10.19031 -10.18578 -10.18397 -10.18139  -1.03032
 Alpha  occ. eigenvalues --   -1.01158  -0.86132  -0.78774  -0.73482  -0.66418
 Alpha  occ. eigenvalues --   -0.60201  -0.59202  -0.53359  -0.50817  -0.50102
 Alpha  occ. eigenvalues --   -0.46013  -0.45217  -0.43089  -0.42187  -0.39282
 Alpha  occ. eigenvalues --   -0.38889  -0.37393  -0.35038  -0.34619  -0.32719
 Alpha  occ. eigenvalues --   -0.29592  -0.26844  -0.25191  -0.23435
 Alpha virt. eigenvalues --    0.01091   0.07457   0.09213   0.10592   0.11125
 Alpha virt. eigenvalues --    0.11996   0.14271   0.15764   0.16047   0.17456
 Alpha virt. eigenvalues --    0.18474   0.19668   0.21027   0.23527   0.24073

 Mulliken charges:
               1
     1  O   -0.430291
     2  C    0.082634
     3  C   -0.116331
     4  C   -0.048045
     5  C   -0.315235
     6  C    0.430876
     7  O   -0.480936
     8  C   -0.368970
     9  C   -0.138861
    10  H    0.275633
    11  H    0.089349
    12  H    0.094622
    13  H    0.094843
    14  H    0.114888
    15  H    0.124320
    16  H    0.280774
    17  H    0.119933
    18  H    0.103840
    19  H    0.086958
 Sum of Mulliken charges =   0.00000

 Dipole moment (field-independent basis, Debye):
    X=             -0.8536    Y=              0.4065    Z=              0.6627  Tot=              1.1545
 Quadrupole moment (field-independent basis, Debye-Ang):
   XX=            -57.1850   YY=            -50.2434   ZZ=            -52.5695
   XY=              6.1531   XZ=             -1.1475   YZ=             -1.0878

  Exact polarizability:  83.822  -2.926  79.574   2.367  -2.674  65.163
 Approx polarizability: 121.859 -14.434 117.628   6.387  -4.443 102.409

                      1                      2                      3
                      A                      A                      A
 Frequencies --    100.4086               145.6794               172.1715
 Red. masses --      3.4849                 1.4425                 1.9515
 Frc consts  --      0.0207                 0.0180                 0.0341
 IR Inten    --      0.9614                35.9551                62.9759

                      4                      5                      6
                      A                      A                      A
 Frequencies --    260.6582               315.1542               346.1741
 Red. masses --      2.6312                 1.5343                 1.7212
 Frc consts  --      0.1053                 0.0898                 0.1215
 IR Inten    --      2.2272                39.6601                46.5574

                      7                      8                      9
                      A                      A                      A
 Frequencies --    365.0643               404.6074               443.4016
 Red. masses --      3.4908                 4.3237                 3.7032
 Frc consts  --      0.2741                 0.4170                 0.4290
 IR Inten    --     12.3666                 1.8171                 7.1219

                     10                     11                     12
                      A                      A                      A
 Frequencies --    504.4119               504.4973               583.4757
 Red. masses --      3.5056                 3.0272                 3.1416
 Frc consts  --      0.5255                 0.4540                 0.6302
 IR Inten    --      2.2302                 3.6122                 0.0698

                     13                     14                     15
                      A                      A                      A
 Frequencies --    683.5826               734.7128               768.8646
 Red. masses --      4.4445                 1.6467                 1.6319
 Frc consts  --      1.2237                 0.5237                 0.5684
 IR Inten    --      6.1731                10.1618                11.2764

                     16                     17                     18
                      A                      A                      A
 Frequencies --    848.2655               907.4937               926.2428
 Red. masses --      2.0520                 2.7210                 3.2760
 Frc consts  --      0.8700                 1.3203                 1.6559
 IR Inten    --     14.3478                 2.9649                12.6295

                     19                     20                     21
                      A                      A                      A
 Frequencies --    934.4973               975.6005              1004.3650
 Red. masses --      1.8082                 1.7602                 1.6088
 Frc consts  --      0.9304                 0.9871                 0.9562
 IR Inten    --     23.3558                 8.2811                 2.3414

                     22                     23                     24
                      A                      A                      A
 Frequencies --   1014.7287              1024.4909              1038.5520
 Red. masses --      2.0095                 3.5951                 2.0124
 Frc consts  --      1.2191                 2.2232                 1.2789
 IR Inten    --      1.2604                91.5355                 6.9788

                     25                     26                     27
                      A                      A                      A
 Frequencies --   1050.5215              1115.4040              1138.0491
 Red. masses --      1.4080                 1.5345                 1.5864
 Frc consts  --      0.9155                 1.1248                 1.2105
 IR Inten    --     24.8353                10.2934                 9.1436

                     28                     29                     30
                      A                      A                      A
 Frequencies --   1161.8595              1196.0207              1218.0326
 Red. masses --      1.6154                 1.1828                 1.2166
 Frc consts  --      1.2848                 0.9969                 1.0635
 IR Inten    --    119.0652                 2.2325                 1.8322

                     31                     32                     33
                      A                      A                      A
 Frequencies --   1259.7981              1265.4782              1342.2954
 Red. masses --      1.5363                 1.4162                 1.4269
 Frc consts  --      1.4365                 1.3362                 1.5147
 IR Inten    --      8.0285                28.9532                 9.9404

                     34                     35                     36
                      A                      A                      A
 Frequencies --   1358.2054              1402.2440              1406.3129
 Red. masses --      1.8410                 1.9194                 1.2789
 Frc consts  --      2.0009                 2.2236                 1.4902
 IR Inten    --     12.8355                24.3442                19.6642

                     37                     38                     39
                      A                      A                      A
 Frequencies --   1428.6450              1437.3851              1476.2210
 Red. masses --      1.4632                 1.7276                 1.2428
 Frc consts  --      1.7596                 2.1030                 1.5958
 IR Inten    --     53.1632                 7.4619                12.5076

                     40                     41                     42
                      A                      A                      A
 Frequencies --   1493.5203              1721.2040              3009.0470
 Red. masses --      1.4092                 6.6815                 1.0613
 Frc consts  --      1.8520                11.6625                 5.6617
 IR Inten    --     13.7149                 5.3282                27.2957

                     43                     44                     45
                      A                      A                      A
 Frequencies --   3022.8506              3035.1342              3116.5219
 Red. masses --      1.0836                 1.0982                 1.0544
 Frc consts  --      5.8340                 5.9605                 6.0337
 IR Inten    --     39.8725                19.7926                11.4182

                     46                     47                     48
                      A                      A                      A
 Frequencies --   3142.2409              3146.7805              3173.5764
 Red. masses --      1.0888                 1.0844                 1.0958
 Frc consts  --      6.3342                 6.3268                 6.5026
 IR Inten    --     10.7062                10.2685                25.8918

                     49                     50                     51
                      A                      A                      A
 Frequencies --   3203.3056              3796.7928              3823.8792
 Red. masses --      1.1159                 1.0660                 1.0659
 Frc consts  --      6.7466                 9.0541                 9.1832
 IR Inten    --      9.3865                12.6070                17.1078

 - Thermochemistry -
 -------------------
 Temperature   298.150 Kelvin.  Pressure   1.00000 Atm.
 Atom     1 has atomic number  8 and mass  15.99491

 Molecular mass:   126.06808 amu.
 Principal axes and moments of inertia in atomic units:
                           1         2         3
     Eigenvalues --   726.438701203.358201478.21185
           X            0.99964   0.02648  -0.00494
           Y           -0.02661   0.99920  -0.02988
           Z            0.00414   0.03000   0.99954
 This molecule is an asymmetric top.
 Rotational symmetry number  1.
 Warning -- assumption of classical behavior for rotation
           may cause significant error
 Rotational temperatures (Kelvin)      0.11923     0.07198     0.05859
 Rotational constants (GHZ):           2.48437     1.49975     1.22089
 Zero-point vibrational energy     418384.5 (Joules/Mol)
                                   99.99630 (Kcal/Mol)
 Warning -- explicit consideration of  12 degrees of freedom as
           vibrations may cause significant error
 Vibrational temperatures:    144.47   209.60   247.72   375.03   453.44
          (Kelvin)            498.07   525.25   582.14   637.96   725.74
                              725.86   839.49   983.52  1057.09  1106.22
                             1220.46  1305.68  1332.66  1344.53  1403.67
                             1445.06  1459.97  1474.01  1494.24  1511.46
                             1604.82  1637.40  1671.65  1720.80  1752.48
                             1812.57  1820.74  1931.26  1954.15  2017.51
                             2023.37  2055.50  2068.07  2123.95  2148.84
                             2476.43  4329.34  4349.20  4366.88  4483.97
                             4520.98  4527.51  4566.06  4608.84  5462.73
                             5501.70

 Zero-point correction=                           0.159354 (Hartree/Particle)
 Thermal correction to Energy=                    0.167856
 Thermal correction to Enthalpy=                  0.168800
 Thermal correction to Gibbs Free Energy=         0.126605
 Sum of electronic and zero-point Energies=           -423.017750
 Sum of electronic and thermal Energies=              -423.009248
 Sum of electronic and thermal Enthalpies=            -423.008304
 Sum of electronic and thermal Free Energies=         -423.050499

                     E (Thermal)             CV                S
                      KCal/Mol        Cal/Mol-Kelvin    Cal/Mol-Kelvin
 Total                  105.331             33.383             88.806
 Electronic               0.000              0.000              0.000
 Translational            0.889              2.981             40.409
 Rotational               0.889              2.981             28.648
 Vibrational            103.554             27.421             19.749
 Vibration     1          0.604              1.949              3.446
 Vibration     2          0.617              1.907              2.728
 Vibration     3          0.626              1.877              2.412
 Vibration     4          0.669              1.745              1.657
 Vibration     5          0.703              1.645              1.335
 Vibration     6          0.724              1.583              1.184
 Vibration     7          0.738              1.544              1.100
 Vibration     8          0.770              1.460              0.946
 Vibration     9          0.803              1.375              0.816
 Vibration    10          0.860              1.240              0.647
 Vibration    11          0.860              1.240              0.647
 Vibration    12          0.940              1.067              0.479

 Optimization completed.
    -- Stationary point found.
 Normal termination of Gaussian 09 at Tue Jan 28 01:17:57 2020.
