 Gaussian 09, Revision D.01,
 Gaussian 09:  ES64L-G09RevD.01 24-Apr-2013

 -----------------------------
 # b3lyp 6-31G(2df,p) opt Freq
 -----------------------------

 -----
 titel
 -----
 Symbolic Z-matrix:
 Charge =  0 Multiplicity = 1

 SCF Done:  E(RB3LYP) =  -423.199383874     A.U. after   14 cycles
 Optimization completed.
    -- Stationary point found.
 Normal termination of Gaussian 09 at Mon Jan 27 13:12:37 2020.

 ----------------------------------------------------------------------
 #N Geom=AllCheck Guess=TCheck SCRF=Check GenChk RB3LYP/6-31G(2df,p) Fr
 eq
 ----------------------------------------------------------------------

 Structure from the checkpoint file:  "/scratch/puck/g09_58e2475d-e6b3-4720-9d91-042d23bc6077/Gau-38133.chk"
 -----
 titel
 -----
 Charge =  0 Multiplicity = 1

                         Standard orientation:
 ---------------------------------------------------------------------
 Center     Atomic      Atomic             Coordinates (Angstroms)
 Number     Number       Type             X           Y           Z
 ---------------------------------------------------------------------
      1          8           0       -2.548527    0.008147    0.723344
      2          6           0       -1.500236    0.026541    0.110225
      3          6           0       -0.878065   -1.321873   -0.284810
      4          8           0        0.393448   -1.300185   -0.878287
      5          6           0        1.464888   -1.324190    0.046049
      6          6           0        1.571704   -0.059279    0.895724
      7          6           0        1.605070    1.230632    0.068016
      8          6           0        0.302736    1.789490   -0.432379
      9          6           0       -0.947431    1.316050   -0.388544
     10          1           0       -0.917742   -1.983811    0.593117
     11          1           0       -1.566940   -1.740806   -1.029370
     12          1           0        1.386002   -2.210479    0.696759
     13          1           0        2.367362   -1.438577   -0.564323
     14          1           0        0.754712   -0.012561    1.626365
     15          1           0        2.495034   -0.135801    1.482259
     16          1           0        2.067004    2.026419    0.668506
     17          1           0        2.281689    1.103657   -0.790688
     18          1           0        0.409281    2.797420   -0.834403
     19          1           0       -1.747771    1.986612   -0.694367
 ---------------------------------------------------------------------

 SCF Done:  E(RB3LYP) =  -423.199383874     A.U. after    1 cycles

 The electronic state is 1-A.
 Alpha  occ. eigenvalues --  -19.14899 -19.12340 -10.26624 -10.23592 -10.23487
 Alpha  occ. eigenvalues --  -10.20722 -10.20170 -10.19430 -10.18893  -1.04676
 Alpha  occ. eigenvalues --   -1.03158  -0.81951  -0.77898  -0.71802  -0.69676
 Alpha  occ. eigenvalues --   -0.61340  -0.59135  -0.52514  -0.50023  -0.48751
 Alpha  occ. eigenvalues --   -0.47581  -0.46028  -0.44000  -0.42804  -0.41033
 Alpha  occ. eigenvalues --   -0.39948  -0.37745  -0.36743  -0.35523  -0.33739
 Alpha  occ. eigenvalues --   -0.31451  -0.28562  -0.26608  -0.23176
 Alpha virt. eigenvalues --   -0.04339   0.04444   0.08133   0.10079   0.12348
 Alpha virt. eigenvalues --    0.12416   0.13651   0.14292   0.15108   0.16841
 Alpha virt. eigenvalues --    0.18022   0.18300   0.19316   0.19800   0.23785

 Mulliken charges:
               1
     1  O   -0.320360
     2  C    0.292392
     3  C   -0.176839
     4  O   -0.225083
     5  C   -0.069527
     6  C   -0.238480
     7  C   -0.239530
     8  C   -0.018314
     9  C   -0.137530
    10  H    0.116553
    11  H    0.140481
    12  H    0.092718
    13  H    0.108103
    14  H    0.118162
    15  H    0.104593
    16  H    0.115967
    17  H    0.121327
    18  H    0.100429
    19  H    0.114938
 Sum of Mulliken charges =   0.00000

 Dipole moment (field-independent basis, Debye):
    X=              3.1071    Y=              0.4178    Z=             -0.1439  Tot=              3.1383
 Quadrupole moment (field-independent basis, Debye-Ang):
   XX=            -57.1497   YY=            -49.8025   ZZ=            -55.2021
   XY=              1.2779   XZ=              5.0538   YZ=             -2.3166

  Exact polarizability:  96.290   6.024  80.192  -0.921  -5.003  59.250
 Approx polarizability: 150.085  15.033 108.542 -10.151  -7.527  95.717

                      1                      2                      3
                      A                      A                      A
 Frequencies --     64.1465               100.9325               219.9594
 Red. masses --      4.0229                 2.2163                 5.0415
 Frc consts  --      0.0098                 0.0133                 0.1437
 IR Inten    --      6.3443                 0.3603                 3.2706

                      4                      5                      6
                      A                      A                      A
 Frequencies --    262.9415               283.3009               321.6925
 Red. masses --      2.9978                 3.4312                 2.7556
 Frc consts  --      0.1221                 0.1623                 0.1680
 IR Inten    --      0.6866                 1.5733                13.7141

                      7                      8                      9
                      A                      A                      A
 Frequencies --    394.2002               468.0994               526.1142
 Red. masses --      2.0155                 3.5618                 2.2387
 Frc consts  --      0.1845                 0.4598                 0.3651
 IR Inten    --      1.6698                13.5578                 0.5253

                     10                     11                     12
                      A                      A                      A
 Frequencies --    535.0993               560.3722               660.6020
 Red. masses --      2.4005                 3.7495                 3.2176
 Frc consts  --      0.4050                 0.6937                 0.8273
 IR Inten    --      2.3918                 3.2961                16.5789

                     13                     14                     15
                      A                      A                      A
 Frequencies --    741.4902               785.9046               806.6237
 Red. masses --      1.8014                 2.9112                 3.1651
 Frc consts  --      0.5835                 1.0594                 1.2133
 IR Inten    --     18.5667                 2.5725                 2.4687

                     16                     17                     18
                      A                      A                      A
 Frequencies --    876.5173               905.5967               954.3014
 Red. masses --      1.9197                 1.8347                 2.4162
 Frc consts  --      0.8690                 0.8865                 1.2964
 IR Inten    --     11.2912                 4.9062                 3.4615

                     19                     20                     21
                      A                      A                      A
 Frequencies --   1003.9997              1018.7400              1030.2784
 Red. masses --      1.8675                 1.9797                 1.7811
 Frc consts  --      1.1091                 1.2105                 1.1139
 IR Inten    --     11.0753                 9.2488                 3.1767

                     22                     23                     24
                      A                      A                      A
 Frequencies --   1073.1532              1112.7683              1149.9350
 Red. masses --      2.1543                 1.9995                 3.1346
 Frc consts  --      1.4618                 1.4588                 2.4422
 IR Inten    --     12.3890                 6.0160                80.9331

                     25                     26                     27
                      A                      A                      A
 Frequencies --   1196.1709              1237.4599              1259.7846
 Red. masses --      1.9475                 1.3703                 1.4128
 Frc consts  --      1.6418                 1.2363                 1.3211
 IR Inten    --     40.0250                32.0271                11.1703

                     28                     29                     30
                      A                      A                      A
 Frequencies --   1288.9340              1292.7633              1328.7695
 Red. masses --      1.2690                 1.2985                 1.1669
 Frc consts  --      1.2422                 1.2786                 1.2139
 IR Inten    --     21.4942                35.8912                 4.7711

                     31                     32                     33
                      A                      A                      A
 Frequencies --   1362.5650              1384.4072              1393.9752
 Red. masses --      1.2717                 1.3628                 1.6120
 Frc consts  --      1.3910                 1.5389                 1.8456
 IR Inten    --      4.5578                 5.6510                 0.2224

                     34                     35                     36
                      A                      A                      A
 Frequencies --   1417.7953              1424.0543              1451.5509
 Red. masses --      1.3075                 1.3836                 1.0831
 Frc consts  --      1.5485                 1.6532                 1.3446
 IR Inten    --      4.9040                 9.5247                 2.8784

                     37                     38                     39
                      A                      A                      A
 Frequencies --   1461.0965              1487.0752              1498.8594
 Red. masses --      1.1102                 1.0866                 1.0985
 Frc consts  --      1.3964                 1.4158                 1.4540
 IR Inten    --     15.3810                 5.9560                 4.1301

                     40                     41                     42
                      A                      A                      A
 Frequencies --   1704.1260              1765.1893              2974.3002
 Red. masses --      7.2801                12.0339                 1.0690
 Frc consts  --     12.4564                22.0922                 5.5720
 IR Inten    --     29.0788               175.1713                60.1142

                     43                     44                     45
                      A                      A                      A
 Frequencies --   2999.1056              3001.1588              3022.6546
 Red. masses --      1.0618                 1.0633                 1.0838
 Frc consts  --      5.6270                 5.6426                 5.8339
 IR Inten    --     32.8207                 9.2237                10.4314

                     46                     47                     48
                      A                      A                      A
 Frequencies --   3037.5338              3056.5259              3059.1180
 Red. masses --      1.0728                 1.0989                 1.0968
 Frc consts  --      5.8318                 6.0485                 6.0474
 IR Inten    --     25.7136                12.1774                11.8235

                     49                     50                     51
                      A                      A                      A
 Frequencies --   3077.9709              3119.2106              3156.5053
 Red. masses --      1.0985                 1.0845                 1.0906
 Frc consts  --      6.1316                 6.2168                 6.4024
 IR Inten    --     51.7658                17.9679                 9.5846

 - Thermochemistry -
 -------------------
 Temperature   298.150 Kelvin.  Pressure   1.00000 Atm.
 Atom     1 has atomic number  8 and mass  15.99491

 Molecular mass:   126.06808 amu.
 Principal axes and moments of inertia in atomic units:
                           1         2         3
     Eigenvalues --   794.592871127.885931603.17945
           X            0.99935   0.02435   0.02663
           Y           -0.02365   0.99938  -0.02608
           Z           -0.02725   0.02544   0.99931
 This molecule is an asymmetric top.
 Rotational symmetry number  1.
 Warning -- assumption of classical behavior for rotation
           may cause significant error
 Rotational temperatures (Kelvin)      0.10900     0.07679     0.05403
 Rotational constants (GHZ):           2.27128     1.60011     1.12573
 Zero-point vibrational energy     420579.7 (Joules/Mol)
                                  100.52095 (Kcal/Mol)
 Warning -- explicit consideration of  11 degrees of freedom as
           vibrations may cause significant error
 Vibrational temperatures:     92.29   145.22   316.47   378.31   407.61
          (Kelvin)            462.84   567.17   673.49   756.96   769.89
                              806.25   950.46  1066.84  1130.74  1160.55
                             1261.11  1302.95  1373.03  1444.53  1465.74
                             1482.34  1544.03  1601.02  1654.50  1721.02
                             1780.43  1812.55  1854.49  1860.00  1911.80
                             1960.42  1991.85  2005.62  2039.89  2048.89
                             2088.46  2102.19  2139.57  2156.52  2451.85
                             2539.71  4279.35  4315.04  4317.99  4348.92
                             4370.33  4397.65  4401.38  4428.51  4487.84
                             4541.50

 Zero-point correction=                           0.160190 (Hartree/Particle)
 Thermal correction to Energy=                    0.168405
 Thermal correction to Enthalpy=                  0.169349
 Thermal correction to Gibbs Free Energy=         0.127068
 Sum of electronic and zero-point Energies=           -423.039194
 Sum of electronic and thermal Energies=              -423.030979
 Sum of electronic and thermal Enthalpies=            -423.030035
 Sum of electronic and thermal Free Energies=         -423.072316

                     E (Thermal)             CV                S
                      KCal/Mol        Cal/Mol-Kelvin    Cal/Mol-Kelvin
 Total                  105.676             31.300             88.988
 Electronic               0.000              0.000              0.000
 Translational            0.889              2.981             40.409
 Rotational               0.889              2.981             28.754
 Vibrational            103.898             25.338             19.825
 Vibration     1          0.597              1.971              4.325
 Vibration     2          0.604              1.948              3.436
 Vibration     3          0.647              1.811              1.959
 Vibration     4          0.670              1.741              1.642
 Vibration     5          0.682              1.705              1.514
 Vibration     6          0.707              1.632              1.301
 Vibration     7          0.761              1.483              0.984
 Vibration     8          0.825              1.321              0.743
 Vibration     9          0.881              1.192              0.596
 Vibration    10          0.890              1.172              0.576
 Vibration    11          0.916              1.117              0.523

 Optimization completed.
    -- Stationary point found.
 Normal termination of Gaussian 09 at Mon Jan 27 13:56:25 2020.
