 Gaussian 09, Revision D.01,
 Gaussian 09:  ES64L-G09RevD.01 24-Apr-2013

 -----------------------------
 # b3lyp 6-31G(2df,p) opt Freq
 -----------------------------

 -----
 titel
 -----
 Symbolic Z-matrix:
 Charge =  0 Multiplicity = 1

 SCF Done:  E(RB3LYP) =  -423.223227971     A.U. after   14 cycles
 Optimization completed.
    -- Stationary point found.
 Normal termination of Gaussian 09 at Mon Jan 27 12:54:30 2020.

 ----------------------------------------------------------------------
 #N Geom=AllCheck Guess=TCheck SCRF=Check GenChk RB3LYP/6-31G(2df,p) Fr
 eq
 ----------------------------------------------------------------------

 Structure from the checkpoint file:  "/scratch/puck/g09_4072f28f-9346-4eed-9a7d-1291b946efad/Gau-167061.chk"
 -----
 titel
 -----
 Charge =  0 Multiplicity = 1

                         Standard orientation:
 ---------------------------------------------------------------------
 Center     Atomic      Atomic             Coordinates (Angstroms)
 Number     Number       Type             X           Y           Z
 ---------------------------------------------------------------------
      1          8           0        2.056704   -1.022614    0.603336
      2          6           0        1.134968   -0.361452    0.206932
      3          6           0        0.425974    0.810897    0.875395
      4          6           0        0.167657    1.698639   -0.346260
      5          8           0        0.010221    0.803364   -1.470285
      6          6           0        0.313040   -0.532469   -1.066555
      7          6           0       -0.973720   -1.281202   -0.647673
      8          6           0       -1.770160   -0.412519    0.345810
      9          6           0       -0.887251    0.203921    1.451582
     10          1           0        1.026820    1.286123    1.651420
     11          1           0       -0.739564    2.306871   -0.255497
     12          1           0        1.015017    2.370260   -0.536369
     13          1           0        0.855640   -1.039600   -1.867080
     14          1           0       -1.580286   -1.502245   -1.531829
     15          1           0       -0.687829   -2.241362   -0.199808
     16          1           0       -2.252120    0.392414   -0.218060
     17          1           0       -2.575650   -0.998551    0.799476
     18          1           0       -1.444214    0.982319    1.984995
     19          1           0       -0.616257   -0.557114    2.192950
 ---------------------------------------------------------------------

 SCF Done:  E(RB3LYP) =  -423.223227971     A.U. after    1 cycles

 The electronic state is 1-A.
 Alpha  occ. eigenvalues --  -19.14470 -19.13810 -10.26754 -10.23769 -10.23637
 Alpha  occ. eigenvalues --  -10.20108 -10.20014 -10.19240 -10.19218  -1.05414
 Alpha  occ. eigenvalues --   -1.03357  -0.82929  -0.78206  -0.72810  -0.68084
 Alpha  occ. eigenvalues --   -0.60019  -0.58812  -0.55040  -0.51108  -0.47206
 Alpha  occ. eigenvalues --   -0.45705  -0.44529  -0.42863  -0.41990  -0.41038
 Alpha  occ. eigenvalues --   -0.40491  -0.39000  -0.37947  -0.34910  -0.34154
 Alpha  occ. eigenvalues --   -0.32612  -0.32479  -0.26425  -0.23242
 Alpha virt. eigenvalues --   -0.01949   0.07727   0.10486   0.12029   0.12477
 Alpha virt. eigenvalues --    0.13706   0.14505   0.15058   0.16153   0.16450
 Alpha virt. eigenvalues --    0.17276   0.17718   0.19473   0.21030   0.21488

 Mulliken charges:
               1
     1  O   -0.329442
     2  C    0.412582
     3  C   -0.141825
     4  C   -0.088927
     5  O   -0.284436
     6  C    0.007623
     7  C   -0.226023
     8  C   -0.196555
     9  C   -0.226435
    10  H    0.092916
    11  H    0.106765
    12  H    0.108896
    13  H    0.097211
    14  H    0.109679
    15  H    0.114140
    16  H    0.119307
    17  H    0.101440
    18  H    0.106198
    19  H    0.116887
 Sum of Mulliken charges =   0.00000

 Dipole moment (field-independent basis, Debye):
    X=             -2.1591    Y=              0.9258    Z=              0.6834  Tot=              2.4466
 Quadrupole moment (field-independent basis, Debye-Ang):
   XX=            -57.2575   YY=            -51.7547   ZZ=            -54.6615
   XY=              3.9823   XZ=             -2.6067   YZ=              3.5640

  Exact polarizability:  75.804  -0.710  75.496   0.411   3.120  69.986
 Approx polarizability: 112.583  -7.810 111.311   4.366   0.431 103.994

                      1                      2                      3
                      A                      A                      A
 Frequencies --    133.4149               159.3172               256.6151
 Red. masses --      5.9681                 2.8170                 2.0019
 Frc consts  --      0.0626                 0.0421                 0.0777
 IR Inten    --      3.7973                 3.2621                 0.5837

                      4                      5                      6
                      A                      A                      A
 Frequencies --    280.2513               355.2978               442.8512
 Red. masses --      2.6982                 2.2760                 4.5106
 Frc consts  --      0.1249                 0.1693                 0.5212
 IR Inten    --      2.6961                 0.6981                 3.5256

                      7                      8                      9
                      A                      A                      A
 Frequencies --    460.8015               498.2390               658.4354
 Red. masses --      3.7011                 3.8670                 2.5059
 Frc consts  --      0.4630                 0.5656                 0.6401
 IR Inten    --      7.3684                 0.3410                 0.3199

                     10                     11                     12
                      A                      A                      A
 Frequencies --    710.1377               746.3879               793.9748
 Red. masses --      4.5591                 3.3727                 3.8182
 Frc consts  --      1.3546                 1.1070                 1.4182
 IR Inten    --     14.2520                 3.4128                 2.7838

                     13                     14                     15
                      A                      A                      A
 Frequencies --    814.2374               844.2352               868.0698
 Red. masses --      2.5234                 2.3885                 2.2133
 Frc consts  --      0.9857                 1.0030                 0.9826
 IR Inten    --      1.3681                 4.5324                 0.9231

                     16                     17                     18
                      A                      A                      A
 Frequencies --    902.6258               943.9617               976.7848
 Red. masses --      1.9516                 2.4039                 2.4686
 Frc consts  --      0.9368                 1.2621                 1.3877
 IR Inten    --      6.2101                 5.1131                24.3224

                     19                     20                     21
                      A                      A                      A
 Frequencies --    995.1763              1033.3528              1071.3560
 Red. masses --      2.0536                 2.5494                 2.8219
 Frc consts  --      1.1983                 1.6039                 1.9083
 IR Inten    --     14.7103                 6.7744                23.9328

                     22                     23                     24
                      A                      A                      A
 Frequencies --   1072.2535              1088.9223              1114.6484
 Red. masses --      1.8968                 1.3280                 2.2446
 Frc consts  --      1.2849                 0.9278                 1.6431
 IR Inten    --      0.9803                19.2040                34.0348

                     25                     26                     27
                      A                      A                      A
 Frequencies --   1180.2147              1189.9672              1209.8982
 Red. masses --      1.3039                 1.8273                 1.3281
 Frc consts  --      1.0701                 1.5245                 1.1455
 IR Inten    --      3.2251                25.9644                 2.8726

                     28                     29                     30
                      A                      A                      A
 Frequencies --   1239.4460              1280.8561              1291.3145
 Red. masses --      1.3616                 1.8545                 1.4641
 Frc consts  --      1.2324                 1.7926                 1.4384
 IR Inten    --      3.0861                 2.8918                 5.1641

                     31                     32                     33
                      A                      A                      A
 Frequencies --   1308.5005              1318.2009              1351.0758
 Red. masses --      1.3583                 1.2495                 1.3807
 Frc consts  --      1.3703                 1.2792                 1.4849
 IR Inten    --      3.4832                 1.3242                 1.4965

                     34                     35                     36
                      A                      A                      A
 Frequencies --   1373.6335              1375.4983              1392.3607
 Red. masses --      1.3948                 1.3387                 1.4087
 Frc consts  --      1.5506                 1.4923                 1.6091
 IR Inten    --      2.1053                 1.9869                 3.9986

                     37                     38                     39
                      A                      A                      A
 Frequencies --   1477.5263              1485.9805              1496.7065
 Red. masses --      1.0844                 1.0811                 1.0935
 Frc consts  --      1.3948                 1.4065                 1.4433
 IR Inten    --      3.4108                 3.7352                 2.8346

                     40                     41                     42
                      A                      A                      A
 Frequencies --   1527.5751              1867.2910              3013.6764
 Red. masses --      1.0902                12.1445                 1.0597
 Frc consts  --      1.4989                24.9490                 5.6705
 IR Inten    --      0.2395               220.5553                70.0698

                     43                     44                     45
                      A                      A                      A
 Frequencies --   3031.8544              3032.3909              3049.3181
 Red. masses --      1.0599                 1.0610                 1.0651
 Frc consts  --      5.7400                 5.7483                 5.8351
 IR Inten    --     32.5200                12.4966                10.0737

                     46                     47                     48
                      A                      A                      A
 Frequencies --   3055.4800              3071.0804              3078.4284
 Red. masses --      1.1058                 1.1003                 1.1007
 Frc consts  --      6.0828                 6.1141                 6.1459
 IR Inten    --     34.2105                26.4753                16.5437

                     49                     50                     51
                      A                      A                      A
 Frequencies --   3094.3460              3096.7397              3113.5816
 Red. masses --      1.1043                 1.0884                 1.0877
 Frc consts  --      6.2297                 6.1495                 6.2127
 IR Inten    --     40.0802                25.2202                15.2374

 - Thermochemistry -
 -------------------
 Temperature   298.150 Kelvin.  Pressure   1.00000 Atm.
 Atom     1 has atomic number  8 and mass  15.99491

 Molecular mass:   126.06808 amu.
 Principal axes and moments of inertia in atomic units:
                           1         2         3
     Eigenvalues --   838.40773 996.545861031.20134
           X            0.98859   0.15060  -0.00292
           Y           -0.12711   0.84450   0.52025
           Z            0.08081  -0.51394   0.85401
 This molecule is an asymmetric top.
 Rotational symmetry number  1.
 Warning -- assumption of classical behavior for rotation
           may cause significant error
 Rotational temperatures (Kelvin)      0.10331     0.08691     0.08399
 Rotational constants (GHZ):           2.15258     1.81100     1.75013
 Zero-point vibrational energy     426015.9 (Joules/Mol)
                                  101.82023 (Kcal/Mol)
 Warning -- explicit consideration of   8 degrees of freedom as
           vibrations may cause significant error
 Vibrational temperatures:    191.95   229.22   369.21   403.22   511.19
          (Kelvin)            637.16   662.99   716.85   947.34  1021.73
                             1073.88  1142.35  1171.50  1214.66  1248.96
                             1298.68  1358.15  1405.37  1431.83  1486.76
                             1541.44  1542.73  1566.71  1603.73  1698.06
                             1712.10  1740.77  1783.28  1842.86  1857.91
                             1882.64  1896.59  1943.89  1976.35  1979.03
                             2003.29  2125.83  2137.99  2153.42  2197.84
                             2686.61  4336.00  4362.16  4362.93  4387.28
                             4396.15  4418.59  4429.17  4452.07  4455.51
                             4479.74

 Zero-point correction=                           0.162261 (Hartree/Particle)
 Thermal correction to Energy=                    0.169518
 Thermal correction to Enthalpy=                  0.170462
 Thermal correction to Gibbs Free Energy=         0.130758
 Sum of electronic and zero-point Energies=           -423.060967
 Sum of electronic and thermal Energies=              -423.053710
 Sum of electronic and thermal Enthalpies=            -423.052766
 Sum of electronic and thermal Free Energies=         -423.092470

                     E (Thermal)             CV                S
                      KCal/Mol        Cal/Mol-Kelvin    Cal/Mol-Kelvin
 Total                  106.374             29.071             83.564
 Electronic               0.000              0.000              0.000
 Translational            0.889              2.981             40.409
 Rotational               0.889              2.981             28.246
 Vibrational            104.597             23.109             14.910
 Vibration     1          0.613              1.920              2.896
 Vibration     2          0.621              1.892              2.558
 Vibration     3          0.666              1.752              1.685
 Vibration     4          0.680              1.710              1.532
 Vibration     5          0.731              1.564              1.143
 Vibration     6          0.802              1.377              0.818
 Vibration     7          0.819              1.337              0.764
 Vibration     8          0.854              1.254              0.663

 Optimization completed.
    -- Stationary point found.
 Normal termination of Gaussian 09 at Mon Jan 27 13:39:53 2020.
