 Gaussian 09, Revision D.01,
 Gaussian 09:  ES64L-G09RevD.01 24-Apr-2013

 -----------------------------
 # b3lyp 6-31G(2df,p) opt Freq
 -----------------------------

 -----
 titel
 -----
 Symbolic Z-matrix:
 Charge =  0 Multiplicity = 1

 SCF Done:  E(RB3LYP) =  -423.176221831     A.U. after   14 cycles
 Optimization completed.
    -- Stationary point found.
 Normal termination of Gaussian 09 at Tue Jan 28 02:51:21 2020.

 ----------------------------------------------------------------------
 #N Geom=AllCheck Guess=TCheck SCRF=Check GenChk RB3LYP/6-31G(2df,p) Fr
 eq
 ----------------------------------------------------------------------

 Structure from the checkpoint file:  "/scratch/puck/g09_cda94344-1ac1-4e36-adc1-c65bbff050d2/Gau-60097.chk"
 -----
 titel
 -----
 Charge =  0 Multiplicity = 1

                         Standard orientation:
 ---------------------------------------------------------------------
 Center     Atomic      Atomic             Coordinates (Angstroms)
 Number     Number       Type             X           Y           Z
 ---------------------------------------------------------------------
      1          8           0        2.907844   -0.166679    0.061981
      2          6           0        1.608201   -0.434302   -0.369257
      3          6           0        0.615553   -1.300026    0.489122
      4          6           0       -0.536513   -0.314482    0.143926
      5          6           0       -1.594608   -0.627229   -0.960039
      6          6           0       -2.602754    0.261315   -0.184321
      7          6           0       -1.684892    0.158099    1.064421
      8          6           0        0.566670    0.678207   -0.225594
      9          8           0        0.697134    1.866728   -0.100528
     10          1           0        2.904302    0.721625    0.440116
     11          1           0        1.635165   -0.826032   -1.394691
     12          1           0        0.485658   -2.337927    0.177685
     13          1           0        0.883184   -1.259287    1.548518
     14          1           0       -1.352453   -0.352356   -1.989905
     15          1           0       -1.871452   -1.685653   -0.935058
     16          1           0       -2.631780    1.279888   -0.578337
     17          1           0       -3.625295   -0.109541   -0.091246
     18          1           0       -1.496978    1.072895    1.631378
     19          1           0       -2.000116   -0.633490    1.750367
 ---------------------------------------------------------------------

 SCF Done:  E(RB3LYP) =  -423.176221831     A.U. after    1 cycles

 The electronic state is 1-A.
 Alpha  occ. eigenvalues --  -19.14597 -19.14589 -10.26849 -10.24145 -10.20503
 Alpha  occ. eigenvalues --  -10.19691 -10.19376 -10.18988 -10.18943  -1.05653
 Alpha  occ. eigenvalues --   -1.02667  -0.87190  -0.80522  -0.67143  -0.65208
 Alpha  occ. eigenvalues --   -0.63323  -0.59162  -0.52943  -0.49668  -0.48757
 Alpha  occ. eigenvalues --   -0.47194  -0.46264  -0.42094  -0.40657  -0.40515
 Alpha  occ. eigenvalues --   -0.38505  -0.37833  -0.35855  -0.34435  -0.34101
 Alpha  occ. eigenvalues --   -0.31615  -0.31241  -0.26889  -0.24291
 Alpha virt. eigenvalues --   -0.02738   0.08123   0.08667   0.09456   0.10496
 Alpha virt. eigenvalues --    0.12496   0.13445   0.15182   0.16157   0.16906
 Alpha virt. eigenvalues --    0.18629   0.19143   0.20041   0.20335   0.22560

 Mulliken charges:
               1
     1  O   -0.439002
     2  C    0.075759
     3  C   -0.374878
     4  C    0.244102
     5  C   -0.277720
     6  C   -0.204129
     7  C   -0.288104
     8  C    0.293364
     9  O   -0.322081
    10  H    0.294931
    11  H    0.109596
    12  H    0.109611
    13  H    0.117778
    14  H    0.107103
    15  H    0.108208
    16  H    0.120458
    17  H    0.101914
    18  H    0.116591
    19  H    0.106499
 Sum of Mulliken charges =   0.00000

 Dipole moment (field-independent basis, Debye):
    X=             -1.7862    Y=             -1.5967    Z=              0.1387  Tot=              2.3999
 Quadrupole moment (field-independent basis, Debye-Ang):
   XX=            -56.6370   YY=            -56.5277   ZZ=            -51.0871
   XY=              1.9089   XZ=              0.9517   YZ=              1.0763

  Exact polarizability:  87.825   0.978  74.799   0.354   1.467  65.740
 Approx polarizability: 112.804   3.442 121.225   0.805   2.536  98.634

                      1                      2                      3
                      A                      A                      A
 Frequencies --     73.8459                99.9207               137.1435
 Red. masses --      4.8538                 2.5151                 2.2205
 Frc consts  --      0.0156                 0.0148                 0.0246
 IR Inten    --      0.8866                 1.0113                39.1703

                      4                      5                      6
                      A                      A                      A
 Frequencies --    157.7476               244.9411               263.1655
 Red. masses --      1.9054                 2.6332                 2.4082
 Frc consts  --      0.0279                 0.0931                 0.0983
 IR Inten    --     14.4103                26.3539                 1.0646

                      7                      8                      9
                      A                      A                      A
 Frequencies --    290.1478               371.6932               459.4208
 Red. masses --      2.4520                 3.2747                 3.7841
 Frc consts  --      0.1216                 0.2666                 0.4706
 IR Inten    --      8.2026                 1.7270                 0.4781

                     10                     11                     12
                      A                      A                      A
 Frequencies --    532.3452               652.6644               733.6138
 Red. masses --      2.8052                 2.0798                 1.9366
 Frc consts  --      0.4684                 0.5220                 0.6141
 IR Inten    --      1.5065                 4.6876                 2.1887

                     13                     14                     15
                      A                      A                      A
 Frequencies --    743.3377               773.0013               799.7294
 Red. masses --      3.0496                 1.7612                 1.6984
 Frc consts  --      0.9928                 0.6200                 0.6400
 IR Inten    --      2.4270                 0.3943                 3.9388

                     16                     17                     18
                      A                      A                      A
 Frequencies --    880.6640               885.0914               936.8013
 Red. masses --      2.3048                 2.3088                 3.0105
 Frc consts  --      1.0532                 1.0656                 1.5566
 IR Inten    --      7.8979                 0.5376                20.5692

                     19                     20                     21
                      A                      A                      A
 Frequencies --    940.6983               953.9884               976.9392
 Red. masses --      2.5456                 3.3743                 3.4221
 Frc consts  --      1.3272                 1.8094                 1.9243
 IR Inten    --      3.7024                54.1549                45.9261

                     22                     23                     24
                      A                      A                      A
 Frequencies --   1038.2805              1077.4976              1121.9390
 Red. masses --      1.3467                 1.5981                 1.8309
 Frc consts  --      0.8554                 1.0932                 1.3579
 IR Inten    --      5.0528                 5.1077                28.1308

                     25                     26                     27
                      A                      A                      A
 Frequencies --   1141.5462              1173.6201              1178.6949
 Red. masses --      1.8717                 1.8272                 1.7158
 Frc consts  --      1.4371                 1.4828                 1.4045
 IR Inten    --     21.3998                16.2785                29.6205

                     28                     29                     30
                      A                      A                      A
 Frequencies --   1207.2837              1225.9081              1244.4176
 Red. masses --      1.8229                 1.4712                 1.5933
 Frc consts  --      1.5654                 1.3027                 1.4537
 IR Inten    --     25.3474                 5.4292                 4.6908

                     31                     32                     33
                      A                      A                      A
 Frequencies --   1252.9729              1277.7387              1285.0164
 Red. masses --      1.2555                 1.3869                 1.5653
 Frc consts  --      1.1613                 1.3341                 1.5229
 IR Inten    --      0.5179                 1.4967                 5.0708

                     34                     35                     36
                      A                      A                      A
 Frequencies --   1298.4602              1342.6412              1408.7269
 Red. masses --      2.1335                 1.6464                 1.2718
 Frc consts  --      2.1194                 1.7486                 1.4871
 IR Inten    --     14.7897                 1.8025                56.4857

                     37                     38                     39
                      A                      A                      A
 Frequencies --   1469.0648              1475.8073              1482.3478
 Red. masses --      1.0879                 1.1020                 1.0844
 Frc consts  --      1.3833                 1.4141                 1.4040
 IR Inten    --      1.6864                 1.3758                 1.9600

                     40                     41                     42
                      A                      A                      A
 Frequencies --   1501.2799              1857.2157              3023.9625
 Red. masses --      1.1298                12.6592                 1.0826
 Frc consts  --      1.5003                25.7265                 5.8329
 IR Inten    --      0.7495               210.4615                15.9622

                     43                     44                     45
                      A                      A                      A
 Frequencies --   3049.7625              3057.5821              3065.3951
 Red. masses --      1.0573                 1.0585                 1.0576
 Frc consts  --      5.7940                 5.8304                 5.8552
 IR Inten    --     40.4579                14.8188                21.8502

                     46                     47                     48
                      A                      A                      A
 Frequencies --   3070.6303              3100.0008              3111.3590
 Red. masses --      1.0599                 1.1077                 1.1076
 Frc consts  --      5.8879                 6.2721                 6.3173
 IR Inten    --     33.2746                13.6180                 8.9858

                     49                     50                     51
                      A                      A                      A
 Frequencies --   3129.2084              3129.7375              3775.5715
 Red. masses --      1.1086                 1.1087                 1.0661
 Frc consts  --      6.3957                 6.3984                 8.9541
 IR Inten    --     23.4060                28.1486                29.2472

 - Thermochemistry -
 -------------------
 Temperature   298.150 Kelvin.  Pressure   1.00000 Atm.
 Atom     1 has atomic number  8 and mass  15.99491

 Molecular mass:   126.06808 amu.
 Principal axes and moments of inertia in atomic units:
                           1         2         3
     Eigenvalues --   542.489611505.991191718.41717
           X            0.99999  -0.00355   0.00227
           Y            0.00350   0.99977   0.02121
           Z           -0.00234  -0.02120   0.99977
 This molecule is an asymmetric top.
 Rotational symmetry number  1.
 Warning -- assumption of classical behavior for rotation
           may cause significant error
 Rotational temperatures (Kelvin)      0.15966     0.05751     0.05040
 Rotational constants (GHZ):           3.32678     1.19837     1.05023
 Zero-point vibrational energy     415586.1 (Joules/Mol)
                                   99.32746 (Kcal/Mol)
 Warning -- explicit consideration of  10 degrees of freedom as
           vibrations may cause significant error
 Vibrational temperatures:    106.25   143.76   197.32   226.96   352.42
          (Kelvin)            378.64   417.46   534.78   661.00   765.93
                              939.04  1055.51  1069.50  1112.18  1150.63
                             1267.08  1273.45  1347.85  1353.45  1372.57
                             1405.60  1493.85  1550.28  1614.22  1642.43
                             1688.58  1695.88  1737.01  1763.81  1790.44
                             1802.75  1838.38  1848.85  1868.19  1931.76
                             2026.84  2113.65  2123.35  2132.77  2160.00
                             2672.12  4350.80  4387.92  4399.17  4410.41
                             4417.95  4460.20  4476.55  4502.23  4502.99
                             5432.20

 Zero-point correction=                           0.158288 (Hartree/Particle)
 Thermal correction to Energy=                    0.167187
 Thermal correction to Enthalpy=                  0.168132
 Thermal correction to Gibbs Free Energy=         0.124359
 Sum of electronic and zero-point Energies=           -423.017933
 Sum of electronic and thermal Energies=              -423.009034
 Sum of electronic and thermal Enthalpies=            -423.008090
 Sum of electronic and thermal Free Energies=         -423.051863

                     E (Thermal)             CV                S
                      KCal/Mol        Cal/Mol-Kelvin    Cal/Mol-Kelvin
 Total                  104.912             32.866             92.127
 Electronic               0.000              0.000              0.000
 Translational            0.889              2.981             40.409
 Rotational               0.889              2.981             28.731
 Vibrational            103.134             26.904             22.988
 Vibration     1          0.599              1.966              4.048
 Vibration     2          0.604              1.949              3.456
 Vibration     3          0.614              1.916              2.843
 Vibration     4          0.621              1.894              2.577
 Vibration     5          0.660              1.771              1.767
 Vibration     6          0.670              1.740              1.641
 Vibration     7          0.686              1.692              1.473
 Vibration     8          0.743              1.530              1.073
 Vibration     9          0.817              1.340              0.768
 Vibration    10          0.887              1.178              0.582

 Optimization completed.
    -- Stationary point found.
 Normal termination of Gaussian 09 at Tue Jan 28 03:37:09 2020.
