 Gaussian 09, Revision D.01,
 Gaussian 09:  ES64L-G09RevD.01 24-Apr-2013

 -----------------------------
 # b3lyp 6-31G(2df,p) opt Freq
 -----------------------------

 -----
 titel
 -----
 Symbolic Z-matrix:
 Charge =  0 Multiplicity = 1

 SCF Done:  E(RB3LYP) =  -423.117648024     A.U. after   13 cycles
 Optimization completed.
    -- Stationary point found.
 Normal termination of Gaussian 09 at Tue Jan 28 10:17:24 2020.

 ----------------------------------------------------------------------
 #N Geom=AllCheck Guess=TCheck SCRF=Check GenChk RB3LYP/6-31G(2df,p) Fr
 eq
 ----------------------------------------------------------------------

 Structure from the checkpoint file:  "/scratch/puck/g09_8775c65d-4e24-438b-8b85-59139834acd7/Gau-860.chk"
 -----
 titel
 -----
 Charge =  0 Multiplicity = 1

                         Standard orientation:
 ---------------------------------------------------------------------
 Center     Atomic      Atomic             Coordinates (Angstroms)
 Number     Number       Type             X           Y           Z
 ---------------------------------------------------------------------
      1          6           0        1.460549    1.964652   -0.038746
      2          6           0        1.046082    0.523904   -0.004207
      3          6           0        1.873550   -0.697474   -0.426718
      4          6           0        0.771611   -1.531058    0.268790
      5          8           0       -0.390427   -1.325481   -0.588783
      6          6           0       -0.410921    0.022852   -0.087061
      7          6           0       -1.663544    0.792210   -0.335647
      8          8           0       -2.796089    0.139848    0.211534
      9          6           0        0.397308   -0.276555    1.134586
     10          1           0        2.412247    2.113170    0.483885
     11          1           0        1.587767    2.316832   -1.068910
     12          1           0        0.718351    2.609710    0.443006
     13          1           0        2.035646   -0.894472   -1.491690
     14          1           0        2.819629   -0.734003    0.121084
     15          1           0        0.903202   -2.563307    0.585099
     16          1           0       -1.600838    1.780044    0.131502
     17          1           0       -1.778768    0.944953   -1.421660
     18          1           0       -2.704030   -0.792101   -0.019252
     19          1           0        0.251105   -0.086939    2.188947
 ---------------------------------------------------------------------

 SCF Done:  E(RB3LYP) =  -423.117648024     A.U. after    1 cycles

 The electronic state is 1-A.
 Alpha  occ. eigenvalues --  -19.13855 -19.12857 -10.24619 -10.23985 -10.23182
 Alpha  occ. eigenvalues --  -10.20658 -10.19205 -10.18834 -10.18813  -1.06354
 Alpha  occ. eigenvalues --   -1.01048  -0.86400  -0.75159  -0.72531  -0.68370
 Alpha  occ. eigenvalues --   -0.63102  -0.54829  -0.53537  -0.51213  -0.48892
 Alpha  occ. eigenvalues --   -0.46524  -0.44020  -0.43223  -0.42422  -0.41409
 Alpha  occ. eigenvalues --   -0.39661  -0.39342  -0.36203  -0.33657  -0.32269
 Alpha  occ. eigenvalues --   -0.29142  -0.27291  -0.25482  -0.23267
 Alpha virt. eigenvalues --    0.07581   0.09103   0.09423   0.10623   0.12620
 Alpha virt. eigenvalues --    0.13012   0.14122   0.14991   0.16272   0.16553
 Alpha virt. eigenvalues --    0.16761   0.17219   0.18554   0.19826   0.21757

 Mulliken charges:
               1
     1  C   -0.508444
     2  C    0.229270
     3  C   -0.282795
     4  C    0.065247
     5  O   -0.345156
     6  C    0.410398
     7  C   -0.181973
     8  O   -0.416117
     9  C   -0.239742
    10  H    0.123174
    11  H    0.126844
    12  H    0.123668
    13  H    0.098817
    14  H    0.102633
    15  H    0.087998
    16  H    0.112566
    17  H    0.099378
    18  H    0.291939
    19  H    0.102292
 Sum of Mulliken charges =   0.00000

 Dipole moment (field-independent basis, Debye):
    X=              2.2145    Y=              0.3868    Z=              0.4302  Tot=              2.2889
 Quadrupole moment (field-independent basis, Debye-Ang):
   XX=            -57.4718   YY=            -50.5199   ZZ=            -52.9879
   XY=              0.7012   XZ=              1.7715   YZ=             -1.7678

  Exact polarizability:  81.592  -0.345  78.267  -0.555  -1.805  65.259
 Approx polarizability: 112.761   1.194 111.643   0.219  -1.312 104.081

                      1                      2                      3
                      A                      A                      A
 Frequencies --     92.1329               135.9163               199.8181
 Red. masses --      3.5509                 3.5827                 1.0988
 Frc consts  --      0.0178                 0.0390                 0.0258
 IR Inten    --      4.5351                 0.6842                 0.4762

                      4                      5                      6
                      A                      A                      A
 Frequencies --    211.9792               263.6373               311.7047
 Red. masses --      2.3533                 2.6249                 2.1597
 Frc consts  --      0.0623                 0.1075                 0.1236
 IR Inten    --      0.7634                 5.3605                 4.7971

                      7                      8                      9
                      A                      A                      A
 Frequencies --    384.4374               402.1549               479.0287
 Red. masses --      1.5584                 1.8943                 2.4988
 Frc consts  --      0.1357                 0.1805                 0.3378
 IR Inten    --     60.3649                55.8984                 4.1970

                     10                     11                     12
                      A                      A                      A
 Frequencies --    539.1394               613.0296               701.9361
 Red. masses --      3.7072                 3.8241                 3.5089
 Frc consts  --      0.6349                 0.8467                 1.0186
 IR Inten    --      1.3612                 6.4213                10.2224

                     13                     14                     15
                      A                      A                      A
 Frequencies --    772.5569               802.9087               814.1835
 Red. masses --      2.3889                 2.5360                 3.6180
 Frc consts  --      0.8400                 0.9632                 1.4131
 IR Inten    --      2.1789                16.7739                 2.7170

                     16                     17                     18
                      A                      A                      A
 Frequencies --    866.9084               910.5594               916.8274
 Red. masses --      2.2576                 1.9536                 2.1837
 Frc consts  --      0.9996                 0.9543                 1.0815
 IR Inten    --     16.6759                 1.2407                18.8594

                     19                     20                     21
                      A                      A                      A
 Frequencies --    933.6198               950.5935               982.6708
 Red. masses --      2.8076                 1.9865                 2.3386
 Frc consts  --      1.4419                 1.0576                 1.3305
 IR Inten    --     28.8099                17.5636                16.1104

                     22                     23                     24
                      A                      A                      A
 Frequencies --   1025.3786              1055.1682              1084.6528
 Red. masses --      2.0263                 3.3718                 1.5228
 Frc consts  --      1.2553                 2.2119                 1.0555
 IR Inten    --      3.0509                96.3248                28.9397

                     25                     26                     27
                      A                      A                      A
 Frequencies --   1104.1113              1123.3566              1151.6622
 Red. masses --      1.9979                 2.1623                 1.7685
 Frc consts  --      1.4350                 1.6077                 1.3820
 IR Inten    --      1.7738                 7.8793                 3.2480

                     28                     29                     30
                      A                      A                      A
 Frequencies --   1177.5881              1226.4995              1235.2566
 Red. masses --      1.7146                 1.3663                 1.6503
 Frc consts  --      1.4008                 1.2109                 1.4836
 IR Inten    --      1.2980                11.7611                 9.1378

                     31                     32                     33
                      A                      A                      A
 Frequencies --   1241.5451              1291.0602              1353.6004
 Red. masses --      1.8800                 1.5818                 2.9265
 Frc consts  --      1.7074                 1.5534                 3.1592
 IR Inten    --      2.9769                30.3221                 2.4442

                     34                     35                     36
                      A                      A                      A
 Frequencies --   1365.7577              1410.1696              1418.1956
 Red. masses --      1.2361                 1.7738                 1.3898
 Frc consts  --      1.3585                 2.0783                 1.6469
 IR Inten    --      3.1249                36.5264                 5.5932

                     37                     38                     39
                      A                      A                      A
 Frequencies --   1465.6923              1484.1809              1488.5911
 Red. masses --      2.0049                 1.0866                 1.1097
 Frc consts  --      2.5376                 1.4102                 1.4488
 IR Inten    --     38.5654                 1.6823                 3.9072

                     40                     41                     42
                      A                      A                      A
 Frequencies --   1490.4936              1502.7024              2969.6501
 Red. masses --      1.1004                 1.1652                 1.0712
 Frc consts  --      1.4403                 1.5503                 5.5657
 IR Inten    --      0.7045                 3.0798                51.5839

                     43                     44                     45
                      A                      A                      A
 Frequencies --   3024.0600              3042.3519              3079.5088
 Red. masses --      1.0356                 1.0568                 1.0905
 Frc consts  --      5.5800                 5.7633                 6.0930
 IR Inten    --     32.5253                46.0506                21.1391

                     46                     47                     48
                      A                      A                      A
 Frequencies --   3084.2502              3095.0932              3104.5855
 Red. masses --      1.1010                 1.0994                 1.1076
 Frc consts  --      6.1707                 6.2052                 6.2898
 IR Inten    --     18.7097                22.5905                24.5415

                     49                     50                     51
                      A                      A                      A
 Frequencies --   3147.7468              3211.1405              3795.7253
 Red. masses --      1.0927                 1.0978                 1.0658
 Frc consts  --      6.3789                 6.6696                 9.0471
 IR Inten    --     39.5976                 5.9268                27.1028

 - Thermochemistry -
 -------------------
 Temperature   298.150 Kelvin.  Pressure   1.00000 Atm.
 Atom     1 has atomic number  6 and mass  12.00000

 Molecular mass:   126.06808 amu.
 Principal axes and moments of inertia in atomic units:
                           1         2         3
     Eigenvalues --   667.832591160.185881561.88825
           X            0.99987   0.01594   0.00199
           Y           -0.01590   0.99974  -0.01614
           Z           -0.00225   0.01610   0.99987
 This molecule is an asymmetric top.
 Rotational symmetry number  1.
 Warning -- assumption of classical behavior for rotation
           may cause significant error
 Rotational temperatures (Kelvin)      0.12969     0.07466     0.05545
 Rotational constants (GHZ):           2.70239     1.55556     1.15549
 Zero-point vibrational energy     415914.8 (Joules/Mol)
                                   99.40601 (Kcal/Mol)
 Warning -- explicit consideration of  11 degrees of freedom as
           vibrations may cause significant error
 Vibrational temperatures:    132.56   195.55   287.49   304.99   379.31
          (Kelvin)            448.47   553.12   578.61   689.21   775.70
                              882.01  1009.93  1111.54  1155.21  1171.43
                             1247.29  1310.09  1319.11  1343.27  1367.69
                             1413.84  1475.29  1518.15  1560.57  1588.57
                             1616.26  1656.98  1694.28  1764.66  1777.26
                             1786.30  1857.55  1947.53  1965.02  2028.92
                             2040.46  2108.80  2135.40  2141.75  2144.49
                             2162.05  4272.66  4350.94  4377.26  4430.72
                             4437.54  4453.14  4466.80  4528.90  4620.11
                             5461.20

 Zero-point correction=                           0.158414 (Hartree/Particle)
 Thermal correction to Energy=                    0.166797
 Thermal correction to Enthalpy=                  0.167741
 Thermal correction to Gibbs Free Energy=         0.125591
 Sum of electronic and zero-point Energies=           -422.959234
 Sum of electronic and thermal Energies=              -422.950851
 Sum of electronic and thermal Enthalpies=            -422.949907
 Sum of electronic and thermal Free Energies=         -422.992057

                     E (Thermal)             CV                S
                      KCal/Mol        Cal/Mol-Kelvin    Cal/Mol-Kelvin
 Total                  104.667             32.416             88.713
 Electronic               0.000              0.000              0.000
 Translational            0.889              2.981             40.409
 Rotational               0.889              2.981             28.583
 Vibrational            102.889             26.454             19.721
 Vibration     1          0.602              1.955              3.614
 Vibration     2          0.614              1.917              2.861
 Vibration     3          0.638              1.840              2.135
 Vibration     4          0.643              1.823              2.027
 Vibration     5          0.670              1.740              1.638
 Vibration     6          0.700              1.651              1.353
 Vibration     7          0.753              1.503              1.022
 Vibration     8          0.768              1.465              0.955
 Vibration     9          0.835              1.297              0.713
 Vibration    10          0.894              1.164              0.567
 Vibration    11          0.972              1.004              0.428

 Optimization completed.
    -- Stationary point found.
 Normal termination of Gaussian 09 at Tue Jan 28 12:15:16 2020.
