 Gaussian 09, Revision D.01,
 Gaussian 09:  ES64L-G09RevD.01 24-Apr-2013

 -----------------------------
 # b3lyp 6-31G(2df,p) opt Freq
 -----------------------------

 -----
 titel
 -----
 Symbolic Z-matrix:
 Charge =  0 Multiplicity = 1

 SCF Done:  E(RB3LYP) =  -423.121733173     A.U. after   13 cycles
 Optimization completed.
    -- Stationary point found.
 Normal termination of Gaussian 09 at Tue Jan 28 08:14:16 2020.

 ----------------------------------------------------------------------
 #N Geom=AllCheck Guess=TCheck SCRF=Check GenChk RB3LYP/6-31G(2df,p) Fr
 eq
 ----------------------------------------------------------------------

 Structure from the checkpoint file:  "/scratch/puck/g09_3a6c077a-f28c-4a1c-b59d-b5687ad309a7/Gau-81161.chk"
 -----
 titel
 -----
 Charge =  0 Multiplicity = 1

                         Standard orientation:
 ---------------------------------------------------------------------
 Center     Atomic      Atomic             Coordinates (Angstroms)
 Number     Number       Type             X           Y           Z
 ---------------------------------------------------------------------
      1          6           0        2.264981   -0.945345   -0.017355
      2          6           0        1.226608    0.053680    0.493131
      3          6           0        1.026840    1.283769   -0.458727
      4          8           0       -0.358554    1.681723   -0.362548
      5          6           0       -1.080565    0.536304   -0.055461
      6          6           0       -1.283989    0.125066    1.385319
      7          6           0       -0.190995   -0.496902    0.563580
      8          8           0       -0.670268   -1.549936   -0.296038
      9          6           0       -1.473213   -0.576474   -1.032735
     10          1           0        3.226524   -0.452414   -0.191489
     11          1           0        2.424569   -1.749260    0.706539
     12          1           0        1.933108   -1.401264   -0.954009
     13          1           0        1.524674    0.415215    1.483075
     14          1           0        1.639889    2.150395   -0.194714
     15          1           0        1.262440    0.996381   -1.494498
     16          1           0       -0.968486    0.865079    2.112193
     17          1           0       -2.146162   -0.473489    1.664489
     18          1           0       -1.076340   -0.416311   -2.041471
     19          1           0       -2.527637   -0.869222   -1.087939
 ---------------------------------------------------------------------

 SCF Done:  E(RB3LYP) =  -423.121733173     A.U. after    1 cycles

 The electronic state is 1-A.
 Alpha  occ. eigenvalues --  -19.15086 -19.14342 -10.23989 -10.23319 -10.23172
 Alpha  occ. eigenvalues --  -10.22994 -10.20432 -10.20215 -10.18172  -1.06899
 Alpha  occ. eigenvalues --   -1.02767  -0.83367  -0.79282  -0.69792  -0.68039
 Alpha  occ. eigenvalues --   -0.63540  -0.58576  -0.52707  -0.50772  -0.49769
 Alpha  occ. eigenvalues --   -0.46089  -0.45138  -0.42728  -0.41894  -0.41140
 Alpha  occ. eigenvalues --   -0.40033  -0.38340  -0.37138  -0.35302  -0.33424
 Alpha  occ. eigenvalues --   -0.31909  -0.27580  -0.25007  -0.22675
 Alpha virt. eigenvalues --    0.04775   0.07920   0.10269   0.11834   0.12677
 Alpha virt. eigenvalues --    0.12889   0.14236   0.15102   0.15866   0.16769
 Alpha virt. eigenvalues --    0.17329   0.17949   0.18941   0.20395   0.21756

 Mulliken charges:
               1
     1  C   -0.403684
     2  C   -0.088459
     3  C   -0.099262
     4  O   -0.294223
     5  C    0.254798
     6  C   -0.379206
     7  C    0.336897
     8  O   -0.328104
     9  C   -0.149135
    10  H    0.114506
    11  H    0.127542
    12  H    0.133872
    13  H    0.086926
    14  H    0.112988
    15  H    0.099503
    16  H    0.128804
    17  H    0.121708
    18  H    0.114145
    19  H    0.110383
 Sum of Mulliken charges =   0.00000

 Dipole moment (field-independent basis, Debye):
    X=              0.8885    Y=              0.3200    Z=              0.2518  Tot=              0.9774
 Quadrupole moment (field-independent basis, Debye-Ang):
   XX=            -49.3787   YY=            -59.9697   ZZ=            -50.4400
   XY=              2.0257   XZ=              0.1814   YZ=              1.0256

  Exact polarizability:  81.922   3.213  66.719  -1.081   1.425  71.719
 Approx polarizability: 110.905   1.040 105.049   0.598  -0.004 107.803

                      1                      2                      3
                      A                      A                      A
 Frequencies --    111.6378               184.8890               216.5885
 Red. masses --      2.6042                 2.0717                 1.2078
 Frc consts  --      0.0191                 0.0417                 0.0334
 IR Inten    --      0.1792                 1.1807                 0.1645

                      4                      5                      6
                      A                      A                      A
 Frequencies --    254.4132               334.7600               372.4941
 Red. masses --      2.8441                 2.5205                 3.3110
 Frc consts  --      0.1085                 0.1664                 0.2707
 IR Inten    --      4.5268                 5.6775                 7.7504

                      7                      8                      9
                      A                      A                      A
 Frequencies --    426.7728               475.0476               570.0217
 Red. masses --      2.4394                 3.2152                 4.4195
 Frc consts  --      0.2618                 0.4275                 0.8461
 IR Inten    --      3.6768                 1.1718                27.6511

                     10                     11                     12
                      A                      A                      A
 Frequencies --    580.9732               655.5251               746.0546
 Red. masses --      3.2363                 4.7616                 3.4581
 Frc consts  --      0.6436                 1.2055                 1.1340
 IR Inten    --      2.3789                 1.0223                 2.7161

                     13                     14                     15
                      A                      A                      A
 Frequencies --    804.2993               862.0500               883.3115
 Red. masses --      3.4341                 3.9834                 2.5493
 Frc consts  --      1.3089                 1.7441                 1.1719
 IR Inten    --      1.6747                 3.7567                18.4847

                     16                     17                     18
                      A                      A                      A
 Frequencies --    909.5596               925.8780               947.8878
 Red. masses --      1.9218                 1.9312                 1.5379
 Frc consts  --      0.9367                 0.9754                 0.8141
 IR Inten    --      3.4342                 9.3669                 8.8437

                     19                     20                     21
                      A                      A                      A
 Frequencies --    960.4671               983.5733              1026.0358
 Red. masses --      2.6519                 3.8594                 2.1211
 Frc consts  --      1.4413                 2.1998                 1.3156
 IR Inten    --     18.1239                39.9047                49.8834

                     22                     23                     24
                      A                      A                      A
 Frequencies --   1034.1437              1064.4753              1092.8454
 Red. masses --      1.9574                 1.4094                 2.4588
 Frc consts  --      1.2334                 0.9409                 1.7302
 IR Inten    --      5.7552                 2.7988                 4.0834

                     25                     26                     27
                      A                      A                      A
 Frequencies --   1129.7594              1146.9565              1165.9476
 Red. masses --      2.3665                 1.2208                 2.3007
 Frc consts  --      1.7796                 0.9462                 1.8428
 IR Inten    --      3.1982                 0.1964                 1.8152

                     28                     29                     30
                      A                      A                      A
 Frequencies --   1229.0166              1240.3067              1263.2761
 Red. masses --      1.3414                 1.8348                 3.6268
 Frc consts  --      1.1938                 1.6630                 3.4101
 IR Inten    --      2.6922                 7.9500                39.6548

                     31                     32                     33
                      A                      A                      A
 Frequencies --   1313.9756              1323.5174              1326.8425
 Red. masses --      1.5538                 1.3463                 1.5565
 Frc consts  --      1.5806                 1.3895                 1.6145
 IR Inten    --     18.8644                 1.3809                 2.1181

                     34                     35                     36
                      A                      A                      A
 Frequencies --   1374.3589              1386.0967              1414.7639
 Red. masses --      2.1548                 1.5678                 1.2312
 Frc consts  --      2.3980                 1.7747                 1.4520
 IR Inten    --     19.0569                 4.5657                 1.8596

                     37                     38                     39
                      A                      A                      A
 Frequencies --   1460.1609              1492.5445              1501.3421
 Red. masses --      1.3910                 1.0455                 1.0500
 Frc consts  --      1.7473                 1.3723                 1.3945
 IR Inten    --     12.5105                 2.6861                 4.6531

                     40                     41                     42
                      A                      A                      A
 Frequencies --   1508.4052              1516.3212              2994.3970
 Red. masses --      1.1212                 1.0914                 1.0683
 Frc consts  --      1.5030                 1.4785                 5.6439
 IR Inten    --      1.6990                 1.6478                42.0604

                     43                     44                     45
                      A                      A                      A
 Frequencies --   3026.6977              3043.3684              3045.5206
 Red. masses --      1.0545                 1.0367                 1.0827
 Frc consts  --      5.6914                 5.6571                 5.9165
 IR Inten    --     67.9715                25.0767                16.0735

                     46                     47                     48
                      A                      A                      A
 Frequencies --   3081.0176              3090.2940              3111.6130
 Red. masses --      1.1118                 1.0971                 1.1014
 Frc consts  --      6.2184                 6.1728                 6.2832
 IR Inten    --     39.3424                32.2348                19.0849

                     49                     50                     51
                      A                      A                      A
 Frequencies --   3123.6318              3123.9585              3226.5796
 Red. masses --      1.0765                 1.0799                 1.1166
 Frc consts  --      6.1884                 6.2092                 6.8491
 IR Inten    --     10.9983                21.6150                 3.7797

 - Thermochemistry -
 -------------------
 Temperature   298.150 Kelvin.  Pressure   1.00000 Atm.
 Atom     1 has atomic number  6 and mass  12.00000

 Molecular mass:   126.06808 amu.
 Principal axes and moments of inertia in atomic units:
                           1         2         3
     Eigenvalues --   732.27502 960.033661212.23865
           X            0.99995  -0.00268  -0.01010
           Y            0.00292   0.99970   0.02433
           Z            0.01003  -0.02436   0.99965
 This molecule is an asymmetric top.
 Rotational symmetry number  1.
 Warning -- assumption of classical behavior for rotation
           may cause significant error
 Rotational temperatures (Kelvin)      0.11828     0.09022     0.07145
 Rotational constants (GHZ):           2.46457     1.87987     1.48877
 Zero-point vibrational energy     419197.6 (Joules/Mol)
                                  100.19064 (Kcal/Mol)
 Warning -- explicit consideration of  10 degrees of freedom as
           vibrations may cause significant error
 Vibrational temperatures:    160.62   266.01   311.62   366.04   481.64
          (Kelvin)            535.94   614.03   683.49   820.13   835.89
                              943.15  1073.40  1157.21  1240.30  1270.89
                             1308.65  1332.13  1363.80  1381.90  1415.14
                             1476.23  1487.90  1531.54  1572.36  1625.47
                             1650.21  1677.54  1768.28  1784.52  1817.57
                             1890.52  1904.24  1909.03  1977.39  1994.28
                             2035.53  2100.84  2147.44  2160.09  2170.26
                             2181.65  4308.26  4354.74  4378.72  4381.82
                             4432.89  4446.24  4476.91  4494.20  4494.67
                             4642.32

 Zero-point correction=                           0.159664 (Hartree/Particle)
 Thermal correction to Energy=                    0.167356
 Thermal correction to Enthalpy=                  0.168300
 Thermal correction to Gibbs Free Energy=         0.127816
 Sum of electronic and zero-point Energies=           -422.962069
 Sum of electronic and thermal Energies=              -422.954377
 Sum of electronic and thermal Enthalpies=            -422.953433
 Sum of electronic and thermal Free Energies=         -422.993918

                     E (Thermal)             CV                S
                      KCal/Mol        Cal/Mol-Kelvin    Cal/Mol-Kelvin
 Total                  105.017             30.615             85.207
 Electronic               0.000              0.000              0.000
 Translational            0.889              2.981             40.409
 Rotational               0.889              2.981             28.235
 Vibrational            103.240             24.654             16.564
 Vibration     1          0.607              1.940              3.240
 Vibration     2          0.631              1.860              2.278
 Vibration     3          0.645              1.816              1.987
 Vibration     4          0.665              1.755              1.700
 Vibration     5          0.716              1.606              1.237
 Vibration     6          0.744              1.529              1.070
 Vibration     7          0.788              1.412              0.869
 Vibration     8          0.832              1.305              0.724
 Vibration     9          0.926              1.096              0.504
 Vibration    10          0.938              1.072              0.484

 Optimization completed.
    -- Stationary point found.
 Normal termination of Gaussian 09 at Tue Jan 28 09:05:43 2020.
