 Gaussian 09, Revision D.01,
 Gaussian 09:  ES64L-G09RevD.01 24-Apr-2013

 -----------------------------
 # b3lyp 6-31G(2df,p) opt Freq
 -----------------------------

 -----
 titel
 -----
 Symbolic Z-matrix:
 Charge =  0 Multiplicity = 1

 SCF Done:  E(RB3LYP) =  -423.181052578     A.U. after   14 cycles
 Optimization completed.
    -- Stationary point found.
 Normal termination of Gaussian 09 at Mon Jan 27 16:19:23 2020.

 ----------------------------------------------------------------------
 #N Geom=AllCheck Guess=TCheck SCRF=Check GenChk RB3LYP/6-31G(2df,p) Fr
 eq
 ----------------------------------------------------------------------

 Structure from the checkpoint file:  "/scratch/puck/g09_63d77ef4-4e5f-4fc3-abb0-3b69a214bccf/Gau-165260.chk"
 -----
 titel
 -----
 Charge =  0 Multiplicity = 1

                         Standard orientation:
 ---------------------------------------------------------------------
 Center     Atomic      Atomic             Coordinates (Angstroms)
 Number     Number       Type             X           Y           Z
 ---------------------------------------------------------------------
      1          6           0        2.028646   -0.414289    1.177909
      2          6           0        1.165449   -0.237657   -0.065205
      3          8           0        1.943322   -0.044033   -1.233854
      4          6           0        0.054769   -1.314581   -0.298396
      5          6           0       -1.024879   -0.244511   -0.049637
      6          6           0       -2.286222   -0.317267    0.789496
      7          6           0       -2.387770   -0.059250   -0.678420
      8          6           0        0.024952    0.813140    0.078157
      9          8           0        0.022175    2.010204    0.182850
     10          1           0        1.418280   -0.612249    2.065037
     11          1           0        2.720840   -1.249663    1.034148
     12          1           0        2.611130    0.493873    1.367926
     13          1           0        2.333341    0.836469   -1.176098
     14          1           0        0.078817   -1.698174   -1.319973
     15          1           0        0.070127   -2.146653    0.409016
     16          1           0       -2.565279   -1.297041    1.162958
     17          1           0       -2.466745    0.504799    1.474084
     18          1           0       -2.741564   -0.858177   -1.321293
     19          1           0       -2.632592    0.943941   -1.011200
 -----------------------------------------------------------------------

 SCF Done:  E(RB3LYP) =  -423.181052578     A.U. after    1 cycles

 The electronic state is 1-A.
 Alpha  occ. eigenvalues --  -19.14371 -19.13544 -10.25951 -10.24162 -10.20510
 Alpha  occ. eigenvalues --  -10.20378 -10.20160 -10.18944 -10.18299  -1.04589
 Alpha  occ. eigenvalues --   -1.02274  -0.88097  -0.80703  -0.71897  -0.63363
 Alpha  occ. eigenvalues --   -0.61396  -0.59296  -0.52969  -0.50347  -0.47977
 Alpha  occ. eigenvalues --   -0.46551  -0.44985  -0.43289  -0.41058  -0.39685
 Alpha  occ. eigenvalues --   -0.38475  -0.37594  -0.36830  -0.36178  -0.33452
 Alpha  occ. eigenvalues --   -0.31275  -0.29092  -0.28762  -0.22786
 Alpha virt. eigenvalues --   -0.02553   0.07577   0.09661   0.10444   0.11726
 Alpha virt. eigenvalues --    0.12650   0.14470   0.15263   0.15863   0.16560
 Alpha virt. eigenvalues --    0.17805   0.18943   0.19488   0.21498   0.22225

 Mulliken charges:
               1
     1  C   -0.445745
     2  C    0.299845
     3  O   -0.469899
     4  C   -0.379365
     5  C    0.235274
     6  C   -0.308702
     7  C   -0.307276
     8  C    0.297056
     9  O   -0.331519
    10  H    0.119987
    11  H    0.128726
    12  H    0.123608
    13  H    0.288333
    14  H    0.122094
    15  H    0.105321
    16  H    0.124455
    17  H    0.134658
    18  H    0.126074
    19  H    0.137074
 Sum of Mulliken charges =   0.00000

 Dipole moment (field-independent basis, Debye):
    X=             -0.5654    Y=             -1.7414    Z=              0.7356  Tot=              1.9732
 Quadrupole moment (field-independent basis, Debye-Ang):
   XX=            -49.7025   YY=            -56.6275   ZZ=            -53.2294
   XY=              3.1368   XZ=              1.5877   YZ=             -2.1580

  Exact polarizability:  90.854   2.493  74.682   0.743  -0.175  66.971
 Approx polarizability: 117.389   5.785 119.528  -2.429   1.234 100.330

                      1                      2                      3
                      A                      A                      A
 Frequencies --     36.7676               146.5710               187.9751
 Red. masses --      3.6976                 3.2479                 2.3078
 Frc consts  --      0.0029                 0.0411                 0.0480
 IR Inten    --      1.2201                10.1188                 3.0632

                      4                      5                      6
                      A                      A                      A
 Frequencies --    206.0552               220.7236               247.4455
 Red. masses --      3.0240                 2.0158                 1.3916
 Frc consts  --      0.0756                 0.0579                 0.0502
 IR Inten    --      0.3428                27.8104                28.2724

                      7                      8                      9
                      A                      A                      A
 Frequencies --    258.5627               318.4939               337.1624
 Red. masses --      2.0687                 1.8739                 3.1975
 Frc consts  --      0.0815                 0.1120                 0.2142
 IR Inten    --      0.3176                55.2554                12.0748

                     10                     11                     12
                      A                      A                      A
 Frequencies --    390.4165               514.2018               577.7457
 Red. masses --      2.0232                 3.1246                 3.2228
 Frc consts  --      0.1817                 0.4868                 0.6338
 IR Inten    --      2.4452                 0.8029                 4.9266

                     13                     14                     15
                      A                      A                      A
 Frequencies --    724.2694               726.3496               767.3031
 Red. masses --      3.7992                 4.1622                 1.7577
 Frc consts  --      1.1742                 1.2938                 0.6097
 IR Inten    --      3.9722                 0.9334                 1.7320

                     16                     17                     18
                      A                      A                      A
 Frequencies --    801.5725               822.9806               887.5272
 Red. masses --      1.5140                 2.9578                 2.0713
 Frc consts  --      0.5731                 1.1803                 0.9613
 IR Inten    --      1.2255                 2.6263                 2.3542

                     19                     20                     21
                      A                      A                      A
 Frequencies --    912.5458               935.7492               960.0703
 Red. masses --      2.0892                 2.5596                 1.3928
 Frc consts  --      1.0250                 1.3205                 0.7564
 IR Inten    --      0.5339                43.0531                10.4763

                     22                     23                     24
                      A                      A                      A
 Frequencies --    978.6535              1029.5998              1057.3618
 Red. masses --      1.8560                 4.5819                 1.2404
 Frc consts  --      1.0474                 2.8617                 0.8171
 IR Inten    --      8.4758               103.7280                 9.7260

                     25                     26                     27
                      A                      A                      A
 Frequencies --   1074.5354              1101.4606              1125.3210
 Red. masses --      1.3487                 1.6419                 1.5913
 Frc consts  --      0.9175                 1.1737                 1.1873
 IR Inten    --      0.1294                40.7540                 7.5766

                     28                     29                     30
                      A                      A                      A
 Frequencies --   1179.3472              1197.7704              1220.6316
 Red. masses --      1.6776                 1.3026                 2.4489
 Frc consts  --      1.3747                 1.1011                 2.1497
 IR Inten    --      2.6104                 0.4729                39.0780

                     31                     32                     33
                      A                      A                      A
 Frequencies --   1232.6576              1276.9944              1349.8086
 Red. masses --      2.7929                 2.1279                 2.2092
 Frc consts  --      2.5003                 2.0445                 2.3716
 IR Inten    --     22.0350                24.1519                49.2073

                     34                     35                     36
                      A                      A                      A
 Frequencies --   1375.5120              1398.7387              1457.9184
 Red. masses --      2.1257                 1.2665                 1.0877
 Frc consts  --      2.3696                 1.4599                 1.3622
 IR Inten    --     22.8281                 7.9754                 1.9013

                     37                     38                     39
                      A                      A                      A
 Frequencies --   1473.7252              1486.6610              1488.6944
 Red. masses --      1.0996                 1.1040                 1.0562
 Frc consts  --      1.4071                 1.4377                 1.3791
 IR Inten    --      6.6498                 6.0929                 1.5185

                     40                     41                     42
                      A                      A                      A
 Frequencies --   1490.1225              1871.2230              3030.0282
 Red. masses --      1.3472                12.6129                 1.0341
 Frc consts  --      1.7625                26.0205                 5.5939
 IR Inten    --      5.0541               221.5701                15.8641

                     43                     44                     45
                      A                      A                      A
 Frequencies --   3069.5843              3101.7442              3111.5668
 Red. masses --      1.0587                 1.1011                 1.1025
 Frc consts  --      5.8775                 6.2412                 6.2891
 IR Inten    --     19.4719                20.3694                14.8684

                     46                     47                     48
                      A                      A                      A
 Frequencies --   3129.0387              3129.8029              3132.6231
 Red. masses --      1.1065                 1.0518                 1.0565
 Frc consts  --      6.3831                 6.0706                 6.1086
 IR Inten    --     16.0452                 8.8949                 8.9549

                     49                     50                     51
                      A                      A                      A
 Frequencies --   3213.5574              3228.7048              3790.9039
 Red. masses --      1.1188                 1.1167                 1.0659
 Frc consts  --      6.8070                 6.8589                 9.0247
 IR Inten    --      0.1193                 6.3515                24.5028

 - Thermochemistry -
 -------------------
 Temperature   298.150 Kelvin.  Pressure   1.00000 Atm.
 Atom     1 has atomic number  6 and mass  12.00000

 Molecular mass:   126.06808 amu.
 Principal axes and moments of inertia in atomic units:
                           1         2         3
     Eigenvalues --   658.366481398.312611539.87672
           X            0.99969   0.00487   0.02443
           Y           -0.00353   0.99851  -0.05448
           Z           -0.02466   0.05438   0.99822
 This molecule is an asymmetric top.
 Rotational symmetry number  1.
 Warning -- assumption of classical behavior for rotation
           may cause significant error
 Rotational temperatures (Kelvin)      0.13156     0.06194     0.05625
 Rotational constants (GHZ):           2.74124     1.29066     1.17200
 Zero-point vibrational energy     411424.3 (Joules/Mol)
                                   98.33278 (Kcal/Mol)
 Warning -- explicit consideration of  12 degrees of freedom as
           vibrations may cause significant error
 Vibrational temperatures:     52.90   210.88   270.45   296.47   317.57
          (Kelvin)            356.02   372.01   458.24   485.10   561.72
                              739.82   831.25  1042.06  1045.05  1103.98
                             1153.28  1184.08  1276.95  1312.95  1346.33
                             1381.33  1408.06  1481.36  1521.31  1546.01
                             1584.75  1619.08  1696.82  1723.32  1756.21
                             1773.52  1837.31  1942.07  1979.05  2012.47
                             2097.62  2120.36  2138.97  2141.90  2143.95
                             2692.27  4359.53  4416.44  4462.71  4476.84
                             4501.98  4503.08  4507.14  4623.59  4645.38
                             5454.26

 Zero-point correction=                           0.156703 (Hartree/Particle)
 Thermal correction to Energy=                    0.166101
 Thermal correction to Enthalpy=                  0.167045
 Thermal correction to Gibbs Free Energy=         0.122332
 Sum of electronic and zero-point Energies=           -423.024349
 Sum of electronic and thermal Energies=              -423.014952
 Sum of electronic and thermal Enthalpies=            -423.014007
 Sum of electronic and thermal Free Energies=         -423.058720

                     E (Thermal)             CV                S
                      KCal/Mol        Cal/Mol-Kelvin    Cal/Mol-Kelvin
 Total                  104.230             34.935             94.106
 Electronic               0.000              0.000              0.000
 Translational            0.889              2.981             40.409
 Rotational               0.889              2.981             28.740
 Vibrational            102.453             28.973             24.958
 Vibration     1          0.594              1.982              5.426
 Vibration     2          0.617              1.906              2.716
 Vibration     3          0.633              1.856              2.248
 Vibration     4          0.641              1.831              2.078
 Vibration     5          0.647              1.810              1.953
 Vibration     6          0.661              1.767              1.749
 Vibration     7          0.667              1.748              1.671
 Vibration     8          0.705              1.638              1.318
 Vibration     9          0.718              1.601              1.226
 Vibration    10          0.758              1.491              0.999
 Vibration    11          0.869              1.219              0.624
 Vibration    12          0.934              1.079              0.490

 Normal termination of Gaussian 09 at Mon Jan 27 17:00:50 2020.
