 Gaussian 09, Revision D.01,
 Gaussian 09:  ES64L-G09RevD.01 24-Apr-2013

 -----------------------------
 # b3lyp 6-31G(2df,p) opt Freq
 -----------------------------

 -----
 titel
 -----
 Symbolic Z-matrix:
 Charge =  0 Multiplicity = 1

 SCF Done:  E(RB3LYP) =  -423.128946288     A.U. after   13 cycles
 Optimization completed.
    -- Stationary point found.
 Normal termination of Gaussian 09 at Mon Jan 27 11:18:21 2020.

 ----------------------------------------------------------------------
 #N Geom=AllCheck Guess=TCheck SCRF=Check GenChk RB3LYP/6-31G(2df,p) Fr
 eq
 ----------------------------------------------------------------------

 Structure from the checkpoint file:  "/scratch/puck/g09_adc2064e-b0fd-44ac-ba7d-3c3909bb3ebf/Gau-41921.chk"
 -----
 titel
 -----
 Charge =  0 Multiplicity = 1

                         Standard orientation:
 ---------------------------------------------------------------------
 Center     Atomic      Atomic             Coordinates (Angstroms)
 Number     Number       Type             X           Y           Z
 ---------------------------------------------------------------------
      1          6           0        1.939186    0.547814   -0.678569
      2          6           0        1.716569   -0.783920    0.130913
      3          6           0        1.091635    0.089985    1.250320
      4          6           0        0.506469    0.648505   -0.089594
      5          6           0       -0.730220    1.495091   -0.205328
      6          8           0       -1.791491    0.713181    0.369003
      7          6           0       -1.911938   -0.576812   -0.179268
      8          8           0       -0.798355   -1.422759    0.063165
      9          6           0        0.322760   -0.816609   -0.542283
     10          1           0        2.690558    1.226673   -0.269933
     11          1           0        2.025333    0.460702   -1.765791
     12          1           0        2.426541   -1.603916    0.240748
     13          1           0        0.386607   -0.400963    1.917986
     14          1           0        1.775256    0.754480    1.785108
     15          1           0       -0.699949    2.427932    0.364235
     16          1           0       -0.956643    1.731254   -1.257858
     17          1           0       -2.770391   -1.041031    0.308320
     18          1           0       -2.081922   -0.504741   -1.270265
     19          1           0        0.316600   -0.998083   -1.627029
 ---------------------------------------------------------------------

 SCF Done:  E(RB3LYP) =  -423.128946288     A.U. after    1 cycles

 The electronic state is 1-A.
 Alpha  occ. eigenvalues --  -19.14661 -19.14429 -10.27376 -10.23400 -10.23275
 Alpha  occ. eigenvalues --  -10.20603 -10.20246 -10.19775 -10.18269  -1.07096
 Alpha  occ. eigenvalues --   -1.00666  -0.91291  -0.73761  -0.67792  -0.67161
 Alpha  occ. eigenvalues --   -0.63345  -0.59332  -0.54349  -0.50578  -0.49678
 Alpha  occ. eigenvalues --   -0.48912  -0.46534  -0.45435  -0.42309  -0.39783
 Alpha  occ. eigenvalues --   -0.36921  -0.36656  -0.33505  -0.32712  -0.31551
 Alpha  occ. eigenvalues --   -0.31056  -0.29812  -0.26751  -0.25458
 Alpha virt. eigenvalues --    0.09837   0.10262   0.11533   0.12130   0.13675
 Alpha virt. eigenvalues --    0.14347   0.14388   0.15401   0.15879   0.16048
 Alpha virt. eigenvalues --    0.17003   0.17172   0.19033   0.20712   0.21394

 Mulliken charges:
               1
     1  C   -0.312015
     2  C   -0.106794
     3  C   -0.250613
     4  C    0.318967
     5  C   -0.237133
     6  O   -0.245053
     7  C    0.019024
     8  O   -0.268748
     9  C    0.137111
    10  H    0.100922
    11  H    0.095287
    12  H    0.077881
    13  H    0.119156
    14  H    0.085550
    15  H    0.114539
    16  H    0.093729
    17  H    0.120043
    18  H    0.076768
    19  H    0.061381
 Sum of Mulliken charges =   0.00000

 Dipole moment (field-independent basis, Debye):
    X=              0.9034    Y=              0.8406    Z=             -1.2000  Tot=              1.7212
 Quadrupole moment (field-independent basis, Debye-Ang):
   XX=            -52.5533   YY=            -54.3939   ZZ=            -52.7570
   XY=              1.2076   XZ=              1.6281   YZ=              0.0649

  Exact polarizability:  84.395   2.057  70.572   0.605   0.169  69.964
 Approx polarizability: 114.514   2.199 107.900  -1.505   0.146 108.231

                      1                      2                      3
                      A                      A                      A
 Frequencies --    191.3151               260.0033               349.4951
 Red. masses --      3.6226                 2.6161                 2.5117
 Frc consts  --      0.0781                 0.1042                 0.1808
 IR Inten    --      1.6042                 1.9508                 0.5075

                      4                      5                      6
                      A                      A                      A
 Frequencies --    374.1295               414.3963               449.1568
 Red. masses --      2.5857                 2.7644                 5.1791
 Frc consts  --      0.2132                 0.2797                 0.6156
 IR Inten    --      2.4226                 6.3014                 3.7491

                      7                      8                      9
                      A                      A                      A
 Frequencies --    522.0137               585.8397               643.8724
 Red. masses --      2.4467                 3.3570                 4.1880
 Frc consts  --      0.3928                 0.6788                 1.0230
 IR Inten    --      2.5434                 1.8098                 3.6972

                     10                     11                     12
                      A                      A                      A
 Frequencies --    722.3425               790.9600               847.5162
 Red. masses --      3.1818                 2.8624                 2.8186
 Frc consts  --      0.9782                 1.0551                 1.1928
 IR Inten    --      5.9805                 0.9309                 4.9222

                     13                     14                     15
                      A                      A                      A
 Frequencies --    887.0409               913.7550               919.1868
 Red. masses --      2.6063                 2.4606                 3.3118
 Frc consts  --      1.2083                 1.2105                 1.6486
 IR Inten    --      1.2853                 6.1940                17.3972

                     16                     17                     18
                      A                      A                      A
 Frequencies --    950.9506               975.3828               995.4888
 Red. masses --      2.2125                 2.3620                 2.4072
 Frc consts  --      1.1788                 1.3240                 1.4055
 IR Inten    --      3.1232                48.0467                69.1337

                     19                     20                     21
                      A                      A                      A
 Frequencies --   1020.6336              1025.4180              1062.1995
 Red. masses --      1.3456                 1.9997                 2.8249
 Frc consts  --      0.8258                 1.2389                 1.8779
 IR Inten    --     28.2798                13.2297                15.9142

                     22                     23                     24
                      A                      A                      A
 Frequencies --   1067.8682              1094.4822              1120.2367
 Red. masses --      1.8367                 1.5944                 1.9261
 Frc consts  --      1.2340                 1.1253                 1.4241
 IR Inten    --     25.0040                 2.1929                28.7465

                     25                     26                     27
                      A                      A                      A
 Frequencies --   1144.8063              1160.4265              1179.1129
 Red. masses --      1.4613                 1.6034                 2.2155
 Frc consts  --      1.1284                 1.2721                 1.8148
 IR Inten    --      1.9072                10.2705               104.5925

                     28                     29                     30
                      A                      A                      A
 Frequencies --   1204.9558              1215.0266              1235.8700
 Red. masses --      1.7793                 1.8631                 1.7180
 Frc consts  --      1.5221                 1.6206                 1.5460
 IR Inten    --     13.2218                28.6534                 7.1801

                     31                     32                     33
                      A                      A                      A
 Frequencies --   1245.6814              1277.2661              1319.0691
 Red. masses --      1.5918                 1.4682                 1.5338
 Frc consts  --      1.4553                 1.4112                 1.5723
 IR Inten    --     10.3694                 5.3487                 3.9191

                     34                     35                     36
                      A                      A                      A
 Frequencies --   1329.6255              1386.7845              1396.5159
 Red. masses --      1.5318                 1.6645                 1.2260
 Frc consts  --      1.5956                 1.8860                 1.4088
 IR Inten    --     11.0171                 2.0208                21.1423

                     37                     38                     39
                      A                      A                      A
 Frequencies --   1441.0570              1491.3661              1493.0093
 Red. masses --      1.2174                 1.0931                 1.0952
 Frc consts  --      1.4895                 1.4325                 1.4384
 IR Inten    --     10.6294                 0.8869                 0.5602

                     40                     41                     42
                      A                      A                      A
 Frequencies --   1504.4499              1534.6648              2924.7387
 Red. masses --      1.1037                 1.1922                 1.0704
 Frc consts  --      1.4718                 1.6543                 5.3950
 IR Inten    --      3.0060                 4.1588                74.9170

                     43                     44                     45
                      A                      A                      A
 Frequencies --   2976.8224              2998.3057              3052.6487
 Red. masses --      1.0693                 1.0831                 1.0557
 Frc consts  --      5.5830                 5.7368                 5.7960
 IR Inten    --     51.0708                70.6580                50.0788

                     46                     47                     48
                      A                      A                      A
 Frequencies --   3068.4579              3088.9846              3112.1801
 Red. masses --      1.0611                 1.0940                 1.0927
 Frc consts  --      5.8861                 6.1505                 6.2357
 IR Inten    --     33.4091                31.4215                61.8081

                     49                     50                     51
                      A                      A                      A
 Frequencies --   3122.6193              3123.1958              3162.9228
 Red. masses --      1.1053                 1.0974                 1.1041
 Frc consts  --      6.3498                 6.3067                 6.5078
 IR Inten    --     44.5282                21.4281                15.1609

 - Thermochemistry -
 -------------------
 Temperature   298.150 Kelvin.  Pressure   1.00000 Atm.
 Atom     1 has atomic number  6 and mass  12.00000

 Molecular mass:   126.06808 amu.
 Principal axes and moments of inertia in atomic units:
                           1         2         3
     Eigenvalues --   568.798421045.280801274.74282
           X            0.99983   0.01375   0.01187
           Y           -0.01370   0.99990  -0.00471
           Z           -0.01194   0.00454   0.99992
 This molecule is an asymmetric top.
 Rotational symmetry number  1.
 Warning -- assumption of classical behavior for rotation
           may cause significant error
 Rotational temperatures (Kelvin)      0.15228     0.08286     0.06795
 Rotational constants (GHZ):           3.17290     1.72656     1.41577
 Zero-point vibrational energy     426912.8 (Joules/Mol)
                                  102.03461 (Kcal/Mol)
 Warning -- explicit consideration of   8 degrees of freedom as
           vibrations may cause significant error
 Vibrational temperatures:    275.26   374.09   502.84   538.29   596.22
          (Kelvin)            646.24   751.06   842.89   926.39  1039.29
                             1138.01  1219.39  1276.25  1314.69  1322.50
                             1368.20  1403.36  1432.28  1468.46  1475.35
                             1528.27  1536.42  1574.71  1611.77  1647.12
                             1669.59  1696.48  1733.66  1748.15  1778.14
                             1792.26  1837.70  1897.84  1913.03  1995.27
                             2009.27  2073.36  2145.74  2148.10  2164.57
                             2208.04  4208.04  4282.98  4313.89  4392.08
                             4414.82  4444.35  4477.73  4492.75  4493.58
                             4550.73

 Zero-point correction=                           0.162602 (Hartree/Particle)
 Thermal correction to Energy=                    0.169151
 Thermal correction to Enthalpy=                  0.170095
 Thermal correction to Gibbs Free Energy=         0.132036
 Sum of electronic and zero-point Energies=           -422.966344
 Sum of electronic and thermal Energies=              -422.959796
 Sum of electronic and thermal Enthalpies=            -422.958852
 Sum of electronic and thermal Free Energies=         -422.996910

                     E (Thermal)             CV                S
                      KCal/Mol        Cal/Mol-Kelvin    Cal/Mol-Kelvin
 Total                  106.144             27.755             80.101
 Electronic               0.000              0.000              0.000
 Translational            0.889              2.981             40.409
 Rotational               0.889              2.981             28.118
 Vibrational            104.366             21.793             11.574
 Vibration     1          0.634              1.852              2.215
 Vibration     2          0.668              1.746              1.662
 Vibration     3          0.727              1.576              1.168
 Vibration     4          0.745              1.525              1.063
 Vibration     5          0.778              1.439              0.911
 Vibration     6          0.808              1.363              0.798
 Vibration     7          0.877              1.201              0.605
 Vibration     8          0.943              1.062              0.475

 Normal termination of Gaussian 09 at Mon Jan 27 12:06:48 2020.
