 Gaussian 09, Revision D.01,
 Gaussian 09:  ES64L-G09RevD.01 24-Apr-2013

 -----------------------------
 # b3lyp 6-31G(2df,p) opt Freq
 -----------------------------

 -----
 titel
 -----
 Symbolic Z-matrix:
 Charge =  0 Multiplicity = 1

 SCF Done:  E(RB3LYP) =  -423.095695415     A.U. after   13 cycles
 Optimization completed.
    -- Stationary point found.
 Normal termination of Gaussian 09 at Mon Jan 27 16:11:40 2020.

 ----------------------------------------------------------------------
 #N Geom=AllCheck Guess=TCheck SCRF=Check GenChk RB3LYP/6-31G(2df,p) Fr
 eq
 ----------------------------------------------------------------------

 Structure from the checkpoint file:  "/scratch/puck/g09_29d2dd1c-c92d-45f3-bfcf-2372bb7a3183/Gau-109489.chk"
 -----
 titel
 -----
 Charge =  0 Multiplicity = 1

                         Standard orientation:
 ---------------------------------------------------------------------
 Center     Atomic      Atomic             Coordinates (Angstroms)
 Number     Number       Type             X           Y           Z
 ---------------------------------------------------------------------
      1          6           0        2.027594    1.282638   -0.303737
      2          6           0        1.304049    0.000001    0.034668
      3          6           0        2.027771   -1.282425   -0.304128
      4          8           0        0.665117   -0.000336    1.362812
      5          6           0       -0.137120   -0.000063    0.217438
      6          6           0       -1.325651    0.908387   -0.151934
      7          6           0       -2.237430   -0.000214    0.712429
      8          6           0       -1.325628   -0.908346   -0.152404
      9          8           0       -1.562326    0.000312   -1.301001
     10          1           0        2.196966    1.352241   -1.383433
     11          1           0        1.451155    2.153470    0.015518
     12          1           0        3.003301    1.313804    0.193131
     13          1           0        3.002518   -1.314485    0.194565
     14          1           0        1.450526   -2.153559    0.012840
     15          1           0        2.199202   -1.350627   -1.383588
     16          1           0       -1.378005    1.981169   -0.333833
     17          1           0       -2.084159   -0.000491    1.793976
     18          1           0       -3.287386   -0.000153    0.417191
     19          1           0       -1.377961   -1.981036   -0.334851
 ---------------------------------------------------------------------

 SCF Done:  E(RB3LYP) =  -423.095695415     A.U. after    1 cycles

 The electronic state is 1-A.
 Alpha  occ. eigenvalues --  -19.14825 -19.13863 -10.24934 -10.24931 -10.24523
 Alpha  occ. eigenvalues --  -10.24484 -10.19584 -10.18407 -10.18407  -1.07836
 Alpha  occ. eigenvalues --   -1.05085  -0.78506  -0.77131  -0.70318  -0.66058
 Alpha  occ. eigenvalues --   -0.65757  -0.58722  -0.52766  -0.51433  -0.47045
 Alpha  occ. eigenvalues --   -0.46517  -0.44573  -0.42834  -0.40890  -0.40254
 Alpha  occ. eigenvalues --   -0.39445  -0.37542  -0.37349  -0.33908  -0.33258
 Alpha  occ. eigenvalues --   -0.33128  -0.28817  -0.26235  -0.24521
 Alpha virt. eigenvalues --    0.07793   0.09122   0.09839   0.11187   0.12328
 Alpha virt. eigenvalues --    0.12776   0.12870   0.15490   0.15680   0.16700
 Alpha virt. eigenvalues --    0.17198   0.18257   0.18784   0.19139   0.19546

 Mulliken charges:
               1
     1  C   -0.451302
     2  C    0.210195
     3  C   -0.451272
     4  O   -0.343808
     5  C    0.506209
     6  C   -0.058870
     7  C   -0.230233
     8  C   -0.058857
     9  O   -0.312780
    10  H    0.129004
    11  H    0.126445
    12  H    0.126214
    13  H    0.126251
    14  H    0.126416
    15  H    0.128976
    16  H    0.100499
    17  H    0.117409
    18  H    0.109006
    19  H    0.100498
 Sum of Mulliken charges =   0.00000

 Dipole moment (field-independent basis, Debye):
    X=              0.5684    Y=              0.0001    Z=             -0.0378  Tot=              0.5696
 Quadrupole moment (field-independent basis, Debye-Ang):
   XX=            -50.4263   YY=            -49.2635   ZZ=            -58.9960
   XY=              0.0011   XZ=             -4.8090   YZ=              0.0023

  Exact polarizability:  91.184   0.000  72.642  -3.486   0.001  64.515
 Approx polarizability: 116.451  -0.001 106.414  -0.355  -0.002 110.676

                      1                      2                      3
                      A                      A                      A
 Frequencies --    138.7235               152.5040               160.8897
 Red. masses --      2.9844                 2.8613                 1.8143
 Frc consts  --      0.0338                 0.0392                 0.0277
 IR Inten    --      4.4518                 0.4217                 0.3951

                      4                      5                      6
                      A                      A                      A
 Frequencies --    177.2794               216.2056               309.3065
 Red. masses --      1.3585                 1.1799                 2.4951
 Frc consts  --      0.0252                 0.0325                 0.1406
 IR Inten    --      0.5192                 0.9938                 0.4810

                      7                      8                      9
                      A                      A                      A
 Frequencies --    377.4508               437.3485               460.1595
 Red. masses --      2.6076                 3.5450                 4.1069
 Frc consts  --      0.2189                 0.3995                 0.5124
 IR Inten    --      4.0886                 0.3931                 9.8369

                     10                     11                     12
                      A                      A                      A
 Frequencies --    493.5798               583.3561               632.8164
 Red. masses --      3.2554                 3.1523                 3.6455
 Frc consts  --      0.4673                 0.6320                 0.8601
 IR Inten    --      0.8097                11.1794                 1.3308

                     13                     14                     15
                      A                      A                      A
 Frequencies --    730.6699               764.9282               819.7912
 Red. masses --      5.6135                 6.3436                 2.9018
 Frc consts  --      1.7657                 2.1869                 1.1490
 IR Inten    --     30.5728                15.9878                 1.4476

                     16                     17                     18
                      A                      A                      A
 Frequencies --    867.9126               900.9111               942.3435
 Red. masses --      2.8564                 2.0493                 3.7470
 Frc consts  --      1.2677                 0.9800                 1.9604
 IR Inten    --     23.2421                 2.2990                 9.5565

                     19                     20                     21
                      A                      A                      A
 Frequencies --    946.3999               959.2890               988.7386
 Red. masses --      1.5513                 1.9173                 2.3069
 Frc consts  --      0.8186                 1.0396                 1.3287
 IR Inten    --      0.3235                 0.0127                20.5303

                     22                     23                     24
                      A                      A                      A
 Frequencies --   1014.6277              1052.0617              1056.0010
 Red. masses --      1.1532                 1.6077                 2.3228
 Frc consts  --      0.6995                 1.0484                 1.5261
 IR Inten    --      0.0369                 1.1051                23.7009

                     25                     26                     27
                      A                      A                      A
 Frequencies --   1111.6899              1120.3540              1152.9018
 Red. masses --      2.5825                 1.3775                 2.5670
 Frc consts  --      1.8805                 1.0187                 2.0103
 IR Inten    --     26.8057                 7.3137                18.0711

                     28                     29                     30
                      A                      A                      A
 Frequencies --   1170.1168              1182.3003              1210.9860
 Red. masses --      1.3292                 2.5981                 1.5412
 Frc consts  --      1.0722                 2.1397                 1.3317
 IR Inten    --      0.0015                46.7771                 5.4411

                     31                     32                     33
                      A                      A                      A
 Frequencies --   1249.9712              1261.4727              1265.7140
 Red. masses --      3.3017                 1.6332                 1.7253
 Frc consts  --      3.0394                 1.5312                 1.6285
 IR Inten    --     17.7452                 4.4451                 6.3366

                     34                     35                     36
                      A                      A                      A
 Frequencies --   1406.7952              1416.9573              1472.2642
 Red. masses --      1.3525                 1.2343                 1.1811
 Frc consts  --      1.5771                 1.4601                 1.5084
 IR Inten    --     14.2533                 1.4491                 2.7438

                     37                     38                     39
                      A                      A                      A
 Frequencies --   1473.2131              1482.4112              1482.8842
 Red. masses --      1.0475                 1.0459                 1.1347
 Frc consts  --      1.3395                 1.3542                 1.4701
 IR Inten    --      0.1025                 2.5980                 0.3064

                     40                     41                     42
                      A                      A                      A
 Frequencies --   1499.9990              1575.9637              3035.2025
 Red. masses --      1.0506                 4.7208                 1.0363
 Frc consts  --      1.3928                 6.9081                 5.6246
 IR Inten    --      9.0788                21.5588                12.0364

                     43                     44                     45
                      A                      A                      A
 Frequencies --   3039.7736              3070.5491              3098.5012
 Red. masses --      1.0365                 1.0543                 1.1009
 Frc consts  --      5.6431                 5.8568                 6.2273
 IR Inten    --     26.1226                27.5992                 0.0044

                     46                     47                     48
                      A                      A                      A
 Frequencies --   3103.1720              3126.9093              3129.9095
 Red. masses --      1.1004                 1.0947                 1.0964
 Frc consts  --      6.2432                 6.3064                 6.3284
 IR Inten    --     31.3815                17.7270                61.4642

                     49                     50                     51
                      A                      A                      A
 Frequencies --   3130.1145              3133.4334              3154.3566
 Red. masses --      1.1006                 1.0975                 1.1118
 Frc consts  --      6.3531                 6.3488                 6.5177
 IR Inten    --     19.8418                 3.4090                19.2244

 - Thermochemistry -
 -------------------
 Temperature   298.150 Kelvin.  Pressure   1.00000 Atm.
 Atom     1 has atomic number  6 and mass  12.00000

 Molecular mass:   126.06808 amu.
 Principal axes and moments of inertia in atomic units:
                           1         2         3
     Eigenvalues --   561.259291401.706471438.25406
           X            0.99933   0.00002  -0.03672
           Y           -0.00001   1.00000   0.00026
           Z            0.03672  -0.00026   0.99933
 This molecule is an asymmetric top.
 Rotational symmetry number  1.
 Warning -- assumption of classical behavior for rotation
           may cause significant error
 Rotational temperatures (Kelvin)      0.15432     0.06179     0.06022
 Rotational constants (GHZ):           3.21552     1.28753     1.25481
 Zero-point vibrational energy     411163.7 (Joules/Mol)
                                   98.27049 (Kcal/Mol)
 Warning -- explicit consideration of  11 degrees of freedom as
           vibrations may cause significant error
 Vibrational temperatures:    199.59   219.42   231.48   255.07   311.07
          (Kelvin)            445.02   543.07   629.25   662.07   710.15
                              839.32   910.48  1051.27  1100.56  1179.50
                             1248.73  1296.21  1355.82  1361.66  1380.20
                             1422.57  1459.82  1513.68  1519.35  1599.47
                             1611.94  1658.77  1683.54  1701.06  1742.34
                             1798.43  1814.98  1821.08  2024.06  2038.68
                             2118.26  2119.62  2132.86  2133.54  2158.16
                             2267.46  4366.97  4373.55  4417.83  4458.05
                             4464.77  4498.92  4503.24  4503.53  4508.31
                             4538.41

 Zero-point correction=                           0.156604 (Hartree/Particle)
 Thermal correction to Energy=                    0.165157
 Thermal correction to Enthalpy=                  0.166101
 Thermal correction to Gibbs Free Energy=         0.123804
 Sum of electronic and zero-point Energies=           -422.939091
 Sum of electronic and thermal Energies=              -422.930539
 Sum of electronic and thermal Enthalpies=            -422.929594
 Sum of electronic and thermal Free Energies=         -422.971891

                     E (Thermal)             CV                S
                      KCal/Mol        Cal/Mol-Kelvin    Cal/Mol-Kelvin
 Total                  103.638             32.976             89.021
 Electronic               0.000              0.000              0.000
 Translational            0.889              2.981             40.409
 Rotational               0.889              2.981             28.516
 Vibrational            101.860             27.015             20.096
 Vibration     1          0.614              1.915              2.821
 Vibration     2          0.619              1.900              2.641
 Vibration     3          0.622              1.890              2.539
 Vibration     4          0.628              1.870              2.357
 Vibration     5          0.645              1.816              1.991
 Vibration     6          0.699              1.656              1.366
 Vibration     7          0.748              1.518              1.049
 Vibration     8          0.798              1.389              0.835
 Vibration     9          0.818              1.338              0.766
 Vibration    10          0.849              1.264              0.674
 Vibration    11          0.940              1.067              0.479

 Normal termination of Gaussian 09 at Mon Jan 27 16:51:04 2020.
