 Gaussian 09, Revision D.01,
 Gaussian 09:  ES64L-G09RevD.01 24-Apr-2013

 -----------------------------
 # b3lyp 6-31G(2df,p) opt Freq
 -----------------------------

 -----
 titel
 -----
 Symbolic Z-matrix:
 Charge =  0 Multiplicity = 1

 SCF Done:  E(RB3LYP) =  -423.202612078     A.U. after   14 cycles
 Optimization completed.
    -- Stationary point found.
 Normal termination of Gaussian 09 at Mon Jan 27 13:06:31 2020.

 ----------------------------------------------------------------------
 #N Geom=AllCheck Guess=TCheck SCRF=Check GenChk RB3LYP/6-31G(2df,p) Fr
 eq
 ----------------------------------------------------------------------

 Structure from the checkpoint file:  "/scratch/puck/g09_b97b2a6e-0cd6-404e-9154-fca17336b1da/Gau-157790.chk"
 -----
 titel
 -----
 Charge =  0 Multiplicity = 1

                         Standard orientation:
 ---------------------------------------------------------------------
 Center     Atomic      Atomic             Coordinates (Angstroms)
 Number     Number       Type             X           Y           Z
 ---------------------------------------------------------------------
      1          8           0        0.182837    2.129332    0.104919
      2          6           0        0.568020    0.990072    0.053567
      3          6           0        1.998216    0.510091   -0.203325
      4          6           0        1.904279   -1.027920   -0.234541
      5          6           0        0.654088   -1.352636    0.617668
      6          6           0       -0.326868   -0.256218    0.242293
      7          6           0       -1.680976   -0.030492    0.928791
      8          6           0       -2.271851   -0.182758   -0.485695
      9          8           0       -0.976515   -0.517009   -1.041938
     10          1           0        2.406432    0.963397   -1.110110
     11          1           0        2.615397    0.864307    0.632125
     12          1           0        1.738155   -1.372545   -1.259576
     13          1           0        2.806534   -1.518233    0.137253
     14          1           0        0.245798   -2.348423    0.429680
     15          1           0        0.888696   -1.273774    1.687757
     16          1           0       -1.965028   -0.812357    1.635051
     17          1           0       -1.793882    0.953083    1.386134
     18          1           0       -2.990845   -0.995479   -0.635680
     19          1           0       -2.671271    0.740610   -0.919030
 ---------------------------------------------------------------------

 SCF Done:  E(RB3LYP) =  -423.202612078     A.U. after    1 cycles

 The electronic state is 1-A.
 Alpha  occ. eigenvalues --  -19.13788 -19.13447 -10.26467 -10.23926 -10.23208
 Alpha  occ. eigenvalues --  -10.19222 -10.19168 -10.18969 -10.18918  -1.05082
 Alpha  occ. eigenvalues --   -1.03134  -0.83351  -0.74929  -0.71606  -0.68416
 Alpha  occ. eigenvalues --   -0.61216  -0.57995  -0.50755  -0.49827  -0.47781
 Alpha  occ. eigenvalues --   -0.47457  -0.44718  -0.43941  -0.41917  -0.39927
 Alpha  occ. eigenvalues --   -0.39134  -0.37637  -0.36199  -0.35361  -0.33836
 Alpha  occ. eigenvalues --   -0.32363  -0.30810  -0.27624  -0.22531
 Alpha virt. eigenvalues --   -0.02779   0.08398   0.10376   0.11230   0.11595
 Alpha virt. eigenvalues --    0.12799   0.13650   0.14698   0.16165   0.16987
 Alpha virt. eigenvalues --    0.17696   0.19031   0.19861   0.20832   0.22483

 Mulliken charges:
               1
     1  O   -0.321488
     2  C    0.381632
     3  C   -0.323591
     4  C   -0.221530
     5  C   -0.294534
     6  C    0.368317
     7  C   -0.367275
     8  C   -0.065861
     9  O   -0.330519
    10  H    0.135583
    11  H    0.133276
    12  H    0.126201
    13  H    0.103111
    14  H    0.110800
    15  H    0.104148
    16  H    0.109948
    17  H    0.129194
    18  H    0.105761
    19  H    0.116826
 Sum of Mulliken charges =   0.00000

 Dipole moment (field-independent basis, Debye):
    X=              0.4349    Y=             -2.0531    Z=              1.2902  Tot=              2.4635
 Quadrupole moment (field-independent basis, Debye-Ang):
   XX=            -46.9066   YY=            -58.9409   ZZ=            -53.2853
   XY=              0.0345   XZ=             -0.6990   YZ=             -1.4429

  Exact polarizability:  87.484  -0.840  74.272   0.187  -0.756  63.146
 Approx polarizability: 111.912  -3.103 113.401   1.570   1.876  98.442

                      1                      2                      3
                      A                      A                      A
 Frequencies --     69.5604                83.0661               164.5294
 Red. masses --      3.2108                 2.3641                 2.1552
 Frc consts  --      0.0092                 0.0096                 0.0344
 IR Inten    --      4.1298                 1.5419                 0.7022

                      4                      5                      6
                      A                      A                      A
 Frequencies --    217.6628               265.1334               354.6415
 Red. masses --      4.1149                 3.0493                 2.5675
 Frc consts  --      0.1149                 0.1263                 0.1903
 IR Inten    --      7.0959                 1.4325                 2.4689

                      7                      8                      9
                      A                      A                      A
 Frequencies --    429.5615               535.3334               549.3615
 Red. masses --      3.7549                 2.1869                 3.3377
 Frc consts  --      0.4082                 0.3693                 0.5935
 IR Inten    --      1.3007                 6.3800                 3.3808

                     10                     11                     12
                      A                      A                      A
 Frequencies --    612.7327               657.2308               756.2793
 Red. masses --      2.9970                 3.6182                 1.5660
 Frc consts  --      0.6630                 0.9208                 0.5277
 IR Inten    --      1.9849                 2.5706                 0.3910

                     13                     14                     15
                      A                      A                      A
 Frequencies --    813.2611               823.1232               859.4888
 Red. masses --      1.6840                 1.7890                 3.8669
 Frc consts  --      0.6562                 0.7141                 1.6830
 IR Inten    --      2.8358                10.7414                17.8764

                     16                     17                     18
                      A                      A                      A
 Frequencies --    899.8259               927.7990               954.4058
 Red. masses --      2.1862                 2.1893                 2.0855
 Frc consts  --      1.0429                 1.1104                 1.1192
 IR Inten    --      6.0465                17.4354                 8.6052

                     19                     20                     21
                      A                      A                      A
 Frequencies --    983.9096              1005.5298              1014.1366
 Red. masses --      2.7710                 4.3198                 2.5725
 Frc consts  --      1.5805                 2.5734                 1.5588
 IR Inten    --      6.6684                80.2087                36.5792

                     22                     23                     24
                      A                      A                      A
 Frequencies --   1044.3011              1058.2840              1157.3742
 Red. masses --      1.7835                 2.6342                 1.4978
 Frc consts  --      1.1460                 1.7382                 1.1821
 IR Inten    --      2.6554                21.6021                12.8945

                     25                     26                     27
                      A                      A                      A
 Frequencies --   1166.9579              1180.3252              1204.8144
 Red. masses --      1.4222                 1.7492                 1.6130
 Frc consts  --      1.1411                 1.4358                 1.3795
 IR Inten    --      8.1257                11.3681                 4.2351

                     28                     29                     30
                      A                      A                      A
 Frequencies --   1227.1719              1233.2082              1268.2057
 Red. masses --      1.7710                 1.3377                 1.6325
 Frc consts  --      1.5714                 1.1986                 1.5470
 IR Inten    --      4.7920                 0.5978                11.5769

                     31                     32                     33
                      A                      A                      A
 Frequencies --   1279.1723              1298.9149              1329.6387
 Red. masses --      1.7486                 1.4445                 1.3531
 Frc consts  --      1.6858                 1.4359                 1.4095
 IR Inten    --      1.5320                 0.5861                 0.5088

                     34                     35                     36
                      A                      A                      A
 Frequencies --   1345.2760              1364.9902              1445.3069
 Red. masses --      1.4000                 1.9204                 1.0803
 Frc consts  --      1.4928                 2.1081                 1.3296
 IR Inten    --      3.2932                 3.5164                 6.8910

                     37                     38                     39
                      A                      A                      A
 Frequencies --   1470.3546              1476.8158              1499.2836
 Red. masses --      1.0975                 1.1140                 1.0968
 Frc consts  --      1.3980                 1.4315                 1.4526
 IR Inten    --      5.2889                 5.4904                 3.8355

                     40                     41                     42
                      A                      A                      A
 Frequencies --   1522.7600              1846.3448              3025.5565
 Red. masses --      1.1095                12.7734                 1.0669
 Frc consts  --      1.5157                25.6556                 5.7542
 IR Inten    --      1.6668               146.8461                20.6544

                     43                     44                     45
                      A                      A                      A
 Frequencies --   3031.4140              3040.2964              3062.3395
 Red. masses --      1.0552                 1.0675                 1.0616
 Frc consts  --      5.7133                 5.8138                 5.8656
 IR Inten    --     75.6515                 8.5789                22.4429

                     46                     47                     48
                      A                      A                      A
 Frequencies --   3075.8147              3082.8239              3100.6737
 Red. masses --      1.1059                 1.0645                 1.0946
 Frc consts  --      6.1641                 5.9608                 6.2003
 IR Inten    --     20.9247                29.0696                 7.6252

                     49                     50                     51
                      A                      A                      A
 Frequencies --   3103.9577              3114.6162              3143.4934
 Red. masses --      1.0958                 1.1049                 1.1087
 Frc consts  --      6.2202                 6.3153                 6.4550
 IR Inten    --     17.5054                24.6411                10.9440

 - Thermochemistry -
 -------------------
 Temperature   298.150 Kelvin.  Pressure   1.00000 Atm.
 Atom     1 has atomic number  8 and mass  15.99491

 Molecular mass:   126.06808 amu.
 Principal axes and moments of inertia in atomic units:
                           1         2         3
     Eigenvalues --   688.661791109.324301445.93673
           X            0.99962  -0.02523  -0.01154
           Y            0.02495   0.99941  -0.02371
           Z            0.01213   0.02341   0.99965
 This molecule is an asymmetric top.
 Rotational symmetry number  1.
 Warning -- assumption of classical behavior for rotation
           may cause significant error
 Rotational temperatures (Kelvin)      0.12577     0.07808     0.05990
 Rotational constants (GHZ):           2.62065     1.62688     1.24815
 Zero-point vibrational energy     419752.0 (Joules/Mol)
                                  100.32314 (Kcal/Mol)
 Warning -- explicit consideration of  10 degrees of freedom as
           vibrations may cause significant error
 Vibrational temperatures:    100.08   119.51   236.72   313.17   381.47
          (Kelvin)            510.25   618.04   770.22   790.41   881.58
                              945.61  1088.12  1170.10  1184.29  1236.61
                             1294.65  1334.89  1373.18  1415.62  1446.73
                             1459.11  1502.51  1522.63  1665.20  1678.99
                             1698.22  1733.46  1765.62  1774.31  1824.66
                             1840.44  1868.85  1913.05  1935.55  1963.91
                             2079.47  2115.51  2124.81  2157.13  2190.91
                             2656.48  4353.10  4361.52  4374.30  4406.02
                             4425.41  4435.49  4461.17  4465.90  4481.23
                             4522.78

 Zero-point correction=                           0.159875 (Hartree/Particle)
 Thermal correction to Energy=                    0.168012
 Thermal correction to Enthalpy=                  0.168956
 Thermal correction to Gibbs Free Energy=         0.126677
 Sum of electronic and zero-point Energies=           -423.042737
 Sum of electronic and thermal Energies=              -423.034600
 Sum of electronic and thermal Enthalpies=            -423.033656
 Sum of electronic and thermal Free Energies=         -423.075935

                     E (Thermal)             CV                S
                      KCal/Mol        Cal/Mol-Kelvin    Cal/Mol-Kelvin
 Total                  105.429             30.755             88.985
 Electronic               0.000              0.000              0.000
 Translational            0.889              2.981             40.409
 Rotational               0.889              2.981             28.492
 Vibrational            103.652             24.793             20.084
 Vibration     1          0.598              1.969              4.166
 Vibration     2          0.600              1.961              3.817
 Vibration     3          0.623              1.886              2.497
 Vibration     4          0.646              1.814              1.978
 Vibration     5          0.671              1.737              1.628
 Vibration     6          0.730              1.566              1.146
 Vibration     7          0.791              1.406              0.860
 Vibration     8          0.890              1.172              0.575
 Vibration     9          0.905              1.141              0.545
 Vibration    10          0.972              1.005              0.428

 Normal termination of Gaussian 09 at Mon Jan 27 13:54:42 2020.
