 Gaussian 09, Revision D.01,
 Gaussian 09:  ES64L-G09RevD.01 24-Apr-2013

 -----------------------------
 # b3lyp 6-31G(2df,p) opt Freq
 -----------------------------

 -----
 titel
 -----
 Symbolic Z-matrix:
 Charge =  0 Multiplicity = 1

 SCF Done:  E(RB3LYP) =  -423.177639939     A.U. after   14 cycles
 Optimization completed.
    -- Stationary point found.
 Normal termination of Gaussian 09 at Mon Jan 27 17:22:34 2020.

 ----------------------------------------------------------------------
 #N Geom=AllCheck Guess=TCheck SCRF=Check GenChk RB3LYP/6-31G(2df,p) Fr
 eq
 ----------------------------------------------------------------------

 Structure from the checkpoint file:  "/scratch/puck/g09_e2d217f0-17ae-4dbf-90c2-2c52fb22d225/Gau-168322.chk"
 -----
 titel
 -----
 Charge =  0 Multiplicity = 1

                         Standard orientation:
 ---------------------------------------------------------------------
 Center     Atomic      Atomic             Coordinates (Angstroms)
 Number     Number       Type             X           Y           Z
 ---------------------------------------------------------------------
      1          8           0        1.293015   -1.522972   -0.664833
      2          6           0        0.466990   -0.777970    0.178924
      3          6           0        1.096693   -0.035227    1.347022
      4          6           0        0.599491    0.718414    0.119255
      5          8           0        1.586494    1.156731   -0.793485
      6          6           0       -0.647673    1.525398    0.145612
      7          6           0       -1.833183    0.970245   -0.107894
      8          6           0       -1.989713   -0.502970   -0.414380
      9          6           0       -0.936636   -1.356803    0.316274
     10          1           0        1.837964   -0.879081   -1.139489
     11          1           0        0.542896    0.064395    2.275056
     12          1           0        2.173859   -0.128844    1.451299
     13          1           0        2.189919    1.747433   -0.331284
     14          1           0       -0.555981    2.588644    0.357011
     15          1           0       -2.729889    1.584768   -0.107547
     16          1           0       -2.995976   -0.839464   -0.142680
     17          1           0       -1.905893   -0.654300   -1.500225
     18          1           0       -1.208419   -1.424107    1.374955
     19          1           0       -0.920357   -2.376033   -0.079434
 ---------------------------------------------------------------------

 SCF Done:  E(RB3LYP) =  -423.177639939     A.U. after    1 cycles

 The electronic state is 1-A.
 Alpha  occ. eigenvalues --  -19.15674 -19.12849 -10.23773 -10.23281 -10.18516
 Alpha  occ. eigenvalues --  -10.18471 -10.18025 -10.18009 -10.17991  -1.04653
 Alpha  occ. eigenvalues --   -1.00943  -0.85192  -0.78538  -0.73881  -0.65098
 Alpha  occ. eigenvalues --   -0.61229  -0.57943  -0.53042  -0.52555  -0.48378
 Alpha  occ. eigenvalues --   -0.46455  -0.44489  -0.43593  -0.40208  -0.39320
 Alpha  occ. eigenvalues --   -0.38535  -0.36451  -0.35331  -0.34584  -0.32999
 Alpha  occ. eigenvalues --   -0.30588  -0.28102  -0.23921  -0.22790
 Alpha virt. eigenvalues --    0.01044   0.07317   0.09958   0.10441   0.12374
 Alpha virt. eigenvalues --    0.14209   0.14620   0.15470   0.17274   0.17565
 Alpha virt. eigenvalues --    0.17903   0.19656   0.20385   0.22778   0.25439

 Mulliken charges:
               1
     1  O   -0.486075
     2  C    0.410317
     3  C   -0.418555
     4  C    0.274773
     5  O   -0.475938
     6  C   -0.114035
     7  C   -0.061910
     8  C   -0.265017
     9  C   -0.271103
    10  H    0.286926
    11  H    0.112498
    12  H    0.105315
    13  H    0.290011
    14  H    0.081008
    15  H    0.091517
    16  H    0.100841
    17  H    0.122037
    18  H    0.101446
    19  H    0.115946
 Sum of Mulliken charges =   0.00000

 Dipole moment (field-independent basis, Debye):
    X=             -0.0865    Y=              1.7193    Z=              1.0418  Tot=              2.0122
 Quadrupole moment (field-independent basis, Debye-Ang):
   XX=            -47.4199   YY=            -54.0158   ZZ=            -54.2934
   XY=              4.7312   XZ=              0.9753   YZ=              0.6851

  Exact polarizability:  89.064   4.198  76.678   4.086   2.432  63.165
 Approx polarizability: 128.280  10.411 112.437   5.239   5.273  98.966

                      1                      2                      3
                      A                      A                      A
 Frequencies --    117.6841               156.7821               244.2066
 Red. masses --      2.4825                 3.2689                 1.1861
 Frc consts  --      0.0203                 0.0473                 0.0417
 IR Inten    --      0.4473                 2.7701                28.0430

                      4                      5                      6
                      A                      A                      A
 Frequencies --    267.7853               282.8294               386.1819
 Red. masses --      2.9654                 4.3505                 2.6362
 Frc consts  --      0.1253                 0.2050                 0.2316
 IR Inten    --     20.7838                 4.0111                11.6429

                      7                      8                      9
                      A                      A                      A
 Frequencies --    415.1897               443.1627               470.6619
 Red. masses --      3.1693                 2.4354                 1.3910
 Frc consts  --      0.3219                 0.2818                 0.1815
 IR Inten    --      5.3484                 5.3090                54.1471

                     10                     11                     12
                      A                      A                      A
 Frequencies --    488.0513               540.4115               551.3173
 Red. masses --      1.8207                 3.8295                 3.1321
 Frc consts  --      0.2555                 0.6589                 0.5609
 IR Inten    --     19.8014                10.3185                 9.7074

                     13                     14                     15
                      A                      A                      A
 Frequencies --    670.1805               710.2320               725.4807
 Red. masses --      2.9975                 3.2567                 1.8157
 Frc consts  --      0.7932                 0.9679                 0.5631
 IR Inten    --      2.3936                 3.9026                36.1034

                     16                     17                     18
                      A                      A                      A
 Frequencies --    806.9480               871.4208               887.9175
 Red. masses --      1.9165                 2.9390                 1.6033
 Frc consts  --      0.7353                 1.3150                 0.7447
 IR Inten    --      5.2662                 6.9879                 2.5920

                     19                     20                     21
                      A                      A                      A
 Frequencies --    930.7833               945.5351               952.0593
 Red. masses --      1.7574                 3.0531                 2.4537
 Frc consts  --      0.8971                 1.6082                 1.3104
 IR Inten    --      5.0004                27.0417                 9.6967

                     22                     23                     24
                      A                      A                      A
 Frequencies --    991.9733              1012.1608              1032.7664
 Red. masses --      1.2848                 1.7116                 1.6831
 Frc consts  --      0.7449                 1.0331                 1.0577
 IR Inten    --      2.4481                 2.1490                 1.1902

                     25                     26                     27
                      A                      A                      A
 Frequencies --   1045.7942              1122.2609              1160.9259
 Red. masses --      1.8765                 3.9846                 1.6492
 Frc consts  --      1.2092                 2.9568                 1.3096
 IR Inten    --      7.5488                33.7936                93.8037

                     28                     29                     30
                      A                      A                      A
 Frequencies --   1178.0581              1224.1717              1234.2349
 Red. masses --      1.1990                 1.8810                 1.4586
 Frc consts  --      0.9804                 1.6608                 1.3092
 IR Inten    --     21.1713                36.9357                40.6603

                     31                     32                     33
                      A                      A                      A
 Frequencies --   1265.9752              1305.4932              1348.4290
 Red. masses --      1.5405                 1.5573                 1.4950
 Frc consts  --      1.4547                 1.5638                 1.6016
 IR Inten    --     33.3415                29.5501                 4.7735

                     34                     35                     36
                      A                      A                      A
 Frequencies --   1361.8462              1391.6900              1419.0786
 Red. masses --      1.3491                 1.7852                 1.6062
 Frc consts  --      1.4742                 2.0372                 1.9057
 IR Inten    --     11.8843                 4.7579                10.9872

                     37                     38                     39
                      A                      A                      A
 Frequencies --   1426.0422              1468.3632              1479.6011
 Red. masses --      1.5548                 1.3147                 1.3108
 Frc consts  --      1.8629                 1.6701                 1.6908
 IR Inten    --     28.6611                11.6764                25.1720

                     40                     41                     42
                      A                      A                      A
 Frequencies --   1485.3031              1707.8064              3008.4235
 Red. masses --      1.1620                 6.9156                 1.0687
 Frc consts  --      1.5103                11.8839                 5.6988
 IR Inten    --      9.0110                 3.2536                22.8735

                     43                     44                     45
                      A                      A                      A
 Frequencies --   3044.3770              3065.2287              3099.3693
 Red. masses --      1.0653                 1.0890                 1.1015
 Frc consts  --      5.8174                 6.0283                 6.2343
 IR Inten    --     17.1512                40.4365                17.2021

                     46                     47                     48
                      A                      A                      A
 Frequencies --   3115.1552              3140.3996              3166.4135
 Red. masses --      1.0533                 1.0838                 1.0969
 Frc consts  --      6.0221                 6.2977                 6.4794
 IR Inten    --      9.2901                 9.5551                35.5156

                     49                     50                     51
                      A                      A                      A
 Frequencies --   3212.1881              3734.6533              3812.1844
 Red. masses --      1.1180                 1.0648                 1.0667
 Frc consts  --      6.7965                 8.7506                 9.1332
 IR Inten    --      7.7546                52.0743                33.6604

 - Thermochemistry -
 -------------------
 Temperature   298.150 Kelvin.  Pressure   1.00000 Atm.
 Atom     1 has atomic number  8 and mass  15.99491

 Molecular mass:   126.06808 amu.
 Principal axes and moments of inertia in atomic units:
                           1         2         3
     Eigenvalues --   765.161391014.920491379.25261
           X            0.99831   0.05486   0.01914
           Y           -0.05497   0.99847   0.00521
           Z           -0.01883  -0.00626   0.99980
 This molecule is an asymmetric top.
 Rotational symmetry number  1.
 Warning -- assumption of classical behavior for rotation
           may cause significant error
 Rotational temperatures (Kelvin)      0.11320     0.08534     0.06280
 Rotational constants (GHZ):           2.35864     1.77821     1.30849
 Zero-point vibrational energy     418245.5 (Joules/Mol)
                                   99.96307 (Kcal/Mol)
 Warning -- explicit consideration of  12 degrees of freedom as
           vibrations may cause significant error
 Vibrational temperatures:    169.32   225.57   351.36   385.28   406.93
          (Kelvin)            555.63   597.36   637.61   677.18   702.20
                              777.53   793.22   964.24  1021.86  1043.80
                             1161.02  1253.78  1277.51  1339.19  1360.41
                             1369.80  1427.23  1456.27  1485.92  1504.66
                             1614.68  1670.31  1694.96  1761.31  1775.79
                             1821.45  1878.31  1940.09  1959.39  2002.33
                             2041.73  2051.75  2112.64  2128.81  2137.02
                             2457.15  4328.45  4380.17  4410.17  4459.30
                             4482.01  4518.33  4555.76  4621.62  5373.33
                             5484.88

 Zero-point correction=                           0.159301 (Hartree/Particle)
 Thermal correction to Energy=                    0.167593
 Thermal correction to Enthalpy=                  0.168538
 Thermal correction to Gibbs Free Energy=         0.127056
 Sum of electronic and zero-point Energies=           -423.018339
 Sum of electronic and thermal Energies=              -423.010047
 Sum of electronic and thermal Enthalpies=            -423.009102
 Sum of electronic and thermal Free Energies=         -423.050584

                     E (Thermal)             CV                S
                      KCal/Mol        Cal/Mol-Kelvin    Cal/Mol-Kelvin
 Total                  105.166             33.362             87.305
 Electronic               0.000              0.000              0.000
 Translational            0.889              2.981             40.409
 Rotational               0.889              2.981             28.462
 Vibrational            103.389             27.400             18.435
 Vibration     1          0.608              1.935              3.138
 Vibration     2          0.620              1.895              2.588
 Vibration     3          0.660              1.772              1.772
 Vibration     4          0.673              1.732              1.610
 Vibration     5          0.682              1.705              1.517
 Vibration     6          0.755              1.500              1.015
 Vibration     7          0.779              1.437              0.908
 Vibration     8          0.803              1.376              0.817
 Vibration     9          0.828              1.315              0.736
 Vibration    10          0.844              1.277              0.689
 Vibration    11          0.895              1.161              0.564
 Vibration    12          0.907              1.137              0.541

 Normal termination of Gaussian 09 at Mon Jan 27 18:07:07 2020.
