 Gaussian 09, Revision D.01,
 Gaussian 09:  ES64L-G09RevD.01 24-Apr-2013

 -----------------------------
 # b3lyp 6-31G(2df,p) opt Freq
 -----------------------------

 -----
 titel
 -----
 Symbolic Z-matrix:
 Charge =  0 Multiplicity = 1

 SCF Done:  E(RB3LYP) =  -423.177442864     A.U. after   14 cycles
 Optimization completed.
    -- Stationary point found.
 Normal termination of Gaussian 09 at Mon Jan 27 11:55:02 2020.

 ----------------------------------------------------------------------
 #N Geom=AllCheck Guess=TCheck SCRF=Check GenChk RB3LYP/6-31G(2df,p) Fr
 eq
 ----------------------------------------------------------------------

 Structure from the checkpoint file:  "/scratch/puck/g09_7356106f-28da-4fcf-9a65-f2bb75acfdf4/Gau-96416.chk"
 -----
 titel
 -----
 Charge =  0 Multiplicity = 1

                         Standard orientation:
 ---------------------------------------------------------------------
 Center     Atomic      Atomic             Coordinates (Angstroms)
 Number     Number       Type             X           Y           Z
 ---------------------------------------------------------------------
      1          6           0        2.336017    0.173511    0.400362
      2          8           0        1.893286   -0.619995   -0.709255
      3          6           0        0.919180    0.105977    0.035265
      4          6           0        0.131547    1.240422   -0.651360
      5          6           0       -1.299886    0.931768   -0.165987
      6          6           0       -1.066764    0.455500    1.278611
      7          6           0       -0.132785   -0.684616    0.815872
      8          6           0       -1.035844   -1.354712   -0.234958
      9          8           0       -1.754040   -0.255126   -0.831146
     10          1           0        2.708031   -0.388027    1.257195
     11          1           0        2.920281    1.055230    0.137503
     12          1           0        0.468854    2.232089   -0.331953
     13          1           0        0.211768    1.175259   -1.738681
     14          1           0       -2.035841    1.718569   -0.331675
     15          1           0       -0.571532    1.196096    1.911918
     16          1           0       -1.981368    0.104689    1.762137
     17          1           0        0.266287   -1.361967    1.570642
     18          1           0       -0.459343   -1.884656   -1.000287
     19          1           0       -1.749899   -2.053412    0.219585
 ---------------------------------------------------------------------

 SCF Done:  E(RB3LYP) =  -423.177442864     A.U. after    1 cycles

 The electronic state is 1-A.
 Alpha  occ. eigenvalues --  -19.14892 -19.13140 -10.24191 -10.23354 -10.23258
 Alpha  occ. eigenvalues --  -10.22324 -10.19579 -10.18833 -10.18309  -1.07060
 Alpha  occ. eigenvalues --   -1.03106  -0.82719  -0.75160  -0.70147  -0.66518
 Alpha  occ. eigenvalues --   -0.61703  -0.58372  -0.53722  -0.52312  -0.50159
 Alpha  occ. eigenvalues --   -0.46623  -0.45995  -0.43439  -0.41648  -0.39971
 Alpha  occ. eigenvalues --   -0.37536  -0.36875  -0.35376  -0.35058  -0.33983
 Alpha  occ. eigenvalues --   -0.32840  -0.28484  -0.26124  -0.24270
 Alpha virt. eigenvalues --    0.07858   0.09561   0.11028   0.11784   0.12385
 Alpha virt. eigenvalues --    0.13450   0.14661   0.16026   0.16429   0.17092
 Alpha virt. eigenvalues --    0.17362   0.17589   0.19341   0.19948   0.21268

 Mulliken charges:
               1
     1  C   -0.280882
     2  O   -0.292850
     3  C    0.494510
     4  C   -0.309858
     5  C    0.101480
     6  C   -0.241249
     7  C   -0.134557
     8  C   -0.076714
     9  O   -0.281786
    10  H    0.111588
    11  H    0.112813
    12  H    0.100702
    13  H    0.125586
    14  H    0.077124
    15  H    0.100951
    16  H    0.107209
    17  H    0.071147
    18  H    0.119801
    19  H    0.094984
 Sum of Mulliken charges =   0.00000

 Dipole moment (field-independent basis, Debye):
    X=              0.3723    Y=              1.1711    Z=              2.3354  Tot=              2.6390
 Quadrupole moment (field-independent basis, Debye-Ang):
   XX=            -55.7592   YY=            -50.4280   ZZ=            -54.1016
   XY=              1.6683   XZ=              0.4422   YZ=             -1.7376

  Exact polarizability:  81.889   1.713  73.225   1.041  -1.519  66.067
 Approx polarizability: 111.747   0.714 107.844   2.651   1.846 102.435

                      1                      2                      3
                      A                      A                      A
 Frequencies --    109.1413               240.4764               292.3321
 Red. masses --      4.1851                 2.6810                 2.6717
 Frc consts  --      0.0294                 0.0913                 0.1345
 IR Inten    --      0.9350                 6.8599                 0.8419

                      4                      5                      6
                      A                      A                      A
 Frequencies --    349.1803               400.0277               427.6327
 Red. masses --      3.9039                 2.4324                 1.9398
 Frc consts  --      0.2804                 0.2293                 0.2090
 IR Inten    --      1.6180                 2.4435                 0.1665

                      7                      8                      9
                      A                      A                      A
 Frequencies --    500.9953               537.5168               667.6030
 Red. masses --      2.6882                 4.9227                 3.8205
 Frc consts  --      0.3975                 0.8380                 1.0032
 IR Inten    --      1.3401                12.5095                 3.5159

                     10                     11                     12
                      A                      A                      A
 Frequencies --    778.7094               803.4572               834.4020
 Red. masses --      3.8693                 3.0807                 2.9835
 Frc consts  --      1.3824                 1.1717                 1.2239
 IR Inten    --      1.0872                 4.4313                10.8825

                     13                     14                     15
                      A                      A                      A
 Frequencies --    870.7969               879.2866               921.7022
 Red. masses --      3.0262                 2.2082                 1.7525
 Frc consts  --      1.3520                 1.0059                 0.8772
 IR Inten    --     22.8301                 8.0314                 0.8728

                     16                     17                     18
                      A                      A                      A
 Frequencies --    925.9795               947.3784               954.3264
 Red. masses --      2.9686                 2.7767                 2.3841
 Frc consts  --      1.4997                 1.4684                 1.2793
 IR Inten    --      2.3383                26.8281                12.2470

                     19                     20                     21
                      A                      A                      A
 Frequencies --    966.4795               991.3787              1011.0147
 Red. masses --      2.2989                 1.8844                 1.6097
 Frc consts  --      1.2652                 1.0912                 0.9694
 IR Inten    --      2.3121                19.5187                11.4455

                     22                     23                     24
                      A                      A                      A
 Frequencies --   1047.7113              1087.8359              1122.4638
 Red. masses --      1.9033                 2.2146                 1.2665
 Frc consts  --      1.2310                 1.5441                 0.9402
 IR Inten    --     12.8381                53.1950                 0.9778

                     25                     26                     27
                      A                      A                      A
 Frequencies --   1126.3712              1159.2485              1177.5473
 Red. masses --      1.2985                 1.4593                 1.4221
 Frc consts  --      0.9707                 1.1555                 1.1618
 IR Inten    --      2.3894                 2.6729                 3.0443

                     28                     29                     30
                      A                      A                      A
 Frequencies --   1187.1266              1206.5489              1229.3054
 Red. masses --      1.4248                 1.7776                 1.6074
 Frc consts  --      1.1831                 1.5247                 1.4312
 IR Inten    --      2.5082                 5.5558                 4.9622

                     31                     32                     33
                      A                      A                      A
 Frequencies --   1264.5814              1284.8069              1294.1179
 Red. masses --      1.5906                 1.5819                 1.6038
 Frc consts  --      1.4987                 1.5385                 1.5825
 IR Inten    --      4.1591                 4.9370                 3.0543

                     34                     35                     36
                      A                      A                      A
 Frequencies --   1310.4434              1334.5872              1381.9101
 Red. masses --      1.6442                 1.4174                 1.4244
 Frc consts  --      1.6636                 1.4875                 1.6027
 IR Inten    --      2.5785                 6.6225                 5.5998

                     37                     38                     39
                      A                      A                      A
 Frequencies --   1432.4301              1469.7684              1494.4895
 Red. masses --      2.3472                 1.1096                 1.1120
 Frc consts  --      2.8376                 1.4123                 1.4634
 IR Inten    --     18.3691                 3.4705                 3.5400

                     40                     41                     42
                      A                      A                      A
 Frequencies --   1525.2799              1535.4296              3016.6431
 Red. masses --      1.1299                 1.4031                 1.0629
 Frc consts  --      1.5487                 1.9489                 5.6988
 IR Inten    --      0.4844                 5.3183                70.1680

                     43                     44                     45
                      A                      A                      A
 Frequencies --   3049.7206              3066.7286              3072.3140
 Red. masses --      1.0639                 1.0584                 1.0867
 Frc consts  --      5.8299                 5.8647                 6.0437
 IR Inten    --     17.6310                17.5046                29.8700

                     46                     47                     48
                      A                      A                      A
 Frequencies --   3073.7008              3115.2157              3118.7579
 Red. masses --      1.0655                 1.1010                 1.0879
 Frc consts  --      5.9311                 6.2953                 6.2345
 IR Inten    --     26.1100                 9.2876                53.1747

                     49                     50                     51
                      A                      A                      A
 Frequencies --   3122.0940              3123.8779              3158.6055
 Red. masses --      1.0979                 1.1014                 1.1192
 Frc consts  --      6.3055                 6.3326                 6.5787
 IR Inten    --     10.0918                21.1266                24.8820

 - Thermochemistry -
 -------------------
 Temperature   298.150 Kelvin.  Pressure   1.00000 Atm.
 Atom     1 has atomic number  6 and mass  12.00000

 Molecular mass:   126.06808 amu.
 Principal axes and moments of inertia in atomic units:
                           1         2         3
     Eigenvalues --   565.335721168.508861236.16104
           X            0.99984   0.01761  -0.00231
           Y           -0.01775   0.99493  -0.09897
           Z            0.00056   0.09899   0.99509
 This molecule is an asymmetric top.
 Rotational symmetry number  1.
 Warning -- assumption of classical behavior for rotation
           may cause significant error
 Rotational temperatures (Kelvin)      0.15321     0.07412     0.07007
 Rotational constants (GHZ):           3.19234     1.54448     1.45996
 Zero-point vibrational energy     424671.2 (Joules/Mol)
                                  101.49885 (Kcal/Mol)
 Warning -- explicit consideration of   8 degrees of freedom as
           vibrations may cause significant error
 Vibrational temperatures:    157.03   345.99   420.60   502.39   575.55
          (Kelvin)            615.27   720.82   773.37   960.53  1120.39
                             1155.99  1200.52  1252.88  1265.10  1326.12
                             1332.28  1363.06  1373.06  1390.55  1426.37
                             1454.62  1507.42  1565.15  1614.97  1620.59
                             1667.90  1694.23  1708.01  1735.95  1768.69
                             1819.45  1848.55  1861.94  1885.43  1920.17
                             1988.26  2060.94  2114.67  2150.23  2194.53
                             2209.14  4340.27  4387.86  4412.33  4420.37
                             4422.36  4482.10  4487.19  4491.99  4494.56
                             4544.52

 Zero-point correction=                           0.161749 (Hartree/Particle)
 Thermal correction to Energy=                    0.168663
 Thermal correction to Enthalpy=                  0.169607
 Thermal correction to Gibbs Free Energy=         0.130598
 Sum of electronic and zero-point Energies=           -423.015694
 Sum of electronic and thermal Energies=              -423.008780
 Sum of electronic and thermal Enthalpies=            -423.007835
 Sum of electronic and thermal Free Energies=         -423.046844

                     E (Thermal)             CV                S
                      KCal/Mol        Cal/Mol-Kelvin    Cal/Mol-Kelvin
 Total                  105.838             28.547             82.102
 Electronic               0.000              0.000              0.000
 Translational            0.889              2.981             40.409
 Rotational               0.889              2.981             28.192
 Vibrational            104.060             22.585             13.501
 Vibration     1          0.606              1.942              3.284
 Vibration     2          0.658              1.778              1.799
 Vibration     3          0.688              1.688              1.460
 Vibration     4          0.726              1.577              1.170
 Vibration     5          0.766              1.470              0.963
 Vibration     6          0.789              1.410              0.866
 Vibration     7          0.856              1.248              0.656
 Vibration     8          0.893              1.167              0.571

 Optimization completed.
    -- Stationary point found.
 Normal termination of Gaussian 09 at Mon Jan 27 12:40:24 2020.
