 Gaussian 09, Revision D.01,
 Gaussian 09:  ES64L-G09RevD.01 24-Apr-2013

 -----------------------------
 # b3lyp 6-31G(2df,p) opt Freq
 -----------------------------

 -----
 titel
 -----
 Symbolic Z-matrix:
 Charge =  0 Multiplicity = 1

 SCF Done:  E(RB3LYP) =  -423.149955111     A.U. after   15 cycles
 Optimization completed.
    -- Stationary point found.
 Normal termination of Gaussian 09 at Tue Jan 28 12:09:06 2020.

 ----------------------------------------------------------------------
 #N Geom=AllCheck Guess=TCheck SCRF=Check GenChk RB3LYP/6-31G(2df,p) Fr
 eq
 ----------------------------------------------------------------------

 Structure from the checkpoint file:  "/scratch/puck/g09_c548f4be-f629-4656-ad72-c9f7d9509bce/Gau-1499.chk"
 -----
 titel
 -----
 Charge =  0 Multiplicity = 1

                         Standard orientation:
 ---------------------------------------------------------------------
 Center     Atomic      Atomic             Coordinates (Angstroms)
 Number     Number       Type             X           Y           Z
 ---------------------------------------------------------------------
      1          6           0        3.053216    0.360224    0.358156
      2          8           0        1.714890   -0.028775    0.573339
      3          6           0        1.169363   -0.748504   -0.502941
      4          6           0       -0.328209   -0.958637   -0.294043
      5          8           0       -0.890758   -1.905921   -0.781751
      6          6           0       -1.074226    0.107751    0.536417
      7          6           0       -2.527803   -0.308022    0.805095
      8          6           0       -0.979615    1.393688   -0.152537
      9          6           0       -0.929679    2.434054   -0.753166
     10          1           0        3.145856    1.010603   -0.524884
     11          1           0        3.376692    0.912424    1.243127
     12          1           0        3.712335   -0.510172    0.219114
     13          1           0        1.293844   -0.199487   -1.452777
     14          1           0        1.640462   -1.734859   -0.626837
     15          1           0       -0.521396    0.193437    1.480918
     16          1           0       -3.030263    0.452253    1.407330
     17          1           0       -3.071573   -0.431480   -0.133297
     18          1           0       -2.554568   -1.261160    1.338695
     19          1           0       -0.882725    3.362672   -1.265979
 ---------------------------------------------------------------------

 SCF Done:  E(RB3LYP) =  -423.149955111     A.U. after    1 cycles

 The electronic state is 1-A.
 Alpha  occ. eigenvalues --  -19.15667 -19.14049 -10.27828 -10.24188 -10.23505
 Alpha  occ. eigenvalues --  -10.21833 -10.18673 -10.17975 -10.17541  -1.05745
 Alpha  occ. eigenvalues --   -1.04489  -0.81577  -0.75078  -0.72705  -0.66853
 Alpha  occ. eigenvalues --   -0.64839  -0.55831  -0.52094  -0.50135  -0.49982
 Alpha  occ. eigenvalues --   -0.48521  -0.47239  -0.44433  -0.42325  -0.41155
 Alpha  occ. eigenvalues --   -0.38838  -0.37668  -0.37140  -0.36386  -0.33503
 Alpha  occ. eigenvalues --   -0.28680  -0.27280  -0.26646  -0.24383
 Alpha virt. eigenvalues --   -0.02430   0.05064   0.06161   0.08225   0.11830
 Alpha virt. eigenvalues --    0.12636   0.12844   0.13626   0.15274   0.15920
 Alpha virt. eigenvalues --    0.16503   0.17256   0.17751   0.18795   0.21287

 Mulliken charges:
               1
     1  C   -0.227304
     2  O   -0.232848
     3  C   -0.152210
     4  C    0.356273
     5  O   -0.296862
     6  C   -0.222792
     7  C   -0.393528
     8  C    0.332953
     9  C   -0.491619
    10  H    0.113312
    11  H    0.133602
    12  H    0.110711
    13  H    0.124337
    14  H    0.119523
    15  H    0.139488
    16  H    0.121488
    17  H    0.140571
    18  H    0.125886
    19  H    0.199017
 Sum of Mulliken charges =   0.00000

 Dipole moment (field-independent basis, Debye):
    X=              2.0052    Y=              1.4163    Z=              0.3420  Tot=              2.4786
 Quadrupole moment (field-independent basis, Debye-Ang):
   XX=            -48.6192   YY=            -54.9035   ZZ=            -52.6721
   XY=             -1.7716   XZ=             -2.5662   YZ=             -3.9312

  Exact polarizability:  81.601   2.942  88.573  -1.504  -5.627  64.439
 Approx polarizability:  99.404   7.816 138.861   0.158 -12.136 102.506

                      1                      2                      3
                      A                      A                      A
 Frequencies --     38.9475                75.3572                80.2967
 Red. masses --      3.6214                 2.1936                 3.7638
 Frc consts  --      0.0032                 0.0073                 0.0143
 IR Inten    --      1.2990                 5.1378                 2.7364

                      4                      5                      6
                      A                      A                      A
 Frequencies --    133.1221               156.4693               200.4485
 Red. masses --      3.8763                 3.4802                 1.1926
 Frc consts  --      0.0405                 0.0502                 0.0282
 IR Inten    --      0.2136                 1.4818                 0.0564

                      7                      8                      9
                      A                      A                      A
 Frequencies --    226.4202               229.4887               275.5867
 Red. masses --      1.8471                 1.4536                 3.4028
 Frc consts  --      0.0558                 0.0451                 0.1523
 IR Inten    --      0.4480                 2.3594                 7.6247

                     10                     11                     12
                      A                      A                      A
 Frequencies --    338.4014               396.9607               478.2826
 Red. masses --      3.3272                 5.5680                 5.8435
 Frc consts  --      0.2245                 0.5169                 0.7876
 IR Inten    --      0.7528                 1.4280                 1.2931

                     13                     14                     15
                      A                      A                      A
 Frequencies --    528.2949               566.1129               616.2701
 Red. masses --      4.5468                 3.7533                 1.2354
 Frc consts  --      0.7477                 0.7087                 0.2764
 IR Inten    --     20.3186                 1.4119                43.3526

                     16                     17                     18
                      A                      A                      A
 Frequencies --    643.3229               651.4663               743.1702
 Red. masses --      1.2332                 3.1937                 2.8341
 Frc consts  --      0.3007                 0.7986                 0.9222
 IR Inten    --     43.2072                15.5825                 0.2350

                     19                     20                     21
                      A                      A                      A
 Frequencies --    878.5623               969.3034              1005.6881
 Red. masses --      2.3395                 1.7435                 4.1834
 Frc consts  --      1.0640                 0.9651                 2.4929
 IR Inten    --      1.1592                 6.0394                33.3935

                     22                     23                     24
                      A                      A                      A
 Frequencies --   1050.4122              1083.7798              1116.9658
 Red. masses --      1.9219                 2.8565                 1.5461
 Frc consts  --      1.2494                 1.9768                 1.1365
 IR Inten    --      3.6097                17.5536                 3.8014

                     25                     26                     27
                      A                      A                      A
 Frequencies --   1146.5436              1183.1608              1190.0881
 Red. masses --      3.3668                 1.2741                 3.3267
 Frc consts  --      2.6077                 1.0509                 2.7760
 IR Inten    --    122.7441                 3.2537                43.6945

                     28                     29                     30
                      A                      A                      A
 Frequencies --   1227.6466              1242.8663              1294.7342
 Red. masses --      1.6017                 1.2280                 1.5428
 Frc consts  --      1.4223                 1.1176                 1.5237
 IR Inten    --     39.5383                15.4256                14.7761

                     31                     32                     33
                      A                      A                      A
 Frequencies --   1315.0153              1384.7339              1408.9462
 Red. masses --      1.5567                 1.4579                 1.2102
 Frc consts  --      1.5861                 1.6471                 1.4154
 IR Inten    --     22.6735                 8.5746                 2.8310

                     34                     35                     36
                      A                      A                      A
 Frequencies --   1468.8979              1486.1105              1487.5173
 Red. masses --      1.0943                 1.0493                 1.0427
 Frc consts  --      1.3912                 1.3654                 1.3594
 IR Inten    --     15.4319                 6.2450                 5.9110

                     37                     38                     39
                      A                      A                      A
 Frequencies --   1490.3132              1492.1647              1512.7072
 Red. masses --      1.0985                 1.0479                 1.0817
 Frc consts  --      1.4374                 1.3747                 1.4583
 IR Inten    --      4.3181                 3.4263                 4.3179

                     40                     41                     42
                      A                      A                      A
 Frequencies --   1826.3383              2230.7416              2960.0394
 Red. masses --     12.1376                 5.9425                 1.0604
 Frc consts  --     23.8531                17.4227                 5.4742
 IR Inten    --    161.2548                 2.1923                27.4786

                     43                     44                     45
                      A                      A                      A
 Frequencies --   2980.1039              3017.1466              3028.7960
 Red. masses --      1.0382                 1.0950                 1.1040
 Frc consts  --      5.4325                 5.8728                 5.9672
 IR Inten    --     54.3373                48.0950                36.4570

                     46                     47                     48
                      A                      A                      A
 Frequencies --   3033.9373              3057.7496              3122.5173
 Red. masses --      1.0801                 1.0341                 1.0969
 Frc consts  --      5.8579                 5.6968                 6.3013
 IR Inten    --      2.2635                18.1061                23.2734

                     49                     50                     51
                      A                      A                      A
 Frequencies --   3133.7601              3142.9113              3504.6195
 Red. masses --      1.1030                 1.1024                 1.1614
 Frc consts  --      6.3821                 6.4157                 8.4044
 IR Inten    --     16.1886                11.5582                66.6344

 - Thermochemistry -
 -------------------
 Temperature   298.150 Kelvin.  Pressure   1.00000 Atm.
 Atom     1 has atomic number  6 and mass  12.00000

 Molecular mass:   126.06808 amu.
 Principal axes and moments of inertia in atomic units:
                           1         2         3
     Eigenvalues --   866.228231495.284241998.71102
           X            0.99977   0.00722  -0.02021
           Y           -0.00766   0.99973  -0.02177
           Z            0.02004   0.02192   0.99956
 This molecule is an asymmetric top.
 Rotational symmetry number  1.
 Warning -- assumption of classical behavior for rotation
           may cause significant error
 Rotational temperatures (Kelvin)      0.09999     0.05792     0.04333
 Rotational constants (GHZ):           2.08345     1.20696     0.90295
 Zero-point vibrational energy     405852.5 (Joules/Mol)
                                   97.00107 (Kcal/Mol)
 Warning -- explicit consideration of  15 degrees of freedom as
           vibrations may cause significant error
 Vibrational temperatures:     56.04   108.42   115.53   191.53   225.12
          (Kelvin)            288.40   325.77   330.18   396.51   486.88
                              571.14   688.14   760.10   814.51   886.67
                              925.60   937.31  1069.25  1264.05  1394.61
                             1446.96  1511.31  1559.32  1607.06  1649.62
                             1702.30  1712.27  1766.31  1788.21  1862.83
                             1892.01  1992.32  2027.16  2113.41  2138.18
                             2140.20  2144.23  2146.89  2176.45  2627.69
                             3209.54  4258.83  4287.70  4341.00  4357.76
                             4365.15  4399.41  4492.60  4508.78  4521.94
                             5042.36

 Zero-point correction=                           0.154581 (Hartree/Particle)
 Thermal correction to Energy=                    0.165382
 Thermal correction to Enthalpy=                  0.166326
 Thermal correction to Gibbs Free Energy=         0.117723
 Sum of electronic and zero-point Energies=           -422.995374
 Sum of electronic and thermal Energies=              -422.984573
 Sum of electronic and thermal Enthalpies=            -422.983629
 Sum of electronic and thermal Free Energies=         -423.032232

                     E (Thermal)             CV                S
                      KCal/Mol        Cal/Mol-Kelvin    Cal/Mol-Kelvin
 Total                  103.779             37.355            102.294
 Electronic               0.000              0.000              0.000
 Translational            0.889              2.981             40.409
 Rotational               0.889              2.981             29.339
 Vibrational            102.001             31.394             32.547
 Vibration     1          0.594              1.981              5.312
 Vibration     2          0.599              1.965              4.008
 Vibration     3          0.600              1.963              3.884
 Vibration     4          0.613              1.920              2.900
 Vibration     5          0.620              1.895              2.592
 Vibration     6          0.638              1.839              2.129
 Vibration     7          0.650              1.801              1.907
 Vibration     8          0.652              1.796              1.883
 Vibration     9          0.677              1.719              1.561
 Vibration    10          0.719              1.599              1.220
 Vibration    11          0.763              1.477              0.974
 Vibration    12          0.835              1.298              0.715
 Vibration    13          0.883              1.187              0.591
 Vibration    14          0.922              1.105              0.512
 Vibration    15          0.976              0.997              0.423

 Optimization completed.
    -- Stationary point found.
 Normal termination of Gaussian 09 at Tue Jan 28 12:51:46 2020.
