 Gaussian 09, Revision D.01,
 Gaussian 09:  ES64L-G09RevD.01 24-Apr-2013

 -----------------------------
 # b3lyp 6-31G(2df,p) opt Freq
 -----------------------------

 -----
 titel
 -----
 Symbolic Z-matrix:
 Charge =  0 Multiplicity = 1

 SCF Done:  E(RB3LYP) =  -423.213244674     A.U. after   14 cycles
 Optimization completed.
    -- Stationary point found.
 Normal termination of Gaussian 09 at Mon Jan 27 17:56:17 2020.

 ----------------------------------------------------------------------
 #N Geom=AllCheck Guess=TCheck SCRF=Check GenChk RB3LYP/6-31G(2df,p) Fr
 eq
 ----------------------------------------------------------------------

 Structure from the checkpoint file:  "/scratch/puck/g09_131a90ea-7ad1-4fae-a1fd-e173f8bdb32e/Gau-87971.chk"
 -----
 titel
 -----
 Charge =  0 Multiplicity = 1

                         Standard orientation:
 ---------------------------------------------------------------------
 Center     Atomic      Atomic             Coordinates (Angstroms)
 Number     Number       Type             X           Y           Z
 ---------------------------------------------------------------------
      1          6           0        2.247691   -0.769670   -0.313114
      2          6           0        0.811524   -0.419499   -0.022612
      3          8           0        0.200368   -1.147952    1.071225
      4          6           0       -0.291784   -1.381475   -0.246946
      5          6           0       -1.709558   -0.926111   -0.511707
      6          6           0       -2.012695    0.378473    0.234727
      7          6           0       -0.989438    1.467495   -0.105711
      8          6           0        0.476483    1.060672   -0.005466
      9          8           0        1.361428    1.885328    0.029113
     10          1           0        2.528460   -0.447522   -1.320519
     11          1           0        2.910426   -0.261425    0.391141
     12          1           0        2.395004   -1.848949   -0.229981
     13          1           0       -0.008763   -2.350662   -0.660932
     14          1           0       -1.840840   -0.797652   -1.594739
     15          1           0       -2.406880   -1.713514   -0.202904
     16          1           0       -3.019695    0.726954   -0.014680
     17          1           0       -1.995388    0.181782    1.310092
     18          1           0       -1.121591    1.783005   -1.152056
     19          1           0       -1.128438    2.369658    0.496847
 ---------------------------------------------------------------------

 SCF Done:  E(RB3LYP) =  -423.213244673     A.U. after    1 cycles

 The electronic state is 1-A.
 Alpha  occ. eigenvalues --  -19.16211 -19.13170 -10.27065 -10.24759 -10.24688
 Alpha  occ. eigenvalues --  -10.19785 -10.19499 -10.19304 -10.18149  -1.08183
 Alpha  occ. eigenvalues --   -1.04090  -0.81522  -0.75604  -0.73575  -0.67110
 Alpha  occ. eigenvalues --   -0.62656  -0.59341  -0.52241  -0.49805  -0.47772
 Alpha  occ. eigenvalues --   -0.46617  -0.44583  -0.43027  -0.41697  -0.41279
 Alpha  occ. eigenvalues --   -0.39275  -0.38751  -0.37023  -0.36703  -0.34491
 Alpha  occ. eigenvalues --   -0.33508  -0.29652  -0.28506  -0.24229
 Alpha virt. eigenvalues --   -0.02753   0.08408   0.10248   0.11275   0.12801
 Alpha virt. eigenvalues --    0.13021   0.13986   0.15002   0.16182   0.16480
 Alpha virt. eigenvalues --    0.17788   0.18146   0.19275   0.20323   0.21854

 Mulliken charges:
               1
     1  C   -0.468833
     2  C    0.271767
     3  O   -0.280651
     4  C    0.003756
     5  C   -0.245026
     6  C   -0.224258
     7  C   -0.303091
     8  C    0.356993
     9  O   -0.308766
    10  H    0.128322
    11  H    0.147142
    12  H    0.122424
    13  H    0.092431
    14  H    0.106859
    15  H    0.112352
    16  H    0.100361
    17  H    0.127153
    18  H    0.129826
    19  H    0.131241
 Sum of Mulliken charges =   0.00000

 Dipole moment (field-independent basis, Debye):
    X=             -2.0733    Y=             -1.4458    Z=             -1.7217  Tot=              3.0582
 Quadrupole moment (field-independent basis, Debye-Ang):
   XX=            -52.2865   YY=            -55.8716   ZZ=            -53.6484
   XY=             -4.3312   XZ=             -0.2458   YZ=              2.1337

  Exact polarizability:  86.797   3.169  79.549   0.421   1.647  59.496
 Approx polarizability: 117.179  13.946 117.239   1.475  -1.048  99.360

                      1                      2                      3
                      A                      A                      A
 Frequencies --     62.7511               166.3405               203.9348
 Red. masses --      3.5907                 1.2540                 1.7752
 Frc consts  --      0.0083                 0.0204                 0.0435
 IR Inten    --      4.2713                 0.3513                 0.7333

                      4                      5                      6
                      A                      A                      A
 Frequencies --    256.9654               296.7956               306.4551
 Red. masses --      3.6974                 2.0307                 2.8588
 Frc consts  --      0.1438                 0.1054                 0.1582
 IR Inten    --      6.6908                 1.1688                 0.8772

                      7                      8                      9
                      A                      A                      A
 Frequencies --    372.3309               414.4976               487.2803
 Red. masses --      4.0294                 3.2722                 4.1144
 Frc consts  --      0.3291                 0.3312                 0.5756
 IR Inten    --      0.2109                 5.6079                14.9010

                     10                     11                     12
                      A                      A                      A
 Frequencies --    527.8179               602.2883               631.9788
 Red. masses --      3.6426                 2.6735                 3.7792
 Frc consts  --      0.5979                 0.5714                 0.8893
 IR Inten    --      7.2509                 1.6366                 1.7306

                     13                     14                     15
                      A                      A                      A
 Frequencies --    670.0967               780.8130               828.7923
 Red. masses --      3.0317                 4.0390                 2.0749
 Frc consts  --      0.8021                 1.4508                 0.8397
 IR Inten    --      3.3568                 4.4467                 8.7491

                     16                     17                     18
                      A                      A                      A
 Frequencies --    864.9199               885.0942               915.3440
 Red. masses --      2.4191                 2.2162                 2.2063
 Frc consts  --      1.0662                 1.0229                 1.0891
 IR Inten    --      3.7143                13.9039                17.0378

                     19                     20                     21
                      A                      A                      A
 Frequencies --    962.9484              1028.4595              1059.8600
 Red. masses --      2.5474                 1.4976                 1.7989
 Frc consts  --      1.3917                 0.9333                 1.1906
 IR Inten    --      1.9887                 2.3713                 4.8236

                     22                     23                     24
                      A                      A                      A
 Frequencies --   1070.9798              1079.5558              1116.3453
 Red. masses --      1.5821                 1.8262                 2.8413
 Frc consts  --      1.0692                 1.2540                 2.0863
 IR Inten    --      9.2109                13.1839                34.0871

                     25                     26                     27
                      A                      A                      A
 Frequencies --   1128.9123              1193.1960              1222.4695
 Red. masses --      1.8122                 1.4486                 1.5356
 Frc consts  --      1.3607                 1.2151                 1.3521
 IR Inten    --     12.3314                 4.3727                 2.4656

                     28                     29                     30
                      A                      A                      A
 Frequencies --   1278.0186              1298.9867              1335.6238
 Red. masses --      1.2790                 1.6313                 2.3592
 Frc consts  --      1.2308                 1.6218                 2.4796
 IR Inten    --      2.6175                 2.6648                13.4422

                     31                     32                     33
                      A                      A                      A
 Frequencies --   1355.3659              1373.4571              1383.4981
 Red. masses --      1.4925                 1.5867                 1.4479
 Frc consts  --      1.6154                 1.7635                 1.6328
 IR Inten    --      3.5900                 1.0266                 3.6668

                     34                     35                     36
                      A                      A                      A
 Frequencies --   1411.3779              1447.4019              1455.4619
 Red. masses --      1.2875                 1.0942                 2.0905
 Frc consts  --      1.5110                 1.3505                 2.6091
 IR Inten    --      6.7302                 4.1672                 7.5116

                     37                     38                     39
                      A                      A                      A
 Frequencies --   1476.0467              1483.6055              1493.1676
 Red. masses --      1.0868                 1.0913                 1.1017
 Frc consts  --      1.3951                 1.4152                 1.4471
 IR Inten    --     10.8626                 2.4080                 6.4852

                     40                     41                     42
                      A                      A                      A
 Frequencies --   1496.4621              1799.7806              3006.4426
 Red. masses --      1.2266                12.5052                 1.0700
 Frc consts  --      1.6184                23.8661                 5.6980
 IR Inten    --      2.8541               170.3272                10.2393

                     43                     44                     45
                      A                      A                      A
 Frequencies --   3021.4070              3050.1733              3053.9403
 Red. masses --      1.0623                 1.0356                 1.0692
 Frc consts  --      5.7138                 5.6768                 5.8752
 IR Inten    --     24.0080                12.5598                14.2520

                     46                     47                     48
                      A                      A                      A
 Frequencies --   3064.7254              3090.8534              3099.6667
 Red. masses --      1.0918                 1.0908                 1.0880
 Frc consts  --      6.0422                 6.1400                 6.1590
 IR Inten    --     38.5906                15.1748                29.5573

                     49                     50                     51
                      A                      A                      A
 Frequencies --   3103.9577              3120.6832              3137.1044
 Red. masses --      1.1017                 1.0998                 1.1029
 Frc consts  --      6.2539                 6.3105                 6.3950
 IR Inten    --     20.1740                11.8556                11.0243

 - Thermochemistry -
 -------------------
 Temperature   298.150 Kelvin.  Pressure   1.00000 Atm.
 Atom     1 has atomic number  6 and mass  12.00000

 Molecular mass:   126.06808 amu.
 Principal axes and moments of inertia in atomic units:
                           1         2         3
     Eigenvalues --   768.33913 989.347881526.34644
           X            0.99194  -0.12658  -0.00589
           Y            0.12668   0.99167   0.02317
           Z            0.00291  -0.02373   0.99971
 This molecule is an asymmetric top.
 Rotational symmetry number  1.
 Warning -- assumption of classical behavior for rotation
           may cause significant error
 Rotational temperatures (Kelvin)      0.11273     0.08755     0.05675
 Rotational constants (GHZ):           2.34889     1.82417     1.18239
 Zero-point vibrational energy     418540.0 (Joules/Mol)
                                  100.03347 (Kcal/Mol)
 Warning -- explicit consideration of  11 degrees of freedom as
           vibrations may cause significant error
 Vibrational temperatures:     90.28   239.33   293.42   369.72   427.02
          (Kelvin)            440.92   535.70   596.37   701.09   759.41
                              866.56   909.28   964.12  1123.41  1192.45
                             1244.43  1273.45  1316.97  1385.47  1479.72
                             1524.90  1540.90  1553.24  1606.17  1624.25
                             1716.74  1758.86  1838.78  1868.95  1921.66
                             1950.07  1976.10  1990.54  2030.66  2082.49
                             2094.08  2123.70  2134.57  2148.33  2153.07
                             2589.48  4325.59  4347.13  4388.51  4393.93
                             4409.45  4447.04  4459.72  4465.90  4489.96
                             4513.59

 Zero-point correction=                           0.159413 (Hartree/Particle)
 Thermal correction to Energy=                    0.167697
 Thermal correction to Enthalpy=                  0.168641
 Thermal correction to Gibbs Free Energy=         0.126579
 Sum of electronic and zero-point Energies=           -423.053831
 Sum of electronic and thermal Energies=              -423.045547
 Sum of electronic and thermal Enthalpies=            -423.044603
 Sum of electronic and thermal Free Energies=         -423.086666

                     E (Thermal)             CV                S
                      KCal/Mol        Cal/Mol-Kelvin    Cal/Mol-Kelvin
 Total                  105.232             31.913             88.529
 Electronic               0.000              0.000              0.000
 Translational            0.889              2.981             40.409
 Rotational               0.889              2.981             28.541
 Vibrational            103.454             25.952             19.579
 Vibration     1          0.597              1.972              4.369
 Vibration     2          0.624              1.884              2.476
 Vibration     3          0.640              1.834              2.097
 Vibration     4          0.667              1.751              1.682
 Vibration     5          0.690              1.680              1.435
 Vibration     6          0.697              1.661              1.381
 Vibration     7          0.744              1.529              1.070
 Vibration     8          0.778              1.439              0.911
 Vibration     9          0.843              1.278              0.691
 Vibration    10          0.883              1.188              0.592
 Vibration    11          0.961              1.027              0.446

 Normal termination of Gaussian 09 at Mon Jan 27 18:39:16 2020.
