 Gaussian 09, Revision D.01,
 Gaussian 09:  ES64L-G09RevD.01 24-Apr-2013

 -----------------------------
 # b3lyp 6-31G(2df,p) opt Freq
 -----------------------------

 -----
 titel
 -----
 Symbolic Z-matrix:
 Charge =  0 Multiplicity = 1

 SCF Done:  E(RB3LYP) =  -423.131409570     A.U. after   12 cycles
 Optimization completed.
    -- Stationary point found.
 Normal termination of Gaussian 09 at Mon Jan 27 22:04:01 2020.

 ----------------------------------------------------------------------
 #N Geom=AllCheck Guess=TCheck SCRF=Check GenChk RB3LYP/6-31G(2df,p) Fr
 eq
 ----------------------------------------------------------------------

 Structure from the checkpoint file:  "/scratch/puck/g09_2ed65692-2bef-4cd3-8de4-37c08b66eb67/Gau-62984.chk"
 -----
 titel
 -----
 Charge =  0 Multiplicity = 1

                         Standard orientation:
 ---------------------------------------------------------------------
 Center     Atomic      Atomic             Coordinates (Angstroms)
 Number     Number       Type             X           Y           Z
 ---------------------------------------------------------------------
      1          8           0        0.274487    2.001963   -0.182706
      2          6           0        0.155517    0.672857   -0.676109
      3          6           0        1.232504   -0.234800   -0.065769
      4          8           0        2.456756    0.266866    0.302570
      5          6           0        1.018006   -1.669740   -0.375050
      6          6           0        0.150956   -1.032628    0.701887
      7          6           0       -0.914386   -0.184169    0.032608
      8          6           0       -2.259966   -0.599566   -0.483818
      9          6           0       -2.155277    0.377291    0.668800
     10          1           0       -0.131748    2.018213    0.691885
     11          1           0        0.121595    0.748514   -1.768406
     12          1           0        2.304453    1.208163    0.470177
     13          1           0        0.583982   -1.998444   -1.318161
     14          1           0        1.801859   -2.316595    0.008392
     15          1           0        0.122476   -1.411435    1.716669
     16          1           0       -2.586806   -0.211700   -1.443079
     17          1           0       -2.598798   -1.607665   -0.268063
     18          1           0       -2.408740    1.415601    0.474922
     19          1           0       -2.422346    0.029252    1.661460
 ---------------------------------------------------------------------

 SCF Done:  E(RB3LYP) =  -423.131409570     A.U. after    1 cycles

 The electronic state is 1-A.
 Alpha  occ. eigenvalues --  -19.15120 -19.14430 -10.23673 -10.23634 -10.20358
 Alpha  occ. eigenvalues --  -10.19413 -10.18904 -10.18845 -10.18538  -1.04489
 Alpha  occ. eigenvalues --   -1.01979  -0.89435  -0.83802  -0.70155  -0.63141
 Alpha  occ. eigenvalues --   -0.60778  -0.57597  -0.55160  -0.53189  -0.49625
 Alpha  occ. eigenvalues --   -0.47490  -0.46443  -0.44651  -0.42703  -0.38616
 Alpha  occ. eigenvalues --   -0.37449  -0.37025  -0.34806  -0.33804  -0.31444
 Alpha  occ. eigenvalues --   -0.31104  -0.27887  -0.26444  -0.22317
 Alpha virt. eigenvalues --    0.06937   0.08992   0.09930   0.10507   0.11701
 Alpha virt. eigenvalues --    0.12940   0.13882   0.14717   0.16476   0.16942
 Alpha virt. eigenvalues --    0.17714   0.18678   0.21646   0.22275   0.23284

 Mulliken charges:
               1
     1  O   -0.444203
     2  C   -0.042856
     3  C    0.425890
     4  O   -0.460060
     5  C   -0.336365
     6  C   -0.261078
     7  C    0.356344
     8  C   -0.328117
     9  C   -0.354877
    10  H    0.286248
    11  H    0.082651
    12  H    0.286681
    13  H    0.105283
    14  H    0.121914
    15  H    0.090810
    16  H    0.117113
    17  H    0.116617
    18  H    0.119662
    19  H    0.118343
 Sum of Mulliken charges =   0.00000

 Dipole moment (field-independent basis, Debye):
    X=             -1.7309    Y=             -0.1273    Z=              0.8786  Tot=              1.9453
 Quadrupole moment (field-independent basis, Debye-Ang):
   XX=            -57.5858   YY=            -52.9445   ZZ=            -50.6122
   XY=              0.1783   XZ=              0.0402   YZ=              2.4468

  Exact polarizability:  84.421  -0.955  76.364  -0.959   2.041  66.883
 Approx polarizability: 115.580   1.714 112.550  -2.815   2.916 104.166

                      1                      2                      3
                      A                      A                      A
 Frequencies --    104.9119               205.3144               228.8175
 Red. masses --      4.3225                 3.6360                 2.2676
 Frc consts  --      0.0280                 0.0903                 0.0700
 IR Inten    --      0.3750                 3.3724                 0.8697

                      4                      5                      6
                      A                      A                      A
 Frequencies --    237.8986               284.8866               305.1239
 Red. masses --      4.6097                 2.2476                 1.1883
 Frc consts  --      0.1537                 0.1075                 0.0652
 IR Inten    --     18.8732                 3.7173                68.3107

                      7                      8                      9
                      A                      A                      A
 Frequencies --    391.7736               414.3800               470.7562
 Red. masses --      3.3260                 2.5588                 3.6300
 Frc consts  --      0.3008                 0.2589                 0.4740
 IR Inten    --      2.2204                 5.9548                 0.7077

                     10                     11                     12
                      A                      A                      A
 Frequencies --    505.9747               537.7417               589.1369
 Red. masses --      1.2566                 2.7519                 3.7240
 Frc consts  --      0.1895                 0.4688                 0.7615
 IR Inten    --     83.9391                10.9425                16.4545

                     13                     14                     15
                      A                      A                      A
 Frequencies --    694.6793               786.1956               822.5041
 Red. masses --      2.9207                 1.0614                 3.2075
 Frc consts  --      0.8304                 0.3865                 1.2785
 IR Inten    --      1.2840                 1.2024                12.7377

                     16                     17                     18
                      A                      A                      A
 Frequencies --    856.9407               879.5820               909.2336
 Red. masses --      1.6841                 3.6648                 1.7643
 Frc consts  --      0.7287                 1.6705                 0.8594
 IR Inten    --      5.5294                23.5714                 8.4988

                     19                     20                     21
                      A                      A                      A
 Frequencies --    931.1684               937.6179               967.8278
 Red. masses --      1.6597                 1.5023                 2.8284
 Frc consts  --      0.8479                 0.7781                 1.5610
 IR Inten    --      9.3776                 0.9906                 5.5664

                     22                     23                     24
                      A                      A                      A
 Frequencies --    989.9193              1001.1374              1048.0114
 Red. masses --      2.6400                 1.6379                 1.4570
 Frc consts  --      1.5242                 0.9672                 0.9429
 IR Inten    --     10.6262                 9.0765                 4.6854

                     25                     26                     27
                      A                      A                      A
 Frequencies --   1055.3092              1080.1101              1100.2349
 Red. masses --      2.0260                 1.4067                 1.5274
 Frc consts  --      1.3294                 0.9669                 1.0893
 IR Inten    --     66.9902                 1.7032                22.4884

                     28                     29                     30
                      A                      A                      A
 Frequencies --   1110.2469              1174.9409              1190.5503
 Red. masses --      2.9657                 1.6927                 1.2721
 Frc consts  --      2.1539                 1.3768                 1.0623
 IR Inten    --     22.5639                37.1288                 1.2457

                     31                     32                     33
                      A                      A                      A
 Frequencies --   1205.8188              1227.3230              1258.3751
 Red. masses --      1.4912                 1.6145                 2.6033
 Frc consts  --      1.2775                 1.4329                 2.4288
 IR Inten    --      8.9979                 3.2553                 5.0928

                     34                     35                     36
                      A                      A                      A
 Frequencies --   1275.6365              1365.9789              1379.6045
 Red. masses --      1.3793                 2.4856                 2.0079
 Frc consts  --      1.3224                 2.7326                 2.2516
 IR Inten    --     42.1289               161.8707                16.4724

                     37                     38                     39
                      A                      A                      A
 Frequencies --   1414.4280              1438.1290              1461.7820
 Red. masses --      1.4933                 1.4835                 1.0879
 Frc consts  --      1.7602                 1.8077                 1.3697
 IR Inten    --     76.3792                18.4222                 2.0293

                     40                     41                     42
                      A                      A                      A
 Frequencies --   1497.3328              1510.0555              3051.3879
 Red. masses --      1.5084                 1.7847                 1.0863
 Frc consts  --      1.9926                 2.3978                 5.9594
 IR Inten    --      4.0920                17.9078                43.7888

                     43                     44                     45
                      A                      A                      A
 Frequencies --   3092.7210              3119.6656              3127.0422
 Red. masses --      1.0584                 1.0520                 1.0557
 Frc consts  --      5.9644                 6.0324                 6.0823
 IR Inten    --     23.7716                14.6697                12.3297

                     46                     47                     48
                      A                      A                      A
 Frequencies --   3181.0601              3193.3945              3200.3135
 Red. masses --      1.0958                 1.1081                 1.1175
 Frc consts  --      6.5330                 6.6578                 6.7437
 IR Inten    --      6.3012                12.3473                 0.7884

                     49                     50                     51
                      A                      A                      A
 Frequencies --   3216.1808              3736.3844              3794.1278
 Red. masses --      1.1158                 1.0647                 1.0656
 Frc consts  --      6.8004                 8.7572                 9.0375
 IR Inten    --     13.0632                44.5427                16.3921

 - Thermochemistry -
 -------------------
 Temperature   298.150 Kelvin.  Pressure   1.00000 Atm.
 Atom     1 has atomic number  8 and mass  15.99491

 Molecular mass:   126.06808 amu.
 Principal axes and moments of inertia in atomic units:
                           1         2         3
     Eigenvalues --   654.586721168.476791558.55671
           X            0.99994  -0.01073  -0.00213
           Y            0.01077   0.99973   0.02078
           Z            0.00191  -0.02081   0.99978
 This molecule is an asymmetric top.
 Rotational symmetry number  1.
 Warning -- assumption of classical behavior for rotation
           may cause significant error
 Rotational temperatures (Kelvin)      0.13232     0.07413     0.05557
 Rotational constants (GHZ):           2.75707     1.54452     1.15796
 Zero-point vibrational energy     416059.2 (Joules/Mol)
                                   99.44054 (Kcal/Mol)
 Warning -- explicit consideration of  12 degrees of freedom as
           vibrations may cause significant error
 Vibrational temperatures:    150.94   295.40   329.22   342.28   409.89
          (Kelvin)            439.00   563.67   596.20   677.31   727.98
                              773.69   847.64   999.49  1131.16  1183.40
                             1232.94  1265.52  1308.18  1339.74  1349.02
                             1392.49  1424.27  1440.41  1507.85  1518.35
                             1554.04  1582.99  1597.40  1690.48  1712.93
                             1734.90  1765.84  1810.52  1835.35  1965.34
                             1984.94  2035.04  2069.14  2103.18  2154.33
                             2172.63  4390.26  4449.73  4488.50  4499.11
                             4576.83  4594.58  4604.53  4627.36  5375.82
                             5458.90

 Zero-point correction=                           0.158469 (Hartree/Particle)
 Thermal correction to Energy=                    0.166825
 Thermal correction to Enthalpy=                  0.167769
 Thermal correction to Gibbs Free Energy=         0.126082
 Sum of electronic and zero-point Energies=           -422.972941
 Sum of electronic and thermal Energies=              -422.964584
 Sum of electronic and thermal Enthalpies=            -422.963640
 Sum of electronic and thermal Free Energies=         -423.005327

                     E (Thermal)             CV                S
                      KCal/Mol        Cal/Mol-Kelvin    Cal/Mol-Kelvin
 Total                  104.684             33.486             87.738
 Electronic               0.000              0.000              0.000
 Translational            0.889              2.981             40.409
 Rotational               0.889              2.981             28.568
 Vibrational            102.907             27.524             18.761
 Vibration     1          0.605              1.945              3.361
 Vibration     2          0.640              1.832              2.085
 Vibration     3          0.651              1.797              1.888
 Vibration     4          0.656              1.783              1.819
 Vibration     5          0.683              1.702              1.504
 Vibration     6          0.696              1.664              1.389
 Vibration     7          0.759              1.488              0.993
 Vibration     8          0.778              1.439              0.911
 Vibration     9          0.828              1.315              0.735
 Vibration    10          0.861              1.237              0.643
 Vibration    11          0.893              1.167              0.570
 Vibration    12          0.946              1.055              0.469

 Optimization completed.
    -- Stationary point found.
 Normal termination of Gaussian 09 at Mon Jan 27 22:49:52 2020.
