 Gaussian 09, Revision D.01,
 Gaussian 09:  ES64L-G09RevD.01 24-Apr-2013

 -----------------------------
 # b3lyp 6-31G(2df,p) opt Freq
 -----------------------------

 -----
 titel
 -----
 Symbolic Z-matrix:
 Charge =  0 Multiplicity = 1

 SCF Done:  E(RB3LYP) =  -423.095020366     A.U. after   14 cycles
 Optimization completed.
    -- Stationary point found.
 Normal termination of Gaussian 09 at Mon Jan 27 17:06:28 2020.

 ----------------------------------------------------------------------
 #N Geom=AllCheck Guess=TCheck SCRF=Check GenChk RB3LYP/6-31G(2df,p) Fr
 eq
 ----------------------------------------------------------------------

 Structure from the checkpoint file:  "/scratch/puck/g09_57412876-b95c-4607-9fb9-bbf3c6be8b32/Gau-178987.chk"
 -----
 titel
 -----
 Charge =  0 Multiplicity = 1

                         Standard orientation:
 ---------------------------------------------------------------------
 Center     Atomic      Atomic             Coordinates (Angstroms)
 Number     Number       Type             X           Y           Z
 ---------------------------------------------------------------------
      1          6           0       -1.484312    1.763081    0.282634
      2          6           0       -1.020930    0.351021    0.116722
      3          6           0       -1.430624   -0.936553    0.883409
      4          6           0       -0.585534   -1.337122   -0.344542
      5          8           0       -1.344653   -0.358466   -1.159112
      6          6           0        0.416181   -0.217729   -0.016340
      7          6           0        1.469962    0.319396   -0.986737
      8          8           0        2.470698    0.307181    0.059713
      9          6           0        1.539866   -0.211008    1.031120
     10          1           0       -1.180393    2.148874    1.260969
     11          1           0       -1.053927    2.404882   -0.492215
     12          1           0       -2.574613    1.818722    0.212238
     13          1           0       -1.011927   -1.100496    1.880476
     14          1           0       -2.488943   -1.193085    0.817285
     15          1           0       -0.406977   -2.321001   -0.778878
     16          1           0        1.734886   -0.343369   -1.819398
     17          1           0        1.296264    1.329643   -1.377673
     18          1           0        1.845436   -1.193517    1.415018
     19          1           0        1.404182    0.473123    1.879780
 ---------------------------------------------------------------------

 SCF Done:  E(RB3LYP) =  -423.095020366     A.U. after    1 cycles

 The electronic state is 1-A.
 Alpha  occ. eigenvalues --  -19.13340 -19.13192 -10.25529 -10.24902 -10.23168
 Alpha  occ. eigenvalues --  -10.22690 -10.20526 -10.19568 -10.19014  -1.05834
 Alpha  occ. eigenvalues --   -1.03396  -0.80021  -0.74914  -0.71517  -0.69120
 Alpha  occ. eigenvalues --   -0.61936  -0.60780  -0.52565  -0.48921  -0.48463
 Alpha  occ. eigenvalues --   -0.47647  -0.45601  -0.43875  -0.41983  -0.40483
 Alpha  occ. eigenvalues --   -0.40064  -0.37455  -0.36469  -0.32586  -0.31668
 Alpha  occ. eigenvalues --   -0.31255  -0.30765  -0.24753  -0.23846
 Alpha virt. eigenvalues --    0.07717   0.08038   0.09399   0.10274   0.11528
 Alpha virt. eigenvalues --    0.11965   0.13592   0.14338   0.14877   0.15334
 Alpha virt. eigenvalues --    0.16630   0.17493   0.18453   0.19437   0.21402

 Mulliken charges:
               1
     1  C   -0.516581
     2  C    0.329658
     3  C   -0.273549
     4  C   -0.029644
     5  O   -0.351906
     6  C    0.337485
     7  C   -0.162371
     8  O   -0.278485
     9  C   -0.178841
    10  H    0.130369
    11  H    0.137106
    12  H    0.138198
    13  H    0.099091
    14  H    0.107335
    15  H    0.096280
    16  H    0.107504
    17  H    0.105097
    18  H    0.102708
    19  H    0.100546
 Sum of Mulliken charges =   0.00000

 Dipole moment (field-independent basis, Debye):
    X=             -1.0863    Y=             -0.2496    Z=              1.5394  Tot=              1.9006
 Quadrupole moment (field-independent basis, Debye-Ang):
   XX=            -60.8315   YY=            -49.5705   ZZ=            -53.1019
   XY=             -2.5061   XZ=             -3.1498   YZ=             -0.3040

  Exact polarizability:  77.620  -1.018  74.917  -1.925  -1.096  72.918
 Approx polarizability: 107.517  -0.886 108.074   1.476  -1.020 113.339

                      1                      2                      3
                      A                      A                      A
 Frequencies --     75.5296               173.6523               190.2726
 Red. masses --      3.9720                 1.4099                 2.0936
 Frc consts  --      0.0134                 0.0250                 0.0447
 IR Inten    --      4.6881                 1.8641                 0.2734

                      4                      5                      6
                      A                      A                      A
 Frequencies --    206.1793               217.4414               335.0996
 Red. masses --      2.2152                 2.2008                 2.6691
 Frc consts  --      0.0555                 0.0613                 0.1766
 IR Inten    --      1.3418                 1.9425                 3.3395

                      7                      8                      9
                      A                      A                      A
 Frequencies --    393.5618               437.9599               550.6986
 Red. masses --      2.3260                 3.9147                 2.5670
 Frc consts  --      0.2123                 0.4424                 0.4587
 IR Inten    --      0.5412                 1.3625                 3.7925

                     10                     11                     12
                      A                      A                      A
 Frequencies --    637.4539               652.9883               710.3303
 Red. masses --      3.3727                 3.5358                 3.9705
 Frc consts  --      0.8075                 0.8883                 1.1803
 IR Inten    --      2.4282                 7.5364                16.2488

                     13                     14                     15
                      A                      A                      A
 Frequencies --    778.8509               860.0630               875.1463
 Red. masses --      2.5912                 3.9499                 2.5453
 Frc consts  --      0.9261                 1.7214                 1.1486
 IR Inten    --      1.9019                10.8658                20.3262

                     16                     17                     18
                      A                      A                      A
 Frequencies --    907.1805               946.7034               958.8310
 Red. masses --      2.7741                 2.2458                 1.3228
 Frc consts  --      1.3451                 1.1859                 0.7165
 IR Inten    --      6.8952                 6.2907                 0.5156

                     19                     20                     21
                      A                      A                      A
 Frequencies --    982.9020              1012.7723              1021.8571
 Red. masses --      4.2662                 1.7927                 1.3312
 Frc consts  --      2.4283                 1.0834                 0.8190
 IR Inten    --     11.7530                14.7095                11.9667

                     22                     23                     24
                      A                      A                      A
 Frequencies --   1029.6085              1103.5469              1131.4251
 Red. masses --      4.6469                 1.8648                 1.7523
 Frc consts  --      2.9024                 1.3380                 1.3216
 IR Inten    --     58.4849                 7.9745                 4.9889

                     25                     26                     27
                      A                      A                      A
 Frequencies --   1144.0813              1150.2837              1159.2200
 Red. masses --      1.9166                 1.1205                 2.2380
 Frc consts  --      1.4781                 0.8735                 1.7719
 IR Inten    --     14.2763                 1.0461                 8.5986

                     28                     29                     30
                      A                      A                      A
 Frequencies --   1167.9949              1181.6546              1215.9138
 Red. masses --      1.6967                 1.7640                 1.8229
 Frc consts  --      1.3638                 1.4512                 1.5879
 IR Inten    --      5.0154                 5.0732                10.9535

                     31                     32                     33
                      A                      A                      A
 Frequencies --   1233.3954              1293.3941              1305.7933
 Red. masses --      1.6873                 2.2570                 1.4651
 Frc consts  --      1.5123                 2.2245                 1.4718
 IR Inten    --     10.4794                 8.9798                 1.5125

                     34                     35                     36
                      A                      A                      A
 Frequencies --   1347.8203              1393.7954              1420.4948
 Red. masses --      1.8690                 1.7299                 1.9018
 Frc consts  --      2.0005                 1.9800                 2.2610
 IR Inten    --      8.6745                 1.4738                18.0338

                     37                     38                     39
                      A                      A                      A
 Frequencies --   1475.6727              1487.8688              1493.1947
 Red. masses --      1.0530                 1.0570                 1.2914
 Frc consts  --      1.3510                 1.3786                 1.6965
 IR Inten    --      3.1876                 5.8913                 4.2639

                     40                     41                     42
                      A                      A                      A
 Frequencies --   1504.9394              1529.6251              2997.1835
 Red. masses --      1.0812                 1.1106                 1.0534
 Frc consts  --      1.4428                 1.5310                 5.5755
 IR Inten    --      0.0423                 0.4544                84.0087

                     43                     44                     45
                      A                      A                      A
 Frequencies --   3017.1303              3037.6814              3039.5747
 Red. masses --      1.0569                 1.1053                 1.0391
 Frc consts  --      5.6684                 6.0092                 5.6562
 IR Inten    --     23.6051                27.2415                24.0017

                     46                     47                     48
                      A                      A                      A
 Frequencies --   3057.1288              3057.4657              3112.9556
 Red. masses --      1.0612                 1.1056                 1.1010
 Frc consts  --      5.8433                 6.0893                 6.2863
 IR Inten    --     29.9986                42.1895                11.2104

                     49                     50                     51
                      A                      A                      A
 Frequencies --   3116.3093              3118.9956              3141.5706
 Red. masses --      1.1016                 1.0935                 1.1088
 Frc consts  --      6.3031                 6.2674                 6.4474
 IR Inten    --     10.3274                46.5595                24.8398

 - Thermochemistry -
 -------------------
 Temperature   298.150 Kelvin.  Pressure   1.00000 Atm.
 Atom     1 has atomic number  6 and mass  12.00000

 Molecular mass:   126.06808 amu.
 Principal axes and moments of inertia in atomic units:
                           1         2         3
     Eigenvalues --   632.856701260.201831355.70333
           X            0.99928  -0.03036  -0.02281
           Y            0.02936   0.99865  -0.04295
           Z            0.02409   0.04225   0.99882
 This molecule is an asymmetric top.
 Rotational symmetry number  1.
 Warning -- assumption of classical behavior for rotation
           may cause significant error
 Rotational temperatures (Kelvin)      0.13686     0.06873     0.06389
 Rotational constants (GHZ):           2.85174     1.43210     1.33122
 Zero-point vibrational energy     415051.5 (Joules/Mol)
                                   99.19969 (Kcal/Mol)
 Warning -- explicit consideration of   9 degrees of freedom as
           vibrations may cause significant error
 Vibrational temperatures:    108.67   249.85   273.76   296.65   312.85
          (Kelvin)            482.13   566.25   630.13   792.33   917.15
                              939.50  1022.01  1120.59  1237.44  1259.14
                             1305.23  1362.09  1379.54  1414.18  1457.15
                             1470.22  1481.38  1587.76  1627.87  1646.08
                             1655.00  1667.86  1680.48  1700.14  1749.43
                             1774.58  1860.90  1878.74  1939.21  2005.36
                             2043.77  2123.16  2140.71  2148.37  2165.27
                             2200.79  4312.27  4340.97  4370.54  4373.26
                             4398.52  4399.01  4478.84  4483.67  4487.53
                             4520.01

 Zero-point correction=                           0.158085 (Hartree/Particle)
 Thermal correction to Energy=                    0.166238
 Thermal correction to Enthalpy=                  0.167183
 Thermal correction to Gibbs Free Energy=         0.125333
 Sum of electronic and zero-point Energies=           -422.936936
 Sum of electronic and thermal Energies=              -422.928782
 Sum of electronic and thermal Enthalpies=            -422.927838
 Sum of electronic and thermal Free Energies=         -422.969687

                     E (Thermal)             CV                S
                      KCal/Mol        Cal/Mol-Kelvin    Cal/Mol-Kelvin
 Total                  104.316             31.272             88.079
 Electronic               0.000              0.000              0.000
 Translational            0.889              2.981             40.409
 Rotational               0.889              2.981             28.471
 Vibrational            102.539             25.310             19.199
 Vibration     1          0.599              1.965              4.004
 Vibration     2          0.627              1.875              2.396
 Vibration     3          0.634              1.853              2.225
 Vibration     4          0.641              1.831              2.077
 Vibration     5          0.646              1.814              1.980
 Vibration     6          0.716              1.605              1.235
 Vibration     7          0.761              1.484              0.987
 Vibration     8          0.798              1.387              0.833
 Vibration     9          0.906              1.138              0.543

 Optimization completed.
    -- Stationary point found.
 Normal termination of Gaussian 09 at Mon Jan 27 17:49:06 2020.
