 Gaussian 09, Revision D.01,
 Gaussian 09:  ES64L-G09RevD.01 24-Apr-2013

 -----------------------------
 # b3lyp 6-31G(2df,p) opt Freq
 -----------------------------

 -----
 titel
 -----
 Symbolic Z-matrix:
 Charge =  0 Multiplicity = 1

 SCF Done:  E(RB3LYP) =  -423.130846113     A.U. after   14 cycles
 SCF Done:  E(RB3LYP) =  -423.130845505     A.U. after    8 cycles
 SCF Done:  E(RB3LYP) =  -423.130846429     A.U. after    8 cycles
 SCF Done:  E(RB3LYP) =  -423.130846656     A.U. after    7 cycles
 SCF Done:  E(RB3LYP) =  -423.130846682     A.U. after    7 cycles
 Optimization completed.
    -- Stationary point found.
 Normal termination of Gaussian 09 at Tue Jan 28 09:01:11 2020.

 ----------------------------------------------------------------------
 #N Geom=AllCheck Guess=TCheck SCRF=Check GenChk RB3LYP/6-31G(2df,p) Fr
 eq
 ----------------------------------------------------------------------

 Structure from the checkpoint file:  "/scratch/puck/g09_80e2b96f-3a45-493d-b1b3-834bf9cb7ae4/Gau-60110.chk"
 -----
 titel
 -----
 Charge =  0 Multiplicity = 1

                         Standard orientation:
 ---------------------------------------------------------------------
 Center     Atomic      Atomic             Coordinates (Angstroms)
 Number     Number       Type             X           Y           Z
 ---------------------------------------------------------------------
      1          6           0       -3.944963   -0.216597   -0.094698
      2          6           0       -2.505712   -0.062249    0.062263
      3          6           0       -1.317114    0.065634    0.208619
      4          6           0        0.126350    0.239241    0.336224
      5          6           0        0.591313    1.616081   -0.210660
      6          8           0        1.908280    1.922157    0.183463
      7          6           0        0.851405   -0.890355   -0.388848
      8          6           0        1.590460   -1.938019    0.321224
      9          8           0        2.287520   -0.865597   -0.326954
     10          1           0       -4.469859   -0.022664    0.847092
     11          1           0       -4.340337    0.478232   -0.843716
     12          1           0       -4.203510   -1.231791   -0.415306
     13          1           0        0.415488    0.218010    1.395222
     14          1           0        0.468796    1.624415   -1.306396
     15          1           0       -0.056133    2.397942    0.196592
     16          1           0        2.456025    1.153108   -0.019552
     17          1           0        0.461786   -1.113824   -1.381899
     18          1           0        1.622550   -1.923563    1.409271
     19          1           0        1.728363   -2.914767   -0.138127
 ---------------------------------------------------------------------

 SCF Done:  E(RB3LYP) =  -423.130846682     A.U. after    1 cycles

 The electronic state is 1-A.
 Alpha  occ. eigenvalues --  -19.16708 -19.12195 -10.25098 -10.24599 -10.22732
 Alpha  occ. eigenvalues --  -10.21530 -10.20784 -10.18024 -10.17387  -1.08374
 Alpha  occ. eigenvalues --   -1.00737  -0.80973  -0.76808  -0.69042  -0.68238
 Alpha  occ. eigenvalues --   -0.65044  -0.60400  -0.52921  -0.51044  -0.47926
 Alpha  occ. eigenvalues --   -0.47574  -0.45193  -0.43087  -0.43047  -0.42535
 Alpha  occ. eigenvalues --   -0.40412  -0.39247  -0.37887  -0.34504  -0.30732
 Alpha  occ. eigenvalues --   -0.28601  -0.27053  -0.25559  -0.24538
 Alpha virt. eigenvalues --    0.04818   0.05065   0.08948   0.09771   0.10700
 Alpha virt. eigenvalues --    0.10901   0.11510   0.13868   0.16009   0.16762
 Alpha virt. eigenvalues --    0.16894   0.17892   0.18637   0.19063   0.20824

 Mulliken charges:
               1
     1  C   -0.499115
     2  C    0.094692
     3  C    0.041248
     4  C   -0.244734
     5  C   -0.048316
     6  O   -0.427298
     7  C    0.091488
     8  C   -0.179711
     9  O   -0.252372
    10  H    0.151182
    11  H    0.150713
    12  H    0.149189
    13  H    0.109618
    14  H    0.090661
    15  H    0.114484
    16  H    0.298565
    17  H    0.109702
    18  H    0.125115
    19  H    0.124889
 Sum of Mulliken charges =   0.00000

 Dipole moment (field-independent basis, Debye):
    X=             -2.3316    Y=             -2.3609    Z=             -0.1303  Tot=              3.3208
 Quadrupole moment (field-independent basis, Debye-Ang):
   XX=            -50.9720   YY=            -54.1253   ZZ=            -52.1315
   XY=             -4.3857   XZ=              1.2092   YZ=             -1.3526

  Exact polarizability: 108.678  -1.110  73.849   4.470  -1.316  60.404
 Approx polarizability: 154.055   3.552 100.036   8.453  -1.551  91.498

 ******    1 imaginary frequencies (negative Signs) ******

                      1                      2                      3
                      A                      A                      A
 Frequencies --    -14.5879                64.3439                88.1723
 Red. masses --      1.0202                 3.6056                 4.0218
 Frc consts  --      0.0001                 0.0088                 0.0184
 IR Inten    --      0.0128                 1.4347                 0.6258

                      4                      5                      6
                      A                      A                      A
 Frequencies --    103.9956               178.3771               223.7248
 Red. masses --      3.6337                 3.6826                 3.0091
 Frc consts  --      0.0232                 0.0690                 0.0887
 IR Inten    --      0.4652                 6.0525                 5.9845

                      7                      8                      9
                      A                      A                      A
 Frequencies --    266.9065               300.2235               358.7437
 Red. masses --      3.6045                 3.2341                 4.2473
 Frc consts  --      0.1513                 0.1717                 0.3221
 IR Inten    --      5.5551                 5.0459                 3.3264

                     10                     11                     12
                      A                      A                      A
 Frequencies --    380.3263               456.1572               479.9140
 Red. masses --      4.5246                 3.6306                 1.2731
 Frc consts  --      0.3856                 0.4451                 0.1728
 IR Inten    --      8.3952                12.4621               103.9939

                     13                     14                     15
                      A                      A                      A
 Frequencies --    485.3564               529.5787               804.8624
 Red. masses --      4.1252                 4.3070                 2.5247
 Frc consts  --      0.5726                 0.7117                 0.9636
 IR Inten    --     13.7597                 1.1831                 8.8484

                     16                     17                     18
                      A                      A                      A
 Frequencies --    826.2732               865.6660               928.1319
 Red. masses --      3.0834                 4.9333                 3.4563
 Frc consts  --      1.2403                 2.1781                 1.7542
 IR Inten    --     24.8744                 9.2166                31.3193

                     19                     20                     21
                      A                      A                      A
 Frequencies --    957.8769              1043.5303              1053.0016
 Red. masses --      1.3142                 2.5321                 1.4124
 Frc consts  --      0.7105                 1.6246                 0.9227
 IR Inten    --      2.5269                 3.1476                 0.8866

                     22                     23                     24
                      A                      A                      A
 Frequencies --   1055.2863              1088.4571              1103.6665
 Red. masses --      1.5051                 4.6255                 1.5360
 Frc consts  --      0.9875                 3.2287                 1.1024
 IR Inten    --      2.8456               114.0927                17.8628

                     25                     26                     27
                      A                      A                      A
 Frequencies --   1128.6834              1155.8356              1172.4299
 Red. masses --      1.8319                 1.3554                 2.3098
 Frc consts  --      1.3750                 1.0669                 1.8707
 IR Inten    --      1.3351                 3.9182                 1.6219

                     28                     29                     30
                      A                      A                      A
 Frequencies --   1176.8103              1230.1807              1278.6292
 Red. masses --      1.4484                 1.2320                 1.4049
 Frc consts  --      1.1818                 1.0985                 1.3532
 IR Inten    --      1.2894                 4.1340                 3.2587

                     31                     32                     33
                      A                      A                      A
 Frequencies --   1294.1426              1307.9465              1380.3063
 Red. masses --      1.5825                 1.3762                 1.2697
 Frc consts  --      1.5616                 1.3871                 1.4253
 IR Inten    --      8.4385                31.9811                 0.2735

                     34                     35                     36
                      A                      A                      A
 Frequencies --   1414.7450              1436.6628              1453.4851
 Red. masses --      1.2465                 1.5998                 1.2749
 Frc consts  --      1.4699                 1.9455                 1.5869
 IR Inten    --      7.4212                16.8494                79.9475

                     37                     38                     39
                      A                      A                      A
 Frequencies --   1477.6528              1478.4106              1511.3757
 Red. masses --      1.0395                 1.0396                 1.0868
 Frc consts  --      1.3373                 1.3388                 1.4627
 IR Inten    --      5.4969                 5.6998                 0.3292

                     40                     41                     42
                      A                      A                      A
 Frequencies --   1526.0996              2370.3092              2969.3623
 Red. masses --      1.3247                11.8564                 1.0710
 Frc consts  --      1.8177                39.2477                 5.5635
 IR Inten    --      1.8426                 1.5436                46.8204

                     43                     44                     45
                      A                      A                      A
 Frequencies --   3023.9328              3028.2634              3085.3665
 Red. masses --      1.0818                 1.0348                 1.0922
 Frc consts  --      5.8283                 5.5910                 6.1259
 IR Inten    --     16.6014                31.5632                30.5146

                     46                     47                     48
                      A                      A                      A
 Frequencies --   3089.2233              3090.0701              3092.6011
 Red. masses --      1.1002                 1.1002                 1.0506
 Frc consts  --      6.1859                 6.1897                 5.9202
 IR Inten    --      9.8917                 9.1301                22.3841

                     49                     50                     51
                      A                      A                      A
 Frequencies --   3118.3490              3183.0960              3769.0973
 Red. masses --      1.0890                 1.1198                 1.0657
 Frc consts  --      6.2391                 6.6846                 8.9195
 IR Inten    --     14.3499                19.7839                95.9313

 - Thermochemistry -
 -------------------
 Temperature   298.150 Kelvin.  Pressure   1.00000 Atm.
 Atom     1 has atomic number  6 and mass  12.00000

 Molecular mass:   126.06808 amu.
 Principal axes and moments of inertia in atomic units:
                           1         2         3
     Eigenvalues --   716.371741979.955092574.15723
           X            0.99997  -0.00509   0.00567
           Y            0.00515   0.99991  -0.01225
           Z           -0.00560   0.01228   0.99991
 This molecule is an asymmetric top.
 Rotational symmetry number  1.
 Warning -- assumption of classical behavior for rotation
           may cause significant error
 Rotational temperatures (Kelvin)      0.12091     0.04375     0.03365
 Rotational constants (GHZ):           2.51928     0.91151     0.70110
    1 imaginary frequencies ignored.
 Zero-point vibrational energy     412027.6 (Joules/Mol)
                                   98.47696 (Kcal/Mol)
 Warning -- explicit consideration of  13 degrees of freedom as
           vibrations may cause significant error
 Vibrational temperatures:     92.58   126.86   149.63   256.64   321.89
          (Kelvin)            384.02   431.95   516.15   547.20   656.31
                              690.49   698.32   761.94  1158.02  1188.82
                             1245.50  1335.37  1378.17  1501.41  1515.03
                             1518.32  1566.04  1587.93  1623.92  1662.99
                             1686.86  1693.17  1769.95  1839.66  1861.98
                             1881.84  1985.95  2035.50  2067.03  2091.24
                             2126.01  2127.10  2174.53  2195.71  3410.34
                             4272.24  4350.76  4356.99  4439.15  4444.70
                             4445.92  4449.56  4486.60  4579.76  5422.88

 Zero-point correction=                           0.156933 (Hartree/Particle)
 Thermal correction to Energy=                    0.166294
 Thermal correction to Enthalpy=                  0.167239
 Thermal correction to Gibbs Free Energy=         0.121957
 Sum of electronic and zero-point Energies=           -422.973914
 Sum of electronic and thermal Energies=              -422.964552
 Sum of electronic and thermal Enthalpies=            -422.963608
 Sum of electronic and thermal Free Energies=         -423.008889

                     E (Thermal)             CV                S
                      KCal/Mol        Cal/Mol-Kelvin    Cal/Mol-Kelvin
 Total                  104.351             33.603             95.303
 Electronic               0.000              0.000              0.000
 Translational            0.889              2.981             40.409
 Rotational               0.889              2.981             29.680
 Vibrational            102.574             27.642             25.214
 Vibration     1          0.597              1.971              4.319
 Vibration     2          0.601              1.957              3.700
 Vibration     3          0.605              1.946              3.378
 Vibration     4          0.629              1.869              2.345
 Vibration     5          0.649              1.805              1.929
 Vibration     6          0.672              1.734              1.616
 Vibration     7          0.693              1.673              1.416
 Vibration     8          0.734              1.557              1.128
 Vibration     9          0.750              1.512              1.038
 Vibration    10          0.814              1.347              0.777
 Vibration    11          0.836              1.295              0.710
 Vibration    12          0.841              1.283              0.696
 Vibration    13          0.885              1.185              0.588

 Normal termination of Gaussian 09 at Tue Jan 28 10:39:54 2020.
