 Gaussian 09, Revision D.01,
 Gaussian 09:  ES64L-G09RevD.01 24-Apr-2013

 -----------------------------
 # b3lyp 6-31G(2df,p) opt Freq
 -----------------------------

 -----
 titel
 -----
 Symbolic Z-matrix:
 Charge =  0 Multiplicity = 1

 SCF Done:  E(RB3LYP) =  -423.145513754     A.U. after   14 cycles
 Optimization completed.
    -- Stationary point found.
 Normal termination of Gaussian 09 at Mon Jan 27 14:18:03 2020.

 ----------------------------------------------------------------------
 #N Geom=AllCheck Guess=TCheck SCRF=Check GenChk RB3LYP/6-31G(2df,p) Fr
 eq
 ----------------------------------------------------------------------

 Structure from the checkpoint file:  "/scratch/puck/g09_43bf2291-ca3e-4ab3-bec9-c479bffa55c4/Gau-58124.chk"
 -----
 titel
 -----
 Charge =  0 Multiplicity = 1

                         Standard orientation:
 ---------------------------------------------------------------------
 Center     Atomic      Atomic             Coordinates (Angstroms)
 Number     Number       Type             X           Y           Z
 ---------------------------------------------------------------------
      1          8           0        1.465525    1.791919    0.175128
      2          6           0        1.081734    0.434152    0.386271
      3          6           0        2.187041   -0.486554    0.104373
      4          6           0        3.095711   -1.222184   -0.176723
      5          6           0       -0.180987    0.079447   -0.416838
      6          6           0       -0.799847   -1.300260   -0.060431
      7          6           0       -2.242866   -0.949534    0.361265
      8          8           0       -2.528960    0.301605   -0.242976
      9          6           0       -1.340113    1.065068   -0.138320
     10          1           0        1.874786    1.844893   -0.695937
     11          1           0        0.835858    0.379989    1.455182
     12          1           0        3.902967   -1.874093   -0.404102
     13          1           0        0.079165    0.106405   -1.479974
     14          1           0       -0.791573   -1.963595   -0.927546
     15          1           0       -0.250825   -1.805084    0.739603
     16          1           0       -2.990394   -1.669318    0.018763
     17          1           0       -2.317632   -0.871943    1.458705
     18          1           0       -1.401516    1.888422   -0.851959
     19          1           0       -1.237387    1.495323    0.872465
 ---------------------------------------------------------------------

 SCF Done:  E(RB3LYP) =  -423.145513754     A.U. after    1 cycles

 The electronic state is 1-A.
 Alpha  occ. eigenvalues --  -19.14823 -19.13507 -10.26174 -10.22573 -10.22321
 Alpha  occ. eigenvalues --  -10.19573 -10.18908 -10.18695 -10.18487  -1.03608
 Alpha  occ. eigenvalues --   -1.03025  -0.80766  -0.75680  -0.73739  -0.68402
 Alpha  occ. eigenvalues --   -0.60175  -0.58787  -0.55411  -0.51041  -0.50627
 Alpha  occ. eigenvalues --   -0.48299  -0.46093  -0.44250  -0.42223  -0.40180
 Alpha  occ. eigenvalues --   -0.37034  -0.36414  -0.34932  -0.33160  -0.31634
 Alpha  occ. eigenvalues --   -0.29457  -0.27778  -0.27027  -0.25077
 Alpha virt. eigenvalues --    0.02644   0.04474   0.08219   0.08918   0.10824
 Alpha virt. eigenvalues --    0.11987   0.13082   0.14342   0.14968   0.15610
 Alpha virt. eigenvalues --    0.17597   0.18416   0.19011   0.21387   0.22454

 Mulliken charges:
               1
     1  O   -0.422568
     2  C   -0.067765
     3  C    0.291043
     4  C   -0.438354
     5  C   -0.000420
     6  C   -0.253853
     7  C   -0.075561
     8  O   -0.240276
     9  C   -0.100342
    10  H    0.285382
    11  H    0.116511
    12  H    0.201453
    13  H    0.078928
    14  H    0.114013
    15  H    0.109442
    16  H    0.109290
    17  H    0.087634
    18  H    0.111984
    19  H    0.093459
 Sum of Mulliken charges =   0.00000

 Dipole moment (field-independent basis, Debye):
    X=              1.2192    Y=             -1.3961    Z=             -0.6880  Tot=              1.9771
 Quadrupole moment (field-independent basis, Debye-Ang):
   XX=            -55.6923   YY=            -52.5247   ZZ=            -51.5776
   XY=             -0.4301   XZ=             -4.4976   YZ=             -2.1747

  Exact polarizability:  90.871  -7.767  78.309  -5.030   0.489  60.958
 Approx polarizability: 121.863 -18.042 117.236  -8.347   3.587  96.341

                      1                      2                      3
                      A                      A                      A
 Frequencies --     32.9671                74.7146               121.3487
 Red. masses --      2.4022                 3.6635                 4.2150
 Frc consts  --      0.0015                 0.0120                 0.0366
 IR Inten    --      0.9251                 0.3135                 0.1822

                      4                      5                      6
                      A                      A                      A
 Frequencies --    210.2434               233.3344               257.4250
 Red. masses --      3.2332                 3.7517                 2.0768
 Frc consts  --      0.0842                 0.1203                 0.0811
 IR Inten    --      3.1203                 1.3808                17.9457

                      7                      8                      9
                      A                      A                      A
 Frequencies --    293.4419               357.4713               425.7385
 Red. masses --      1.2654                 3.3460                 3.7961
 Frc consts  --      0.0642                 0.2519                 0.4054
 IR Inten    --     81.2660                 2.4001                21.0208

                     10                     11                     12
                      A                      A                      A
 Frequencies --    471.1854               583.1676               629.6075
 Red. masses --      5.3111                 5.7638                 1.2578
 Frc consts  --      0.6947                 1.1549                 0.2938
 IR Inten    --      1.5881                 9.4396                39.1228

                     13                     14                     15
                      A                      A                      A
 Frequencies --    659.0731               673.4778               685.9644
 Red. masses --      2.8439                 1.2651                 2.8580
 Frc consts  --      0.7278                 0.3381                 0.7923
 IR Inten    --      9.9871                33.9707                10.5560

                     16                     17                     18
                      A                      A                      A
 Frequencies --    821.1059               883.9823               930.3970
 Red. masses --      1.8215                 2.2409                 4.2876
 Frc consts  --      0.7236                 1.0317                 2.1868
 IR Inten    --      4.5402                14.8076                23.9832

                     19                     20                     21
                      A                      A                      A
 Frequencies --    942.4150               966.5358              1004.6674
 Red. masses --      2.3409                 3.7027                 1.7953
 Frc consts  --      1.2249                 2.0380                 1.0677
 IR Inten    --      3.9566                40.8126                13.2715

                     22                     23                     24
                      A                      A                      A
 Frequencies --   1054.4213              1055.6393              1094.6310
 Red. masses --      2.5033                 2.9692                 3.7285
 Frc consts  --      1.6398                 1.9495                 2.6322
 IR Inten    --      3.9961                40.1202                43.5921

                     25                     26                     27
                      A                      A                      A
 Frequencies --   1125.3373              1133.2845              1202.8327
 Red. masses --      6.2518                 2.1518                 1.1990
 Frc consts  --      4.6647                 1.6283                 1.0221
 IR Inten    --    104.9723                 3.9240                 1.5299

                     28                     29                     30
                      A                      A                      A
 Frequencies --   1233.6873              1265.2877              1269.6404
 Red. masses --      1.1956                 1.3497                 1.3593
 Frc consts  --      1.0721                 1.2731                 1.2910
 IR Inten    --     17.4916                11.6796                 3.6293

                     31                     32                     33
                      A                      A                      A
 Frequencies --   1289.4527              1308.5411              1318.3097
 Red. masses --      1.2954                 1.1963                 1.3198
 Frc consts  --      1.2690                 1.2068                 1.3514
 IR Inten    --     15.2333                 0.9299                 2.3698

                     34                     35                     36
                      A                      A                      A
 Frequencies --   1359.0289              1378.4871              1405.0410
 Red. masses --      1.2179                 1.3403                 1.3319
 Frc consts  --      1.3253                 1.5006                 1.5492
 IR Inten    --      1.0571                 2.4795                 8.5185

                     37                     38                     39
                      A                      A                      A
 Frequencies --   1417.5510              1495.2957              1504.9303
 Red. masses --      1.2573                 1.0884                 1.0822
 Frc consts  --      1.4885                 1.4339                 1.4440
 IR Inten    --     55.3520                 3.2045                 0.5215

                     40                     41                     42
                      A                      A                      A
 Frequencies --   1521.8498              2231.0987              2961.9124
 Red. masses --      1.1026                 5.9096                 1.0714
 Frc consts  --      1.5045                17.3319                 5.5377
 IR Inten    --      1.7289                 1.1616                39.3777

                     43                     44                     45
                      A                      A                      A
 Frequencies --   2968.6010              3023.2224              3051.7608
 Red. masses --      1.0728                 1.0817                 1.0853
 Frc consts  --      5.5702                 5.8248                 5.9552
 IR Inten    --     80.7467                 7.1980                24.1050

                     46                     47                     48
                      A                      A                      A
 Frequencies --   3066.1962              3092.3164              3111.1114
 Red. masses --      1.0624                 1.0922                 1.0947
 Frc consts  --      5.8847                 6.1537                 6.2425
 IR Inten    --     19.1719                26.4891                20.4599

                     49                     50                     51
                      A                      A                      A
 Frequencies --   3115.3253              3501.9760              3804.3457
 Red. masses --      1.1010                 1.1623                 1.0662
 Frc consts  --      6.2957                 8.3986                 9.0915
 IR Inten    --     39.8659                65.3723                26.0625

 - Thermochemistry -
 -------------------
 Temperature   298.150 Kelvin.  Pressure   1.00000 Atm.
 Atom     1 has atomic number  8 and mass  15.99491

 Molecular mass:   126.06808 amu.
 Principal axes and moments of inertia in atomic units:
                           1         2         3
     Eigenvalues --   578.404431674.784902127.11837
           X            0.99994   0.00324  -0.01045
           Y           -0.00334   0.99995  -0.00991
           Z            0.01041   0.00995   0.99990
 This molecule is an asymmetric top.
 Rotational symmetry number  1.
 Warning -- assumption of classical behavior for rotation
           may cause significant error
 Rotational temperatures (Kelvin)      0.14975     0.05172     0.04072
 Rotational constants (GHZ):           3.12021     1.07760     0.84844
 Zero-point vibrational energy     416416.4 (Joules/Mol)
                                   99.52590 (Kcal/Mol)
 Warning -- explicit consideration of  11 degrees of freedom as
           vibrations may cause significant error
 Vibrational temperatures:     47.43   107.50   174.59   302.49   335.72
          (Kelvin)            370.38   422.20   514.32   612.54   677.93
                              839.05   905.86   948.26   968.98   986.95
                             1181.39  1271.85  1338.63  1355.92  1390.63
                             1445.49  1517.08  1518.83  1574.93  1619.11
                             1630.54  1730.61  1775.00  1820.46  1826.73
                             1855.23  1882.70  1896.75  1955.34  1983.33
                             2021.54  2039.54  2151.39  2165.26  2189.60
                             3210.05  4261.53  4271.15  4349.74  4390.80
                             4411.57  4449.15  4476.19  4482.25  5038.56
                             5473.60

 Zero-point correction=                           0.158605 (Hartree/Particle)
 Thermal correction to Energy=                    0.167884
 Thermal correction to Enthalpy=                  0.168829
 Thermal correction to Gibbs Free Energy=         0.123515
 Sum of electronic and zero-point Energies=           -422.986909
 Sum of electronic and thermal Energies=              -422.977629
 Sum of electronic and thermal Enthalpies=            -422.976685
 Sum of electronic and thermal Free Energies=         -423.021999

                     E (Thermal)             CV                S
                      KCal/Mol        Cal/Mol-Kelvin    Cal/Mol-Kelvin
 Total                  105.349             33.952             95.370
 Electronic               0.000              0.000              0.000
 Translational            0.889              2.981             40.409
 Rotational               0.889              2.981             29.112
 Vibrational            103.572             27.990             25.850
 Vibration     1          0.594              1.983              5.642
 Vibration     2          0.599              1.966              4.025
 Vibration     3          0.609              1.931              3.079
 Vibration     4          0.642              1.825              2.042
 Vibration     5          0.654              1.790              1.853
 Vibration     6          0.667              1.750              1.679
 Vibration     7          0.688              1.686              1.454
 Vibration     8          0.733              1.560              1.133
 Vibration     9          0.788              1.414              0.873
 Vibration    10          0.828              1.314              0.734
 Vibration    11          0.940              1.068              0.480

 Optimization completed.
    -- Stationary point found.
 Normal termination of Gaussian 09 at Mon Jan 27 15:01:26 2020.
