 Gaussian 09, Revision D.01,
 Gaussian 09:  ES64L-G09RevD.01 24-Apr-2013

 -----------------------------
 # b3lyp 6-31G(2df,p) opt Freq
 -----------------------------

 -----
 titel
 -----
 Symbolic Z-matrix:
 Charge =  0 Multiplicity = 1

 SCF Done:  E(RB3LYP) =  -423.157570734     A.U. after   13 cycles
 Optimization completed.
    -- Stationary point found.
 Normal termination of Gaussian 09 at Mon Jan 27 12:18:40 2020.

 ----------------------------------------------------------------------
 #N Geom=AllCheck Guess=TCheck SCRF=Check GenChk RB3LYP/6-31G(2df,p) Fr
 eq
 ----------------------------------------------------------------------

 Structure from the checkpoint file:  "/scratch/puck/g09_775d32b4-9109-4c97-a11a-4d66e59e9e75/Gau-167153.chk"
 -----
 titel
 -----
 Charge =  0 Multiplicity = 1

                         Standard orientation:
 ---------------------------------------------------------------------
 Center     Atomic      Atomic             Coordinates (Angstroms)
 Number     Number       Type             X           Y           Z
 ---------------------------------------------------------------------
      1          6           0       -2.296087   -0.080661   -0.161905
      2          6           0       -1.567789    1.018222    0.682657
      3          6           0       -0.219196    0.532757    0.118778
      4          6           0        0.968161    1.376615   -0.288747
      5          8           0        2.008682    0.438012   -0.544845
      6          6           0        1.894199   -0.592418    0.434908
      7          6           0        0.400817   -0.761531    0.712790
      8          8           0       -0.292550   -1.603081   -0.237881
      9          6           0       -0.942885   -0.461667   -0.827268
     10          1           0       -2.723733   -0.904895    0.412472
     11          1           0       -3.053338    0.304320   -0.848699
     12          1           0       -1.817913    2.031099    0.353770
     13          1           0       -1.686681    0.974226    1.768643
     14          1           0        0.812135    1.956129   -1.203475
     15          1           0        1.247418    2.074618    0.520642
     16          1           0        2.357481   -1.498076    0.036037
     17          1           0        2.409678   -0.301630    1.365557
     18          1           0        0.179798   -1.044066    1.747747
     19          1           0       -0.877228   -0.459079   -1.918169
 ---------------------------------------------------------------------

 SCF Done:  E(RB3LYP) =  -423.157570734     A.U. after    1 cycles

 The electronic state is 1-A.
 Alpha  occ. eigenvalues --  -19.13885 -19.13281 -10.23441 -10.23092 -10.22931
 Alpha  occ. eigenvalues --  -10.22553 -10.19491 -10.19198 -10.18499  -1.05158
 Alpha  occ. eigenvalues --   -1.02343  -0.83153  -0.74439  -0.72797  -0.65130
 Alpha  occ. eigenvalues --   -0.61945  -0.59893  -0.52257  -0.51219  -0.50455
 Alpha  occ. eigenvalues --   -0.46821  -0.45208  -0.43838  -0.42086  -0.40153
 Alpha  occ. eigenvalues --   -0.39157  -0.37575  -0.35954  -0.34888  -0.30990
 Alpha  occ. eigenvalues --   -0.29756  -0.28213  -0.25578  -0.24349
 Alpha virt. eigenvalues --    0.06487   0.09067   0.09690   0.10559   0.12902
 Alpha virt. eigenvalues --    0.13777   0.14313   0.15089   0.15665   0.17224
 Alpha virt. eigenvalues --    0.17621   0.18520   0.18756   0.20324   0.21513

 Mulliken charges:
               1
     1  C   -0.236459
     2  C   -0.339233
     3  C    0.295844
     4  C   -0.196096
     5  O   -0.252318
     6  C   -0.103643
     7  C    0.063430
     8  O   -0.308048
     9  C    0.080392
    10  H    0.115359
    11  H    0.104929
    12  H    0.107811
    13  H    0.102582
    14  H    0.111489
    15  H    0.088447
    16  H    0.122494
    17  H    0.086864
    18  H    0.076048
    19  H    0.080108
 Sum of Mulliken charges =   0.00000

 Dipole moment (field-independent basis, Debye):
    X=             -1.1396    Y=              1.4492    Z=              1.1251  Tot=              2.1598
 Quadrupole moment (field-independent basis, Debye-Ang):
   XX=            -54.7580   YY=            -54.8876   ZZ=            -51.3720
   XY=             -2.4340   XZ=              3.2098   YZ=             -1.4153

  Exact polarizability:  82.389  -2.903  71.741   3.998  -0.960  68.467
 Approx polarizability: 107.080  -3.495 107.182   4.401  -0.851 105.577

                      1                      2                      3
                      A                      A                      A
 Frequencies --    114.8508               202.7111               220.9502
 Red. masses --      2.7995                 3.6370                 2.0636
 Frc consts  --      0.0218                 0.0881                 0.0594
 IR Inten    --      1.0388                 4.3941                 1.0222

                      4                      5                      6
                      A                      A                      A
 Frequencies --    321.2066               346.5565               438.2670
 Red. masses --      2.6799                 1.9158                 2.7366
 Frc consts  --      0.1629                 0.1356                 0.3097
 IR Inten    --      0.5383                 2.9194                 4.2386

                      7                      8                      9
                      A                      A                      A
 Frequencies --    463.8982               627.8862               708.5579
 Red. masses --      4.4030                 3.8911                 1.7576
 Frc consts  --      0.5583                 0.9038                 0.5199
 IR Inten    --      0.3069                 1.1456                 1.0156

                     10                     11                     12
                      A                      A                      A
 Frequencies --    736.0360               777.5462               849.1683
 Red. masses --      4.3113                 2.1026                 2.4772
 Frc consts  --      1.3761                 0.7490                 1.0524
 IR Inten    --     16.1048                 1.0501                12.5553

                     13                     14                     15
                      A                      A                      A
 Frequencies --    857.9103               876.1191               908.1949
 Red. masses --      2.5193                 2.1508                 2.6140
 Frc consts  --      1.0925                 0.9727                 1.2703
 IR Inten    --     23.1350                 9.4112                 9.6131

                     16                     17                     18
                      A                      A                      A
 Frequencies --    933.5358               943.9515               972.8123
 Red. masses --      2.9572                 3.5466                 2.0199
 Frc consts  --      1.5184                 1.8619                 1.1263
 IR Inten    --      5.5267                16.5830                 0.3412

                     19                     20                     21
                      A                      A                      A
 Frequencies --   1009.3914              1037.0242              1069.2396
 Red. masses --      2.1648                 2.3595                 2.4902
 Frc consts  --      1.2995                 1.4950                 1.6774
 IR Inten    --     14.4239                37.9419                12.4358

                     22                     23                     24
                      A                      A                      A
 Frequencies --   1094.7519              1112.1709              1142.4637
 Red. masses --      5.4128                 1.9153                 2.8358
 Frc consts  --      3.8221                 1.3958                 2.1808
 IR Inten    --     91.9971                11.3670                 0.7663

                     25                     26                     27
                      A                      A                      A
 Frequencies --   1152.1501              1185.8312              1212.7465
 Red. masses --      2.0262                 1.8002                 1.1630
 Frc consts  --      1.5847                 1.4915                 1.0078
 IR Inten    --     10.7515                 1.7475                 3.1247

                     28                     29                     30
                      A                      A                      A
 Frequencies --   1221.4129              1241.1353              1248.8515
 Red. masses --      1.5887                 1.4208                 1.4874
 Frc consts  --      1.3964                 1.2895                 1.3668
 IR Inten    --      4.8568                 4.8487                 1.5048

                     31                     32                     33
                      A                      A                      A
 Frequencies --   1272.3247              1278.9460              1305.7000
 Red. masses --      1.6161                 1.2515                 1.3804
 Frc consts  --      1.5414                 1.2062                 1.3866
 IR Inten    --      2.1665                 1.8700                 5.3196

                     34                     35                     36
                      A                      A                      A
 Frequencies --   1317.6822              1354.0920              1365.1843
 Red. masses --      1.8126                 1.3723                 1.6895
 Frc consts  --      1.8542                 1.4825                 1.8552
 IR Inten    --      2.9222                 6.7407                 3.3135

                     37                     38                     39
                      A                      A                      A
 Frequencies --   1399.5004              1465.8204              1486.9846
 Red. masses --      1.4718                 1.0897                 1.0898
 Frc consts  --      1.6984                 1.3795                 1.4198
 IR Inten    --      6.3646                 1.4401                 1.0176

                     40                     41                     42
                      A                      A                      A
 Frequencies --   1491.1749              1507.0459              2948.0133
 Red. masses --      1.1161                 1.0986                 1.0712
 Frc consts  --      1.4622                 1.4700                 5.4853
 IR Inten    --      1.7044                 1.3802                59.9358

                     43                     44                     45
                      A                      A                      A
 Frequencies --   2968.2609              3051.1072              3052.6237
 Red. masses --      1.0709                 1.0756                 1.0693
 Frc consts  --      5.5589                 5.8994                 5.8710
 IR Inten    --     67.3348                33.1819                66.0630

                     46                     47                     48
                      A                      A                      A
 Frequencies --   3067.8875              3080.7949              3082.9734
 Red. masses --      1.0628                 1.0882                 1.0886
 Frc consts  --      5.8938                 6.0855                 6.0960
 IR Inten    --     27.9355                13.2889                49.5953

                     49                     50                     51
                      A                      A                      A
 Frequencies --   3097.6835              3104.5313              3130.1518
 Red. masses --      1.1078                 1.0928                 1.1077
 Frc consts  --      6.2628                 6.2056                 6.3943
 IR Inten    --     10.5842                15.9871                27.3877

 - Thermochemistry -
 -------------------
 Temperature   298.150 Kelvin.  Pressure   1.00000 Atm.
 Atom     1 has atomic number  6 and mass  12.00000

 Molecular mass:   126.06808 amu.
 Principal axes and moments of inertia in atomic units:
                           1         2         3
     Eigenvalues --   564.593071098.305171350.07169
           X            0.99961  -0.02459   0.01296
           Y            0.02475   0.99962  -0.01218
           Z           -0.01265   0.01250   0.99984
 This molecule is an asymmetric top.
 Rotational symmetry number  1.
 Warning -- assumption of classical behavior for rotation
           may cause significant error
 Rotational temperatures (Kelvin)      0.15341     0.07886     0.06415
 Rotational constants (GHZ):           3.19653     1.64321     1.33677
 Zero-point vibrational energy     423811.9 (Joules/Mol)
                                  101.29347 (Kcal/Mol)
 Warning -- explicit consideration of   7 degrees of freedom as
           vibrations may cause significant error
 Vibrational temperatures:    165.24   291.66   317.90   462.14   498.62
          (Kelvin)            630.57   667.45   903.39  1019.46  1058.99
                             1118.71  1221.76  1234.34  1260.54  1306.69
                             1343.15  1358.13  1399.66  1452.29  1492.04
                             1538.40  1575.10  1600.16  1643.75  1657.68
                             1706.14  1744.87  1757.34  1785.71  1796.82
                             1830.59  1840.12  1878.61  1895.85  1948.23
                             1964.19  2013.57  2108.99  2139.44  2145.47
                             2168.30  4241.53  4270.66  4389.86  4392.04
                             4414.00  4432.57  4435.71  4456.87  4466.72
                             4503.58

 Zero-point correction=                           0.161421 (Hartree/Particle)
 Thermal correction to Energy=                    0.168499
 Thermal correction to Enthalpy=                  0.169443
 Thermal correction to Gibbs Free Energy=         0.130015
 Sum of electronic and zero-point Energies=           -422.996149
 Sum of electronic and thermal Energies=              -422.989072
 Sum of electronic and thermal Enthalpies=            -422.988127
 Sum of electronic and thermal Free Energies=         -423.027556

                     E (Thermal)             CV                S
                      KCal/Mol        Cal/Mol-Kelvin    Cal/Mol-Kelvin
 Total                  105.735             28.452             82.984
 Electronic               0.000              0.000              0.000
 Translational            0.889              2.981             40.409
 Rotational               0.889              2.981             28.217
 Vibrational            103.957             22.490             14.358
 Vibration     1          0.608              1.937              3.185
 Vibration     2          0.639              1.836              2.108
 Vibration     3          0.648              1.809              1.951
 Vibration     4          0.707              1.633              1.304
 Vibration     5          0.725              1.582              1.182
 Vibration     6          0.798              1.387              0.832
 Vibration     7          0.821              1.330              0.755

 Optimization completed.
    -- Stationary point found.
 Normal termination of Gaussian 09 at Mon Jan 27 13:06:39 2020.
