 Gaussian 09, Revision D.01,
 Gaussian 09:  ES64L-G09RevD.01 24-Apr-2013

 -----------------------------
 # b3lyp 6-31G(2df,p) opt Freq
 -----------------------------

 -----
 titel
 -----
 Symbolic Z-matrix:
 Charge =  0 Multiplicity = 1

 SCF Done:  E(RB3LYP) =  -423.157940936     A.U. after   14 cycles
 SCF Done:  E(RB3LYP) =  -423.157941059     A.U. after    8 cycles
 SCF Done:  E(RB3LYP) =  -423.157940276     A.U. after    8 cycles
 SCF Done:  E(RB3LYP) =  -423.157941168     A.U. after    8 cycles
 SCF Done:  E(RB3LYP) =  -423.157941145     A.U. after    6 cycles
 Optimization completed.
    -- Stationary point found.
 Normal termination of Gaussian 09 at Tue Jan 28 04:45:45 2020.

 ----------------------------------------------------------------------
 #N Geom=AllCheck Guess=TCheck SCRF=Check GenChk RB3LYP/6-31G(2df,p) Fr
 eq
 ----------------------------------------------------------------------

 Structure from the checkpoint file:  "/scratch/puck/g09_c62e767c-8ad7-48d1-bac3-bcd908653fae/Gau-68417.chk"
 -----
 titel
 -----
 Charge =  0 Multiplicity = 1

                         Standard orientation:
 ---------------------------------------------------------------------
 Center     Atomic      Atomic             Coordinates (Angstroms)
 Number     Number       Type             X           Y           Z
 ---------------------------------------------------------------------
      1          6           0        2.114987    1.674363   -0.380266
      2          6           0        1.631073    0.442779    0.349406
      3          8           0        1.775671   -0.705068   -0.456670
      4          6           0        0.850988   -1.634914    0.080111
      5          6           0       -0.341510   -0.747185    0.501463
      6          6           0       -1.456747   -0.703389   -0.559195
      7          6           0       -2.539091    0.210770   -0.222017
      8          6           0       -3.437788    0.952495    0.070801
      9          8           0        0.243777    0.543972    0.643239
     10          1           0        3.182722    1.585699   -0.596790
     11          1           0        1.563814    1.788962   -1.316549
     12          1           0        1.953291    2.558734    0.240684
     13          1           0        2.184963    0.298214    1.296855
     14          1           0        0.604697   -2.367168   -0.692381
     15          1           0        1.276735   -2.159285    0.948640
     16          1           0       -0.764000   -1.064840    1.462138
     17          1           0       -1.004147   -0.419771   -1.517370
     18          1           0       -1.858624   -1.718041   -0.682727
     19          1           0       -4.226517    1.616753    0.323131
 ---------------------------------------------------------------------

 SCF Done:  E(RB3LYP) =  -423.157941145     A.U. after    1 cycles

 The electronic state is 1-A.
 Alpha  occ. eigenvalues --  -19.15182 -19.14322 -10.27882 -10.24480 -10.23880
 Alpha  occ. eigenvalues --  -10.20942 -10.17777 -10.17772 -10.16672  -1.09134
 Alpha  occ. eigenvalues --   -0.99559  -0.81312  -0.76397  -0.71670  -0.68319
 Alpha  occ. eigenvalues --   -0.61704  -0.60170  -0.53477  -0.51034  -0.49195
 Alpha  occ. eigenvalues --   -0.47711  -0.47290  -0.44538  -0.41987  -0.40476
 Alpha  occ. eigenvalues --   -0.38741  -0.38283  -0.37940  -0.33854  -0.33446
 Alpha  occ. eigenvalues --   -0.28276  -0.26450  -0.26031  -0.25165
 Alpha virt. eigenvalues --    0.05295   0.05859   0.09557   0.10951   0.11737
 Alpha virt. eigenvalues --    0.12383   0.13326   0.13711   0.14301   0.16047
 Alpha virt. eigenvalues --    0.16790   0.18026   0.18898   0.19642   0.22620

 Mulliken charges:
               1
     1  C   -0.402755
     2  C    0.229789
     3  O   -0.246556
     4  C   -0.137337
     5  C    0.114037
     6  C   -0.368852
     7  C    0.307552
     8  C   -0.437818
     9  O   -0.273804
    10  H    0.127201
    11  H    0.130758
    12  H    0.132421
    13  H    0.061233
    14  H    0.117286
    15  H    0.097308
    16  H    0.090777
    17  H    0.138359
    18  H    0.125976
    19  H    0.194427
 Sum of Mulliken charges =   0.00000

 Dipole moment (field-independent basis, Debye):
    X=              0.3365    Y=             -1.0517    Z=              0.3282  Tot=              1.1520
 Quadrupole moment (field-independent basis, Debye-Ang):
   XX=            -53.0041   YY=            -49.1834   ZZ=            -53.5512
   XY=              1.0701   XZ=              1.0937   YZ=             -0.6157

  Exact polarizability:  92.900  -6.766  78.904  -2.018   1.394  60.825
 Approx polarizability: 122.848 -17.641 114.540  -8.082   6.856  93.258

                      1                      2                      3
                      A                      A                      A
 Frequencies --     34.4356                82.9675               121.3275
 Red. masses --      4.4820                 3.2758                 3.6760
 Frc consts  --      0.0031                 0.0133                 0.0319
 IR Inten    --      0.4790                 0.4936                 0.6851

                      4                      5                      6
                      A                      A                      A
 Frequencies --    184.9983               212.6629               302.5349
 Red. masses --      2.8582                 1.1332                 3.0651
 Frc consts  --      0.0576                 0.0302                 0.1653
 IR Inten    --      4.1516                 0.5111                 1.4463

                      7                      8                      9
                      A                      A                      A
 Frequencies --    344.3928               349.2434               382.1196
 Red. masses --      3.8147                 2.7626                 2.5611
 Frc consts  --      0.2666                 0.1985                 0.2203
 IR Inten    --      2.7066                 3.2385                 0.7730

                     10                     11                     12
                      A                      A                      A
 Frequencies --    502.8741               517.2297               618.0395
 Red. masses --      2.7208                 4.0349                 1.2059
 Frc consts  --      0.4054                 0.6360                 0.2714
 IR Inten    --      3.9798                 7.5743                41.7235

                     13                     14                     15
                      A                      A                      A
 Frequencies --    637.3282               698.6076               756.6382
 Red. masses --      1.2205                 4.9835                 4.4107
 Frc consts  --      0.2921                 1.4330                 1.4878
 IR Inten    --     43.7825                 2.4598                 1.9584

                     16                     17                     18
                      A                      A                      A
 Frequencies --    824.0681               860.5147               892.2584
 Red. masses --      3.1252                 2.2960                 2.1497
 Frc consts  --      1.2504                 1.0017                 1.0084
 IR Inten    --      9.6896                 8.1242                33.4371

                     19                     20                     21
                      A                      A                      A
 Frequencies --    935.0333               960.7585              1025.4512
 Red. masses --      2.1600                 3.5881                 2.1369
 Frc consts  --      1.1127                 1.9514                 1.3239
 IR Inten    --     22.7301                 3.4688                14.7918

                     22                     23                     24
                      A                      A                      A
 Frequencies --   1054.4141              1068.8850              1114.1291
 Red. masses --      3.1592                 5.3262                 1.8758
 Frc consts  --      2.0694                 3.5853                 1.3718
 IR Inten    --     33.9666                33.8211                19.8191

                     25                     26                     27
                      A                      A                      A
 Frequencies --   1129.2824              1140.1703              1171.2821
 Red. masses --      2.4049                 2.2199                 2.7174
 Frc consts  --      1.8070                 1.7003                 2.1965
 IR Inten    --     92.1364                39.5032               119.4487

                     28                     29                     30
                      A                      A                      A
 Frequencies --   1232.9348              1257.6230              1289.3170
 Red. masses --      1.1999                 1.2382                 1.3157
 Frc consts  --      1.0746                 1.1539                 1.2886
 IR Inten    --      9.5390                 7.9933                11.3097

                     31                     32                     33
                      A                      A                      A
 Frequencies --   1339.7366              1352.0327              1386.1060
 Red. masses --      1.2584                 1.3278                 1.2984
 Frc consts  --      1.3308                 1.4301                 1.4697
 IR Inten    --      5.5760                 1.8753                29.2925

                     34                     35                     36
                      A                      A                      A
 Frequencies --   1397.2789              1400.7615              1438.9309
 Red. masses --      1.2639                 1.3121                 1.5399
 Frc consts  --      1.4538                 1.5168                 1.8786
 IR Inten    --      2.4073                 7.7809                58.9552

                     37                     38                     39
                      A                      A                      A
 Frequencies --   1462.0098              1484.4921              1485.6342
 Red. masses --      1.1004                 1.0618                 1.0542
 Frc consts  --      1.3858                 1.3787                 1.3709
 IR Inten    --      3.1822                 5.8057                 1.5949

                     40                     41                     42
                      A                      A                      A
 Frequencies --   1515.8294              2242.4714              2917.2056
 Red. masses --      1.1087                 5.9264                 1.0819
 Frc consts  --      1.5010                17.5588                 5.4249
 IR Inten    --      2.8550                 2.2097                99.1029

                     43                     44                     45
                      A                      A                      A
 Frequencies --   2992.5975              3017.8827              3034.6215
 Red. masses --      1.0704                 1.0599                 1.0859
 Frc consts  --      5.6479                 5.6877                 5.8916
 IR Inten    --     50.5068                17.0273                36.0874

                     46                     47                     48
                      A                      A                      A
 Frequencies --   3054.9932              3063.4730              3103.7817
 Red. masses --      1.0343                 1.0991                 1.0951
 Frc consts  --      5.6875                 6.0775                 6.2158
 IR Inten    --      7.7479                28.0053                22.7721

                     49                     50                     51
                      A                      A                      A
 Frequencies --   3134.9765              3140.5341              3508.1025
 Red. masses --      1.1020                 1.1030                 1.1624
 Frc consts  --      6.3814                 6.4095                 8.4287
 IR Inten    --     13.5759                16.8569                64.9670

 - Thermochemistry -
 -------------------
 Temperature   298.150 Kelvin.  Pressure   1.00000 Atm.
 Atom     1 has atomic number  6 and mass  12.00000

 Molecular mass:   126.06808 amu.
 Principal axes and moments of inertia in atomic units:
                           1         2         3
     Eigenvalues --   590.400171675.393222045.00136
           X            0.99975   0.02255   0.00074
           Y           -0.02254   0.99958  -0.01843
           Z           -0.00116   0.01841   0.99983
 This molecule is an asymmetric top.
 Rotational symmetry number  1.
 Warning -- assumption of classical behavior for rotation
           may cause significant error
 Rotational temperatures (Kelvin)      0.14670     0.05170     0.04235
 Rotational constants (GHZ):           3.05681     1.07720     0.88251
 Zero-point vibrational energy     413758.2 (Joules/Mol)
                                   98.89059 (Kcal/Mol)
 Warning -- explicit consideration of  12 degrees of freedom as
           vibrations may cause significant error
 Vibrational temperatures:     49.55   119.37   174.56   266.17   305.97
          (Kelvin)            435.28   495.50   502.48   549.78   723.52
                              744.18   889.22   916.97  1005.14  1088.63
                             1185.65  1238.09  1283.76  1345.30  1382.32
                             1475.39  1517.06  1537.89  1602.98  1624.78
                             1640.45  1685.21  1773.92  1809.44  1855.04
                             1927.58  1945.27  1994.29  2010.37  2015.38
                             2070.30  2103.50  2135.85  2137.49  2180.94
                             3226.41  4197.20  4305.67  4342.05  4366.14
                             4395.45  4407.65  4465.64  4510.53  4518.52
                             5047.37

 Zero-point correction=                           0.157592 (Hartree/Particle)
 Thermal correction to Energy=                    0.166850
 Thermal correction to Enthalpy=                  0.167794
 Thermal correction to Gibbs Free Energy=         0.122603
 Sum of electronic and zero-point Energies=           -423.000349
 Sum of electronic and thermal Energies=              -422.991091
 Sum of electronic and thermal Enthalpies=            -422.990147
 Sum of electronic and thermal Free Energies=         -423.035339

                     E (Thermal)             CV                S
                      KCal/Mol        Cal/Mol-Kelvin    Cal/Mol-Kelvin
 Total                  104.700             33.847             95.114
 Electronic               0.000              0.000              0.000
 Translational            0.889              2.981             40.409
 Rotational               0.889              2.981             29.094
 Vibrational            102.922             27.885             25.612
 Vibration     1          0.594              1.983              5.556
 Vibration     2          0.600              1.961              3.819
 Vibration     3          0.609              1.931              3.079
 Vibration     4          0.631              1.860              2.277
 Vibration     5          0.644              1.822              2.021
 Vibration     6          0.694              1.669              1.403
 Vibration     7          0.723              1.587              1.192
 Vibration     8          0.727              1.577              1.170
 Vibration     9          0.752              1.508              1.031
 Vibration    10          0.858              1.244              0.651
 Vibration    11          0.872              1.212              0.616
 Vibration    12          0.978              0.994              0.420

 Normal termination of Gaussian 09 at Tue Jan 28 05:28:38 2020.
