 Gaussian 09, Revision D.01,
 Gaussian 09:  ES64L-G09RevD.01 24-Apr-2013

 -----------------------------
 # b3lyp 6-31G(2df,p) opt Freq
 -----------------------------

 -----
 titel
 -----
 Symbolic Z-matrix:
 Charge =  0 Multiplicity = 1

 SCF Done:  E(RB3LYP) =  -423.203763862     A.U. after   14 cycles
 Optimization completed.
    -- Stationary point found.
 Normal termination of Gaussian 09 at Tue Jan 28 00:38:11 2020.

 ----------------------------------------------------------------------
 #N Geom=AllCheck Guess=TCheck SCRF=Check GenChk RB3LYP/6-31G(2df,p) Fr
 eq
 ----------------------------------------------------------------------

 Structure from the checkpoint file:  "/scratch/puck/g09_fce7c98b-055d-41a7-89f3-b85159ddda51/Gau-107565.chk"
 -----
 titel
 -----
 Charge =  0 Multiplicity = 1

                         Standard orientation:
 ---------------------------------------------------------------------
 Center     Atomic      Atomic             Coordinates (Angstroms)
 Number     Number       Type             X           Y           Z
 ---------------------------------------------------------------------
      1          6           0       -1.854092   -1.230722   -0.530689
      2          6           0       -0.680008   -0.346562   -0.106261
      3          6           0        0.469773   -0.261813   -1.154600
      4          6           0        1.783969   -0.196553   -0.355471
      5          8           0        2.159876    1.182844   -0.234625
      6          6           0        1.389656   -0.796499    0.977232
      7          6           0        0.066156   -0.860589    1.114888
      8          6           0       -1.160828    1.071356    0.230420
      9          8           0       -2.314814    1.399269    0.330291
     10          1           0       -2.628578   -1.244759    0.240111
     11          1           0       -2.315215   -0.849578   -1.446715
     12          1           0       -1.517315   -2.255965   -0.710580
     13          1           0        0.450022   -1.172227   -1.760577
     14          1           0        0.386566    0.593139   -1.831385
     15          1           0        2.594810   -0.749618   -0.850407
     16          1           0        2.859118    1.246716    0.424481
     17          1           0        2.115925   -1.085983    1.729991
     18          1           0       -0.465044   -1.200363    1.998044
     19          1           0       -0.328536    1.790027    0.388596
 ---------------------------------------------------------------------

 SCF Done:  E(RB3LYP) =  -423.203763862     A.U. after    1 cycles

 The electronic state is 1-A.
 Alpha  occ. eigenvalues --  -19.14332 -19.13496 -10.26128 -10.24263 -10.20545
 Alpha  occ. eigenvalues --  -10.19850 -10.19278 -10.19051 -10.17646  -1.04166
 Alpha  occ. eigenvalues --   -1.02286  -0.85811  -0.75549  -0.72170  -0.66806
 Alpha  occ. eigenvalues --   -0.60984  -0.56855  -0.53932  -0.51258  -0.50521
 Alpha  occ. eigenvalues --   -0.45533  -0.44007  -0.42839  -0.41437  -0.39107
 Alpha  occ. eigenvalues --   -0.38993  -0.38004  -0.36663  -0.35483  -0.34041
 Alpha  occ. eigenvalues --   -0.32459  -0.28099  -0.27337  -0.23821
 Alpha virt. eigenvalues --   -0.02969   0.01842   0.08060   0.10520   0.12119
 Alpha virt. eigenvalues --    0.12640   0.14297   0.14981   0.15874   0.16556
 Alpha virt. eigenvalues --    0.17012   0.18376   0.19883   0.20952   0.22607

 Mulliken charges:
               1
     1  C   -0.450769
     2  C    0.162318
     3  C   -0.275647
     4  C    0.079633
     5  O   -0.431947
     6  C   -0.114340
     7  C   -0.096449
     8  C    0.129456
     9  O   -0.259003
    10  H    0.131042
    11  H    0.125583
    12  H    0.110692
    13  H    0.109550
    14  H    0.119818
    15  H    0.070330
    16  H    0.280921
    17  H    0.098994
    18  H    0.110107
    19  H    0.099713
 Sum of Mulliken charges =   0.00000

 Dipole moment (field-independent basis, Debye):
    X=              2.8710    Y=             -2.1098    Z=              0.5318  Tot=              3.6023
 Quadrupole moment (field-independent basis, Debye-Ang):
   XX=            -54.9598   YY=            -56.3652   ZZ=            -50.7838
   XY=              3.5042   XZ=              3.7374   YZ=              0.2553

  Exact polarizability:  97.446  -0.200  68.743   1.379  -1.177  67.007
 Approx polarizability: 148.810  -4.257 102.912  -0.952  -2.898  99.082

                      1                      2                      3
                      A                      A                      A
 Frequencies --     79.2073                92.2988               178.3343
 Red. masses --      4.6965                 4.0440                 2.5485
 Frc consts  --      0.0174                 0.0203                 0.0478
 IR Inten    --      2.6964                 0.0792                 1.3069

                      4                      5                      6
                      A                      A                      A
 Frequencies --    211.1815               257.4087               261.8333
 Red. masses --      1.0959                 3.4296                 1.1866
 Frc consts  --      0.0288                 0.1339                 0.0479
 IR Inten    --      1.0056                 8.1373               115.6138

                      7                      8                      9
                      A                      A                      A
 Frequencies --    289.7575               372.7430               381.1729
 Red. masses --      2.9787                 2.4355                 2.4256
 Frc consts  --      0.1473                 0.1994                 0.2076
 IR Inten    --      0.7077                 2.2488                 1.9334

                     10                     11                     12
                      A                      A                      A
 Frequencies --    394.7688               494.2970               551.9979
 Red. masses --      2.3396                 3.6741                 3.3000
 Frc consts  --      0.2148                 0.5289                 0.5924
 IR Inten    --      6.6174                 1.6757                 4.3860

                     13                     14                     15
                      A                      A                      A
 Frequencies --    713.0498               765.7697               790.1514
 Red. masses --      3.8726                 2.3657                 3.8321
 Frc consts  --      1.1601                 0.8174                 1.4096
 IR Inten    --      6.8301                20.2947                 4.5828

                     16                     17                     18
                      A                      A                      A
 Frequencies --    813.4487               855.9007               907.0776
 Red. masses --      2.1679                 2.3064                 2.3580
 Frc consts  --      0.8452                 0.9955                 1.1431
 IR Inten    --     20.9195                10.1569                 8.7226

                     19                     20                     21
                      A                      A                      A
 Frequencies --    932.9024               953.6108               982.4057
 Red. masses --      2.1267                 2.3699                 1.3242
 Frc consts  --      1.0905                 1.2698                 0.7530
 IR Inten    --     30.8071                 3.2038                 1.4443

                     22                     23                     24
                      A                      A                      A
 Frequencies --   1014.6352              1020.6741              1047.8145
 Red. masses --      1.8933                 2.0105                 1.7380
 Frc consts  --      1.1484                 1.2341                 1.1242
 IR Inten    --     36.5705                40.6984                 4.3592

                     25                     26                     27
                      A                      A                      A
 Frequencies --   1111.6722              1154.0968              1173.8181
 Red. masses --      1.1771                 1.9417                 1.9741
 Frc consts  --      0.8571                 1.5238                 1.6026
 IR Inten    --      1.2114                 6.6913                23.5228

                     28                     29                     30
                      A                      A                      A
 Frequencies --   1204.9657              1232.2714              1255.1838
 Red. masses --      2.5376                 1.4272                 1.6554
 Frc consts  --      2.1708                 1.2768                 1.5366
 IR Inten    --      2.8916                31.4639                 3.0148

                     31                     32                     33
                      A                      A                      A
 Frequencies --   1312.1883              1346.7859              1377.8827
 Red. masses --      1.3662                 1.3895                 1.7044
 Frc consts  --      1.3860                 1.4849                 1.9065
 IR Inten    --      2.4593                24.7710                12.5152

                     34                     35                     36
                      A                      A                      A
 Frequencies --   1398.0631              1406.6007              1424.1774
 Red. masses --      1.4075                 1.2417                 1.2255
 Frc consts  --      1.6208                 1.4474                 1.4645
 IR Inten    --      5.9677                 0.7756                 9.8733

                     37                     38                     39
                      A                      A                      A
 Frequencies --   1472.8167              1488.8787              1493.2821
 Red. masses --      1.0920                 1.0489                 1.0532
 Frc consts  --      1.3956                 1.3699                 1.3837
 IR Inten    --      4.8784                 3.4614                 5.9798

                     40                     41                     42
                      A                      A                      A
 Frequencies --   1672.2461              1822.5411              2916.0246
 Red. masses --      6.5735                10.3622                 1.0854
 Frc consts  --     10.8305                20.2796                 5.4376
 IR Inten    --      4.7278               201.6819                54.6212

                     43                     44                     45
                      A                      A                      A
 Frequencies --   2996.8430              3043.0450              3061.2022
 Red. masses --      1.0840                 1.0354                 1.0603
 Frc consts  --      5.7362                 5.6492                 5.8541
 IR Inten    --     63.5597                17.0540                20.5797

                     46                     47                     48
                      A                      A                      A
 Frequencies --   3108.0528              3113.7875              3124.7796
 Red. masses --      1.1050                 1.1021                 1.1011
 Frc consts  --      6.2891                 6.2957                 6.3346
 IR Inten    --      9.6582                19.5938                14.4639

                     49                     50                     51
                      A                      A                      A
 Frequencies --   3175.0992              3200.4507              3811.7258
 Red. masses --      1.0842                 1.1043                 1.0663
 Frc consts  --      6.4401                 6.6642                 9.1281
 IR Inten    --      5.2694                16.5709                22.2963

 - Thermochemistry -
 -------------------
 Temperature   298.150 Kelvin.  Pressure   1.00000 Atm.
 Atom     1 has atomic number  6 and mass  12.00000

 Molecular mass:   126.06808 amu.
 Principal axes and moments of inertia in atomic units:
                           1         2         3
     Eigenvalues --   676.460231394.248561586.22139
           X            0.99919   0.03711   0.01584
           Y           -0.03748   0.99902   0.02365
           Z           -0.01495  -0.02422   0.99959
 This molecule is an asymmetric top.
 Rotational symmetry number  1.
 Warning -- assumption of classical behavior for rotation
           may cause significant error
 Rotational temperatures (Kelvin)      0.12804     0.06212     0.05460
 Rotational constants (GHZ):           2.66792     1.29442     1.13776
 Zero-point vibrational energy     414272.3 (Joules/Mol)
                                   99.01346 (Kcal/Mol)
 Warning -- explicit consideration of  12 degrees of freedom as
           vibrations may cause significant error
 Vibrational temperatures:    113.96   132.80   256.58   303.84   370.35
          (Kelvin)            376.72   416.90   536.29   548.42   567.98
                              711.18   794.20  1025.92  1101.77  1136.85
                             1170.37  1231.45  1305.08  1342.24  1372.03
                             1413.46  1459.83  1468.52  1507.57  1599.45
                             1660.49  1688.86  1733.67  1772.96  1805.93
                             1887.94  1937.72  1982.46  2011.50  2023.78
                             2049.07  2119.05  2142.16  2148.50  2405.99
                             2622.23  4195.50  4311.78  4378.26  4404.38
                             4471.79  4480.04  4495.86  4568.25  4604.73
                             5484.22

 Zero-point correction=                           0.157788 (Hartree/Particle)
 Thermal correction to Energy=                    0.166935
 Thermal correction to Enthalpy=                  0.167879
 Thermal correction to Gibbs Free Energy=         0.123946
 Sum of electronic and zero-point Energies=           -423.045976
 Sum of electronic and thermal Energies=              -423.036829
 Sum of electronic and thermal Enthalpies=            -423.035885
 Sum of electronic and thermal Free Energies=         -423.079818

                     E (Thermal)             CV                S
                      KCal/Mol        Cal/Mol-Kelvin    Cal/Mol-Kelvin
 Total                  104.753             34.147             92.465
 Electronic               0.000              0.000              0.000
 Translational            0.889              2.981             40.409
 Rotational               0.889              2.981             28.794
 Vibrational            102.976             28.185             23.263
 Vibration     1          0.600              1.963              3.910
 Vibration     2          0.602              1.955              3.611
 Vibration     3          0.629              1.869              2.346
 Vibration     4          0.643              1.824              2.033
 Vibration     5          0.667              1.750              1.679
 Vibration     6          0.669              1.743              1.650
 Vibration     7          0.686              1.693              1.475
 Vibration     8          0.744              1.528              1.068
 Vibration     9          0.751              1.510              1.035
 Vibration    10          0.762              1.481              0.982
 Vibration    11          0.850              1.263              0.673
 Vibration    12          0.907              1.135              0.540

 Optimization completed.
    -- Stationary point found.
 Normal termination of Gaussian 09 at Tue Jan 28 01:22:12 2020.
