 Gaussian 09, Revision D.01,
 Gaussian 09:  ES64L-G09RevD.01 24-Apr-2013

 -----------------------------
 # b3lyp 6-31G(2df,p) opt Freq
 -----------------------------

 -----
 titel
 -----
 Symbolic Z-matrix:
 Charge =  0 Multiplicity = 1

 SCF Done:  E(RB3LYP) =  -423.143221539     A.U. after   13 cycles
 Optimization completed.
    -- Stationary point found.
 Normal termination of Gaussian 09 at Mon Jan 27 11:45:43 2020.

 ----------------------------------------------------------------------
 #N Geom=AllCheck Guess=TCheck SCRF=Check GenChk RB3LYP/6-31G(2df,p) Fr
 eq
 ----------------------------------------------------------------------

 Structure from the checkpoint file:  "/scratch/puck/g09_5c3cb7aa-cec7-4bb2-84f6-75b9627a9b04/Gau-153182.chk"
 -----
 titel
 -----
 Charge =  0 Multiplicity = 1

                         Standard orientation:
 ---------------------------------------------------------------------
 Center     Atomic      Atomic             Coordinates (Angstroms)
 Number     Number       Type             X           Y           Z
 ---------------------------------------------------------------------
      1          6           0       -1.739982   -1.189147    0.000000
      2          6           0       -2.319623    0.208462   -0.000001
      3          6           0       -0.835969    0.000654    0.000000
      4          6           0        0.143928    0.556075    1.045974
      5          6           0        0.494493    1.653214    0.000002
      6          6           0        0.143928    0.556078   -1.045972
      7          8           0        1.279141   -0.304611   -1.183483
      8          6           0        1.510379   -1.045997   -0.000001
      9          8           0        1.279140   -0.304614    1.183483
     10          1           0       -1.813881   -1.773171    0.911967
     11          1           0       -1.813882   -1.773173   -0.911966
     12          1           0       -2.787221    0.568334   -0.911262
     13          1           0       -2.787223    0.568336    0.911259
     14          1           0       -0.194275    0.818253    2.050064
     15          1           0       -0.220422    2.478969    0.000003
     16          1           0        1.524125    2.013408    0.000003
     17          1           0       -0.194273    0.818259   -2.050062
     18          1           0        0.874545   -1.942582   -0.000003
     19          1           0        2.563336   -1.338873   -0.000001
 ---------------------------------------------------------------------

 SCF Done:  E(RB3LYP) =  -423.143221539     A.U. after    1 cycles

 The electronic state is 1-A.
 Alpha  occ. eigenvalues --  -19.14035 -19.14035 -10.26771 -10.23957 -10.23957
 Alpha  occ. eigenvalues --  -10.19943 -10.19548 -10.19223 -10.17849  -1.07191
 Alpha  occ. eigenvalues --   -0.99529  -0.87803  -0.80619  -0.67164  -0.65350
 Alpha  occ. eigenvalues --   -0.62451  -0.60890  -0.52906  -0.51626  -0.50039
 Alpha  occ. eigenvalues --   -0.48148  -0.45466  -0.44686  -0.41165  -0.39267
 Alpha  occ. eigenvalues --   -0.38349  -0.37709  -0.37187  -0.35368  -0.31250
 Alpha  occ. eigenvalues --   -0.28948  -0.28829  -0.25410  -0.23844
 Alpha virt. eigenvalues --    0.08680   0.09425   0.10060   0.11597   0.12806
 Alpha virt. eigenvalues --    0.12855   0.14738   0.15222   0.16224   0.16542
 Alpha virt. eigenvalues --    0.18313   0.19994   0.20489   0.20671   0.22007

 Mulliken charges:
               1
     1  C   -0.353251
     2  C   -0.369461
     3  C    0.377362
     4  C    0.031494
     5  C   -0.234816
     6  C    0.031494
     7  O   -0.284592
     8  C    0.035466
     9  O   -0.284592
    10  H    0.122148
    11  H    0.122148
    12  H    0.117363
    13  H    0.117363
    14  H    0.078705
    15  H    0.102359
    16  H    0.102752
    17  H    0.078705
    18  H    0.094185
    19  H    0.115168
 Sum of Mulliken charges =   0.00000

 Dipole moment (field-independent basis, Debye):
    X=             -1.7642    Y=              0.2660    Z=              0.0000  Tot=              1.7842
 Quadrupole moment (field-independent basis, Debye-Ang):
   XX=            -54.0063   YY=            -50.8897   ZZ=            -54.7063
   XY=             -1.1101   XZ=              0.0000   YZ=              0.0000

  Exact polarizability:  82.205  -1.386  75.482   0.000   0.000  66.160
 Approx polarizability: 112.824  -3.584 108.595   0.000   0.000 102.667

                      1                      2                      3
                      A                      A                      A
 Frequencies --    162.7867               207.6222               240.8326
 Red. masses --      3.6401                 2.8957                 2.6044
 Frc consts  --      0.0568                 0.0735                 0.0890
 IR Inten    --      0.5092                 0.2522                 0.6238

                      4                      5                      6
                      A                      A                      A
 Frequencies --    284.2334               361.6838               421.7627
 Red. masses --      2.2242                 3.4271                 2.6947
 Frc consts  --      0.1059                 0.2641                 0.2824
 IR Inten    --     10.5470                 0.9267                 3.7633

                      7                      8                      9
                      A                      A                      A
 Frequencies --    482.3625               521.3146               631.3338
 Red. masses --      3.2675                 4.4536                 3.4428
 Frc consts  --      0.4479                 0.7131                 0.8085
 IR Inten    --      0.4589                 1.7698                 4.6029

                     10                     11                     12
                      A                      A                      A
 Frequencies --    657.7189               776.5839               830.6402
 Red. masses --      4.6094                 1.0520                 3.0304
 Frc consts  --      1.1748                 0.3738                 1.2319
 IR Inten    --      1.0833                 0.2445                11.4744

                     13                     14                     15
                      A                      A                      A
 Frequencies --    847.4032               873.0389               908.1799
 Red. masses --      2.3178                 2.0181                 1.7223
 Frc consts  --      0.9806                 0.9063                 0.8370
 IR Inten    --      7.5304                 5.3949                 6.4387

                     16                     17                     18
                      A                      A                      A
 Frequencies --    927.0325               955.4343               972.0173
 Red. masses --      2.9394                 1.5773                 3.2654
 Frc consts  --      1.4883                 0.8483                 1.8178
 IR Inten    --     13.5695                19.1611                 9.2986

                     19                     20                     21
                      A                      A                      A
 Frequencies --    988.8381              1009.2106              1011.1854
 Red. masses --      4.1643                 2.5475                 4.1709
 Frc consts  --      2.3991                 1.5287                 2.5127
 IR Inten    --      7.7476                16.5860                53.4688

                     22                     23                     24
                      A                      A                      A
 Frequencies --   1055.3857              1080.7135              1087.6063
 Red. masses --      1.4080                 1.4792                 2.3174
 Frc consts  --      0.9240                 1.0179                 1.6151
 IR Inten    --      3.7039                 0.6826                25.3689

                     25                     26                     27
                      A                      A                      A
 Frequencies --   1124.7538              1148.2560              1151.7400
 Red. masses --      1.3266                 1.5474                 5.6386
 Frc consts  --      0.9888                 1.2021                 4.4069
 IR Inten    --      0.1412                 4.1734               147.2684

                     28                     29                     30
                      A                      A                      A
 Frequencies --   1186.9642              1188.6149              1221.3579
 Red. masses --      1.2881                 2.3392                 1.5196
 Frc consts  --      1.0692                 1.9471                 1.3356
 IR Inten    --      0.1497                68.7056                 0.1058

                     31                     32                     33
                      A                      A                      A
 Frequencies --   1241.0541              1266.3664              1268.1133
 Red. masses --      1.6753                 1.2046                 1.7567
 Frc consts  --      1.5203                 1.1382                 1.6644
 IR Inten    --      9.6499                 4.1775                 7.0850

                     34                     35                     36
                      A                      A                      A
 Frequencies --   1338.3064              1342.2285              1404.4970
 Red. masses --      1.4097                 1.2737                 2.0275
 Frc consts  --      1.4876                 1.3520                 2.3564
 IR Inten    --      5.6236                17.1930                18.5457

                     37                     38                     39
                      A                      A                      A
 Frequencies --   1443.1140              1464.5029              1466.5815
 Red. masses --      1.2057                 1.0982                 1.1188
 Frc consts  --      1.4795                 1.3877                 1.4179
 IR Inten    --      8.4010                 0.0061                 5.3446

                     40                     41                     42
                      A                      A                      A
 Frequencies --   1505.4443              1528.2735              2996.3094
 Red. masses --      1.5837                 1.0942                 1.0677
 Frc consts  --      2.1148                 1.5058                 5.6478
 IR Inten    --      1.9977                 0.3979                76.2278

                     43                     44                     45
                      A                      A                      A
 Frequencies --   3070.7211              3094.6221              3096.1911
 Red. masses --      1.0577                 1.0964                 1.0888
 Frc consts  --      5.8763                 6.1864                 6.1494
 IR Inten    --     18.1503                53.7760                76.0264

                     46                     47                     48
                      A                      A                      A
 Frequencies --   3100.1032              3121.2941              3125.9874
 Red. masses --      1.0925                 1.0514                 1.0569
 Frc consts  --      6.1860                 6.0353                 6.0847
 IR Inten    --      6.0398                16.6731                10.3889

                     49                     50                     51
                      A                      A                      A
 Frequencies --   3143.4585              3199.1838              3213.8012
 Red. masses --      1.1099                 1.1177                 1.1155
 Frc consts  --      6.4617                 6.7400                 6.7881
 IR Inten    --     20.7094                 0.7766                12.8495

 - Thermochemistry -
 -------------------
 Temperature   298.150 Kelvin.  Pressure   1.00000 Atm.
 Atom     1 has atomic number  6 and mass  12.00000

 Molecular mass:   126.06808 amu.
 Principal axes and moments of inertia in atomic units:
                           1         2         3
     Eigenvalues --   646.062831097.335731151.42396
           X            1.00000   0.00249   0.00000
           Y           -0.00249   1.00000   0.00000
           Z            0.00000   0.00000   1.00000
 This molecule is an asymmetric top.
 Rotational symmetry number  1.
 Warning -- assumption of classical behavior for rotation
           may cause significant error
 Rotational temperatures (Kelvin)      0.13406     0.07893     0.07522
 Rotational constants (GHZ):           2.79345     1.64466     1.56740
 Zero-point vibrational energy     423159.6 (Joules/Mol)
                                  101.13757 (Kcal/Mol)
 Warning -- explicit consideration of   8 degrees of freedom as
           vibrations may cause significant error
 Vibrational temperatures:    234.21   298.72   346.50   408.95   520.38
          (Kelvin)            606.82   694.01   750.05   908.35   946.31
                             1117.33  1195.10  1219.22  1256.11  1306.67
                             1333.79  1374.66  1398.51  1422.72  1452.03
                             1454.87  1518.46  1554.90  1564.82  1618.27
                             1652.08  1657.09  1707.77  1710.15  1757.26
                             1785.60  1822.02  1824.53  1925.52  1931.17
                             2020.76  2076.32  2107.09  2110.08  2166.00
                             2198.84  4311.02  4418.08  4452.47  4454.72
                             4460.35  4490.84  4497.59  4522.73  4602.91
                             4623.94

 Zero-point correction=                           0.161173 (Hartree/Particle)
 Thermal correction to Energy=                    0.168339
 Thermal correction to Enthalpy=                  0.169284
 Thermal correction to Gibbs Free Energy=         0.129959
 Sum of electronic and zero-point Energies=           -422.982049
 Sum of electronic and thermal Energies=              -422.974882
 Sum of electronic and thermal Enthalpies=            -422.973938
 Sum of electronic and thermal Free Energies=         -423.013263

                     E (Thermal)             CV                S
                      KCal/Mol        Cal/Mol-Kelvin    Cal/Mol-Kelvin
 Total                  105.635             29.362             82.767
 Electronic               0.000              0.000              0.000
 Translational            0.889              2.981             40.409
 Rotational               0.889              2.981             28.192
 Vibrational            103.857             23.400             14.166
 Vibration     1          0.623              1.888              2.517
 Vibration     2          0.641              1.829              2.064
 Vibration     3          0.658              1.778              1.797
 Vibration     4          0.683              1.703              1.508
 Vibration     5          0.736              1.551              1.115
 Vibration     6          0.784              1.423              0.886
 Vibration     7          0.839              1.289              0.704
 Vibration     8          0.876              1.203              0.607

 Optimization completed.
    -- Stationary point found.
 Normal termination of Gaussian 09 at Mon Jan 27 12:35:18 2020.
