 Gaussian 09, Revision D.01,
 Gaussian 09:  ES64L-G09RevD.01 24-Apr-2013

 -----------------------------
 # b3lyp 6-31G(2df,p) opt Freq
 -----------------------------

 -----
 titel
 -----
 Symbolic Z-matrix:
 Charge =  0 Multiplicity = 1

 SCF Done:  E(RB3LYP) =  -423.211802694     A.U. after   13 cycles
 Optimization completed.
    -- Stationary point found.
 Normal termination of Gaussian 09 at Mon Jan 27 12:20:08 2020.

 ----------------------------------------------------------------------
 #N Geom=AllCheck Guess=TCheck SCRF=Check GenChk RB3LYP/6-31G(2df,p) Fr
 eq
 ----------------------------------------------------------------------

 Structure from the checkpoint file:  "/scratch/puck/g09_f497af48-5f45-4929-8677-93b019f8b942/Gau-97865.chk"
 -----
 titel
 -----
 Charge =  0 Multiplicity = 1

                         Standard orientation:
 ---------------------------------------------------------------------
 Center     Atomic      Atomic             Coordinates (Angstroms)
 Number     Number       Type             X           Y           Z
 ---------------------------------------------------------------------
      1          6           0       -1.986354   -0.533657    0.087044
      2          6           0       -1.686027    0.904956   -0.437292
      3          6           0       -0.159385    0.897188   -0.644682
      4          6           0        0.627132    0.828751    0.677960
      5          8           0        1.931100    0.451596    0.299552
      6          6           0        1.731398   -0.606265   -0.660973
      7          6           0        0.219739   -0.582494   -0.924535
      8          6           0       -0.569987   -1.067220    0.313048
      9          8           0        0.005193   -0.254271    1.371869
     10          1           0       -2.558471   -0.540962    1.017062
     11          1           0       -2.527592   -1.133528   -0.652622
     12          1           0       -2.203970    1.110999   -1.377839
     13          1           0       -1.991915    1.676716    0.274831
     14          1           0        0.234524    1.643751   -1.334349
     15          1           0        0.682753    1.700811    1.328586
     16          1           0        2.319760   -0.389025   -1.559640
     17          1           0        2.073111   -1.560763   -0.241941
     18          1           0       -0.099217   -1.013757   -1.873691
     19          1           0       -0.478416   -2.120399    0.584812
 ---------------------------------------------------------------------

 SCF Done:  E(RB3LYP) =  -423.211802694     A.U. after    1 cycles

 The electronic state is 1-A.
 Alpha  occ. eigenvalues --  -19.13470 -19.13380 -10.26893 -10.23203 -10.22779
 Alpha  occ. eigenvalues --  -10.19497 -10.18997 -10.18638 -10.18166  -1.07353
 Alpha  occ. eigenvalues --   -0.99526  -0.83384  -0.74930  -0.73667  -0.66483
 Alpha  occ. eigenvalues --   -0.60765  -0.57360  -0.54617  -0.52700  -0.50557
 Alpha  occ. eigenvalues --   -0.47550  -0.44144  -0.43710  -0.40180  -0.38608
 Alpha  occ. eigenvalues --   -0.36887  -0.36749  -0.35649  -0.34284  -0.33519
 Alpha  occ. eigenvalues --   -0.32413  -0.31219  -0.25633  -0.24515
 Alpha virt. eigenvalues --    0.08461   0.10570   0.12249   0.12892   0.13309
 Alpha virt. eigenvalues --    0.13961   0.14694   0.15560   0.15815   0.17074
 Alpha virt. eigenvalues --    0.17581   0.18311   0.20206   0.21249   0.21864

 Mulliken charges:
               1
     1  C   -0.217742
     2  C   -0.235454
     3  C   -0.062492
     4  C    0.214240
     5  O   -0.260033
     6  C   -0.099078
     7  C   -0.085301
     8  C    0.105645
     9  O   -0.295367
    10  H    0.109607
    11  H    0.093619
    12  H    0.101642
    13  H    0.107768
    14  H    0.075257
    15  H    0.088289
    16  H    0.103450
    17  H    0.105136
    18  H    0.076623
    19  H    0.074191
 Sum of Mulliken charges =   0.00000

 Dipole moment (field-independent basis, Debye):
    X=             -1.4596    Y=             -0.3504    Z=             -2.0873  Tot=              2.5710
 Quadrupole moment (field-independent basis, Debye-Ang):
   XX=            -55.6634   YY=            -50.0006   ZZ=            -54.2277
   XY=             -1.1976   XZ=             -1.6624   YZ=              1.4995

  Exact polarizability:  79.105  -0.952  71.963  -1.990   1.555  66.465
 Approx polarizability: 107.019   1.152 107.694  -1.132   3.258 104.525

                      1                      2                      3
                      A                      A                      A
 Frequencies --    221.4082               241.9511               338.2645
 Red. masses --      2.0662                 2.4517                 2.5244
 Frc consts  --      0.0597                 0.0846                 0.1702
 IR Inten    --      0.7483                 1.9397                 0.2050

                      4                      5                      6
                      A                      A                      A
 Frequencies --    354.1552               520.5553               535.1190
 Red. masses --      3.0306                 5.8998                 5.8496
 Frc consts  --      0.2240                 0.9419                 0.9869
 IR Inten    --      1.3417                 4.8536                 3.3284

                      7                      8                      9
                      A                      A                      A
 Frequencies --    646.6724               743.3361               774.1692
 Red. masses --      4.7101                 3.7880                 2.8970
 Frc consts  --      1.1605                 1.2332                 1.0230
 IR Inten    --      0.8450                 1.7819                 1.2561

                     10                     11                     12
                      A                      A                      A
 Frequencies --    799.4054               842.7588               887.6886
 Red. masses --      1.7041                 4.3849                 2.8974
 Frc consts  --      0.6416                 1.8349                 1.3452
 IR Inten    --      1.5018                17.0681                35.7681

                     13                     14                     15
                      A                      A                      A
 Frequencies --    897.7622               907.9309               934.3356
 Red. masses --      2.8588                 2.5358                 3.0979
 Frc consts  --      1.3576                 1.2316                 1.5934
 IR Inten    --      0.2952                15.0087                18.6486

                     16                     17                     18
                      A                      A                      A
 Frequencies --    944.2565               958.5597               961.2459
 Red. masses --      3.9820                 2.4459                 1.6384
 Frc consts  --      2.0918                 1.3241                 0.8920
 IR Inten    --     46.6685                60.0155                 8.7022

                     19                     20                     21
                      A                      A                      A
 Frequencies --    983.4822              1004.3922              1036.8763
 Red. masses --      2.2024                 2.6132                 1.8770
 Frc consts  --      1.2551                 1.5532                 1.1890
 IR Inten    --      2.0213                15.9003                 2.5405

                     22                     23                     24
                      A                      A                      A
 Frequencies --   1039.1251              1087.6938              1101.5508
 Red. masses --      1.7931                 3.3278                 2.0006
 Frc consts  --      1.1407                 2.3197                 1.4303
 IR Inten    --     27.5596                45.2366                21.4185

                     25                     26                     27
                      A                      A                      A
 Frequencies --   1141.8074              1171.5608              1206.3798
 Red. masses --      1.1899                 1.5273                 1.4251
 Frc consts  --      0.9140                 1.2351                 1.2220
 IR Inten    --     17.3449                 7.5289                 0.9176

                     28                     29                     30
                      A                      A                      A
 Frequencies --   1225.0279              1250.3302              1270.0813
 Red. masses --      1.6294                 1.3572                 1.2632
 Frc consts  --      1.4407                 1.2501                 1.2006
 IR Inten    --      2.9201                 3.5483                 1.5871

                     31                     32                     33
                      A                      A                      A
 Frequencies --   1273.3496              1293.0464              1299.7205
 Red. masses --      1.3365                 1.4237                 1.6670
 Frc consts  --      1.2768                 1.4025                 1.6592
 IR Inten    --      1.6720                 2.4171                 6.5082

                     34                     35                     36
                      A                      A                      A
 Frequencies --   1316.8044              1328.5407              1353.0960
 Red. masses --      1.4700                 1.5443                 1.5707
 Frc consts  --      1.5018                 1.6059                 1.6944
 IR Inten    --     11.8629                 1.9021                10.4829

                     37                     38                     39
                      A                      A                      A
 Frequencies --   1359.9018              1395.8217              1479.8626
 Red. masses --      1.3978                 1.5033                 1.0850
 Frc consts  --      1.5231                 1.7256                 1.4000
 IR Inten    --      2.2775                 7.9171                 0.8434

                     40                     41                     42
                      A                      A                      A
 Frequencies --   1503.8248              1521.1187              3022.1528
 Red. masses --      1.0983                 1.0934                 1.0574
 Frc consts  --      1.4634                 1.4906                 5.6899
 IR Inten    --      2.1185                 0.2814                65.5320

                     43                     44                     45
                      A                      A                      A
 Frequencies --   3047.1430              3059.4881              3061.4263
 Red. masses --      1.0639                 1.0615                 1.1088
 Frc consts  --      5.8202                 5.8541                 6.1228
 IR Inten    --     25.0225                39.3792                32.4794

                     46                     47                     48
                      A                      A                      A
 Frequencies --   3092.7929              3101.2491              3114.0609
 Red. masses --      1.1031                 1.0893                 1.0884
 Frc consts  --      6.2169                 6.1729                 6.2188
 IR Inten    --      8.3823                41.3451                22.4052

                     49                     50                     51
                      A                      A                      A
 Frequencies --   3115.1176              3121.0266              3138.1709
 Red. masses --      1.1000                 1.0897                 1.0924
 Frc consts  --      6.2894                 6.2537                 6.3383
 IR Inten    --     17.8843                42.7423                24.4218

 - Thermochemistry -
 -------------------
 Temperature   298.150 Kelvin.  Pressure   1.00000 Atm.
 Atom     1 has atomic number  6 and mass  12.00000

 Molecular mass:   126.06808 amu.
 Principal axes and moments of inertia in atomic units:
                           1         2         3
     Eigenvalues --   540.651981046.612541057.87666
           X            0.99970  -0.01605  -0.01871
           Y            0.02082   0.95630   0.29165
           Z            0.01321  -0.29195   0.95634
 This molecule is an asymmetric top.
 Rotational symmetry number  1.
 Warning -- assumption of classical behavior for rotation
           may cause significant error
 Rotational temperatures (Kelvin)      0.16020     0.08276     0.08188
 Rotational constants (GHZ):           3.33808     1.72436     1.70600
 Zero-point vibrational energy     430808.7 (Joules/Mol)
                                  102.96576 (Kcal/Mol)
 Warning -- explicit consideration of   6 degrees of freedom as
           vibrations may cause significant error
 Vibrational temperatures:    318.56   348.11   486.69   509.55   748.96
          (Kelvin)            769.92   930.42  1069.49  1113.86  1150.16
                             1212.54  1277.18  1291.68  1306.31  1344.30
                             1358.57  1379.15  1383.02  1415.01  1445.09
                             1491.83  1495.07  1564.95  1584.88  1642.80
                             1685.61  1735.71  1762.54  1798.94  1827.36
                             1832.06  1860.40  1870.01  1894.59  1911.47
                             1946.80  1956.59  2008.27  2129.19  2163.67
                             2188.55  4348.20  4384.15  4401.92  4404.70
                             4449.83  4462.00  4480.43  4481.95  4490.46
                             4515.12

 Zero-point correction=                           0.164086 (Hartree/Particle)
 Thermal correction to Energy=                    0.170275
 Thermal correction to Enthalpy=                  0.171219
 Thermal correction to Gibbs Free Energy=         0.133844
 Sum of electronic and zero-point Energies=           -423.047716
 Sum of electronic and thermal Energies=              -423.041528
 Sum of electronic and thermal Enthalpies=            -423.040584
 Sum of electronic and thermal Free Energies=         -423.077959

                     E (Thermal)             CV                S
                      KCal/Mol        Cal/Mol-Kelvin    Cal/Mol-Kelvin
 Total                  106.849             26.478             78.663
 Electronic               0.000              0.000              0.000
 Translational            0.889              2.981             40.409
 Rotational               0.889              2.981             27.884
 Vibrational            105.072             20.516             10.370
 Vibration     1          0.648              1.808              1.948
 Vibration     2          0.658              1.776              1.788
 Vibration     3          0.719              1.599              1.220
 Vibration     4          0.730              1.567              1.148
 Vibration     5          0.876              1.204              0.609
 Vibration     6          0.890              1.172              0.576

 Optimization completed.
    -- Stationary point found.
 Normal termination of Gaussian 09 at Mon Jan 27 13:06:41 2020.
