 Gaussian 09, Revision D.01,
 Gaussian 09:  ES64L-G09RevD.01 24-Apr-2013

 -----------------------------
 # b3lyp 6-31G(2df,p) opt Freq
 -----------------------------

 -----
 titel
 -----
 Symbolic Z-matrix:
 Charge =  0 Multiplicity = 1

 SCF Done:  E(RB3LYP) =  -423.213261085     A.U. after   14 cycles
 Optimization completed.
    -- Stationary point found.
 Normal termination of Gaussian 09 at Mon Jan 27 22:08:51 2020.

 ----------------------------------------------------------------------
 #N Geom=AllCheck Guess=TCheck SCRF=Check GenChk RB3LYP/6-31G(2df,p) Fr
 eq
 ----------------------------------------------------------------------

 Structure from the checkpoint file:  "/scratch/puck/g09_4d2ca1fa-54ce-4661-8b43-5d04c05b00e1/Gau-51378.chk"
 -----
 titel
 -----
 Charge =  0 Multiplicity = 1

                         Standard orientation:
 ---------------------------------------------------------------------
 Center     Atomic      Atomic             Coordinates (Angstroms)
 Number     Number       Type             X           Y           Z
 ---------------------------------------------------------------------
      1          6           0       -0.376543    2.081287    0.421145
      2          6           0       -0.213589    0.813659   -0.420827
      3          6           0       -1.386066   -0.170171   -0.223065
      4          8           0       -2.540219    0.151118   -0.123642
      5          6           0       -0.854923   -1.611959   -0.177658
      6          6           0        0.628816   -1.438826    0.029299
      7          8           0        0.931794   -0.636868    1.181794
      8          6           0        1.020644   -0.023595   -0.120128
      9          6           0        2.387854    0.433386   -0.547406
     10          1           0        0.363871    2.839565    0.151037
     11          1           0       -1.375249    2.497387    0.268337
     12          1           0       -0.260700    1.844993    1.482627
     13          1           0       -0.210485    1.082217   -1.488692
     14          1           0       -1.349201   -2.176072    0.617935
     15          1           0       -1.078555   -2.113013   -1.128399
     16          1           0        1.322510   -2.252461   -0.168688
     17          1           0        2.652932    1.377084   -0.059066
     18          1           0        3.141813   -0.310697   -0.278320
     19          1           0        2.423305    0.594312   -1.630143
 ---------------------------------------------------------------------

 SCF Done:  E(RB3LYP) =  -423.213261085     A.U. after    1 cycles

 The electronic state is 1-A.
 Alpha  occ. eigenvalues --  -19.15444 -19.13473 -10.27190 -10.24725 -10.24262
 Alpha  occ. eigenvalues --  -10.20057 -10.19796 -10.19156 -10.17953  -1.07781
 Alpha  occ. eigenvalues --   -1.04499  -0.81346  -0.77043  -0.73886  -0.66002
 Alpha  occ. eigenvalues --   -0.63215  -0.56569  -0.53796  -0.50166  -0.46862
 Alpha  occ. eigenvalues --   -0.46072  -0.45255  -0.42778  -0.42193  -0.41208
 Alpha  occ. eigenvalues --   -0.39965  -0.38462  -0.37162  -0.36673  -0.35615
 Alpha  occ. eigenvalues --   -0.34682  -0.29321  -0.27230  -0.24472
 Alpha virt. eigenvalues --   -0.01852   0.08552   0.09524   0.11135   0.11682
 Alpha virt. eigenvalues --    0.13052   0.13416   0.15105   0.15878   0.16485
 Alpha virt. eigenvalues --    0.16748   0.18449   0.19766   0.19954   0.20970

 Mulliken charges:
               1
     1  C   -0.402752
     2  C   -0.165748
     3  C    0.392244
     4  O   -0.308795
     5  C   -0.357121
     6  C   -0.022888
     7  O   -0.302448
     8  C    0.407536
     9  C   -0.488812
    10  H    0.113184
    11  H    0.139890
    12  H    0.137104
    13  H    0.099352
    14  H    0.143659
    15  H    0.129681
    16  H    0.096432
    17  H    0.134339
    18  H    0.131955
    19  H    0.123187
 Sum of Mulliken charges =   0.00000

 Dipole moment (field-independent basis, Debye):
    X=              2.3729    Y=             -0.5822    Z=             -1.9673  Tot=              3.1368
 Quadrupole moment (field-independent basis, Debye-Ang):
   XX=            -60.1926   YY=            -48.8316   ZZ=            -53.9875
   XY=              1.8159   XZ=             -2.0072   YZ=              1.0749

  Exact polarizability:  81.696   1.918  82.479  -1.648   0.146  59.961
 Approx polarizability: 115.142   0.483 114.450  -0.988  -0.892  99.612

                      1                      2                      3
                      A                      A                      A
 Frequencies --     69.0401               175.5829               213.4777
 Red. masses --      4.1891                 1.5627                 1.3780
 Frc consts  --      0.0118                 0.0284                 0.0370
 IR Inten    --      3.5358                 1.9875                 0.7900

                      4                      5                      6
                      A                      A                      A
 Frequencies --    214.7678               225.2004               256.7721
 Red. masses --      1.2866                 2.1528                 2.5626
 Frc consts  --      0.0350                 0.0643                 0.0995
 IR Inten    --      1.0987                 1.0549                 2.5060

                      7                      8                      9
                      A                      A                      A
 Frequencies --    295.1929               411.9917               475.7683
 Red. masses --      2.9364                 3.4055                 3.9533
 Frc consts  --      0.1508                 0.3406                 0.5272
 IR Inten    --      2.9729                 2.6517                 8.0320

                     10                     11                     12
                      A                      A                      A
 Frequencies --    507.9620               540.8025               591.9734
 Red. masses --      3.2403                 4.4019                 3.2699
 Frc consts  --      0.4926                 0.7585                 0.6751
 IR Inten    --      3.8592                 7.2321                 1.9734

                     13                     14                     15
                      A                      A                      A
 Frequencies --    666.1991               721.7409               760.6155
 Red. masses --      5.6416                 3.5320                 2.8534
 Frc consts  --      1.4752                 1.0840                 0.9726
 IR Inten    --      6.0304                 2.7114                 9.2303

                     16                     17                     18
                      A                      A                      A
 Frequencies --    830.1520               872.0547               922.0581
 Red. masses --      2.5132                 2.6671                 1.9680
 Frc consts  --      1.0205                 1.1950                 0.9858
 IR Inten    --      7.7279                11.5005                 5.8186

                     19                     20                     21
                      A                      A                      A
 Frequencies --    963.2406              1008.6904              1011.0068
 Red. masses --      1.7811                 1.8916                 1.3824
 Frc consts  --      0.9737                 1.1339                 0.8325
 IR Inten    --     11.2952                15.3530                 3.9835

                     22                     23                     24
                      A                      A                      A
 Frequencies --   1028.0216              1074.5387              1110.1943
 Red. masses --      1.8566                 1.6003                 1.9249
 Frc consts  --      1.1561                 1.0887                 1.3978
 IR Inten    --      1.0582                11.3423                 8.5530

                     25                     26                     27
                      A                      A                      A
 Frequencies --   1128.2448              1163.0078              1178.7149
 Red. masses --      2.5729                 2.2439                 1.5622
 Frc consts  --      1.9296                 1.7882                 1.2788
 IR Inten    --      9.3966                37.1263                10.7053

                     28                     29                     30
                      A                      A                      A
 Frequencies --   1228.3584              1282.1485              1286.8428
 Red. masses --      1.5708                 1.7708                 1.6731
 Frc consts  --      1.3964                 1.7151                 1.6324
 IR Inten    --      7.6243                 4.8075                 1.6433

                     31                     32                     33
                      A                      A                      A
 Frequencies --   1312.1569              1343.0157              1399.4682
 Red. masses --      1.5920                 2.3966                 1.2224
 Frc consts  --      1.6150                 2.5469                 1.4105
 IR Inten    --     26.1266                 3.5804                 6.4735

                     34                     35                     36
                      A                      A                      A
 Frequencies --   1412.4369              1441.1159              1451.5560
 Red. masses --      1.2960                 1.2309                 2.2427
 Frc consts  --      1.5233                 1.5062                 2.7841
 IR Inten    --      5.2396                 6.8499                12.2936

                     37                     38                     39
                      A                      A                      A
 Frequencies --   1483.5735              1495.0018              1497.7049
 Red. masses --      1.0864                 1.1059                 1.0744
 Frc consts  --      1.4088                 1.4563                 1.4200
 IR Inten    --      8.3344                 4.7213                 0.4676

                     40                     41                     42
                      A                      A                      A
 Frequencies --   1504.3759              1850.7645              2996.9759
 Red. masses --      1.0695                12.7427                 1.0803
 Frc consts  --      1.4260                25.7167                 5.7170
 IR Inten    --      5.8586               181.5532                12.3622

                     43                     44                     45
                      A                      A                      A
 Frequencies --   3036.8502              3039.4290              3046.4632
 Red. masses --      1.0365                 1.0646                 1.0343
 Frc consts  --      5.6319                 5.7943                 5.6558
 IR Inten    --     18.1145                 8.4036                22.2549

                     46                     47                     48
                      A                      A                      A
 Frequencies --   3100.3339              3101.7888              3118.6871
 Red. masses --      1.1005                 1.0965                 1.1022
 Frc consts  --      6.2323                 6.2155                 6.3160
 IR Inten    --     16.1100                 4.9133                15.4138

                     49                     50                     51
                      A                      A                      A
 Frequencies --   3122.1224              3130.3498              3143.5574
 Red. masses --      1.1014                 1.1020                 1.0910
 Frc consts  --      6.3255                 6.3624                 6.3522
 IR Inten    --     15.7382                10.0573                25.8758

 - Thermochemistry -
 -------------------
 Temperature   298.150 Kelvin.  Pressure   1.00000 Atm.
 Atom     1 has atomic number  6 and mass  12.00000

 Molecular mass:   126.06808 amu.
 Principal axes and moments of inertia in atomic units:
                           1         2         3
     Eigenvalues --   719.265721096.629371527.49814
           X            0.99920   0.03286  -0.02294
           Y           -0.03238   0.99926   0.02085
           Z            0.02360  -0.02009   0.99952
 This molecule is an asymmetric top.
 Rotational symmetry number  1.
 Warning -- assumption of classical behavior for rotation
           may cause significant error
 Rotational temperatures (Kelvin)      0.12042     0.07898     0.05670
 Rotational constants (GHZ):           2.50914     1.64572     1.18150
 Zero-point vibrational energy     414159.7 (Joules/Mol)
                                   98.98654 (Kcal/Mol)
 Warning -- explicit consideration of  12 degrees of freedom as
           vibrations may cause significant error
 Vibrational temperatures:     99.33   252.62   307.15   309.00   324.01
          (Kelvin)            369.44   424.72   592.76   684.52   730.84
                              778.09   851.72   958.51  1038.42  1094.35
                             1194.40  1254.69  1326.63  1385.89  1451.28
                             1454.61  1479.09  1546.02  1597.32  1623.29
                             1673.31  1695.91  1767.33  1844.72  1851.48
                             1887.90  1932.30  2013.52  2032.18  2073.44
                             2088.46  2134.53  2150.97  2154.86  2164.46
                             2662.83  4311.97  4369.34  4373.05  4383.18
                             4460.68  4462.78  4487.09  4492.03  4503.87
                             4522.87

 Zero-point correction=                           0.157745 (Hartree/Particle)
 Thermal correction to Energy=                    0.166462
 Thermal correction to Enthalpy=                  0.167406
 Thermal correction to Gibbs Free Energy=         0.124568
 Sum of electronic and zero-point Energies=           -423.055516
 Sum of electronic and thermal Energies=              -423.046799
 Sum of electronic and thermal Enthalpies=            -423.045855
 Sum of electronic and thermal Free Energies=         -423.088693

                     E (Thermal)             CV                S
                      KCal/Mol        Cal/Mol-Kelvin    Cal/Mol-Kelvin
 Total                  104.456             33.146             90.160
 Electronic               0.000              0.000              0.000
 Translational            0.889              2.981             40.409
 Rotational               0.889              2.981             28.579
 Vibrational            102.679             27.184             21.172
 Vibration     1          0.598              1.969              4.181
 Vibration     2          0.628              1.872              2.375
 Vibration     3          0.644              1.820              2.014
 Vibration     4          0.645              1.818              2.003
 Vibration     5          0.650              1.803              1.917
 Vibration     6          0.666              1.751              1.684
 Vibration     7          0.689              1.683              1.444
 Vibration     8          0.776              1.444              0.920
 Vibration     9          0.832              1.304              0.722
 Vibration    10          0.863              1.232              0.639
 Vibration    11          0.896              1.160              0.564
 Vibration    12          0.949              1.049              0.464

 Optimization completed.
    -- Stationary point found.
 Normal termination of Gaussian 09 at Mon Jan 27 23:48:05 2020.
