 Gaussian 09, Revision D.01,
 Gaussian 09:  ES64L-G09RevD.01 24-Apr-2013

 -----------------------------
 # b3lyp 6-31G(2df,p) opt Freq
 -----------------------------

 -----
 titel
 -----
 Symbolic Z-matrix:
 Charge =  0 Multiplicity = 1

 SCF Done:  E(RB3LYP) =  -423.179356020     A.U. after   15 cycles
 Optimization completed.
    -- Stationary point found.
 Normal termination of Gaussian 09 at Mon Jan 27 14:03:23 2020.

 ----------------------------------------------------------------------
 #N Geom=AllCheck Guess=TCheck SCRF=Check GenChk RB3LYP/6-31G(2df,p) Fr
 eq
 ----------------------------------------------------------------------

 Structure from the checkpoint file:  "/scratch/puck/g09_51dd56a3-f709-4efd-9330-5c534617f12a/Gau-4099.chk"
 -----
 titel
 -----
 Charge =  0 Multiplicity = 1

                         Standard orientation:
 ---------------------------------------------------------------------
 Center     Atomic      Atomic             Coordinates (Angstroms)
 Number     Number       Type             X           Y           Z
 ---------------------------------------------------------------------
      1          6           0       -3.752502   -0.317267   -0.032637
      2          6           0       -2.349293    0.059291   -0.023360
      3          6           0       -1.187849    0.392617   -0.021375
      4          6           0        0.202799    0.816610    0.008304
      5          8           0        0.512306    1.983750    0.106946
      6          6           0        1.243938   -0.325660   -0.036898
      7          6           0        1.550847   -0.719404    1.420939
      8          6           0        2.497566    0.141745   -0.771151
      9          8           0        0.736227   -1.438410   -0.761919
     10          1           0       -3.974685   -1.017541    0.779773
     11          1           0       -4.397854    0.558641    0.088143
     12          1           0       -4.017045   -0.807758   -0.975626
     13          1           0        0.640168   -1.040343    1.939075
     14          1           0        2.260308   -1.551563    1.425875
     15          1           0        1.979035    0.121605    1.973770
     16          1           0        2.878090    1.061299   -0.324363
     17          1           0        3.265613   -0.634497   -0.720973
     18          1           0        2.266263    0.332733   -1.822090
     19          1           0       -0.121196   -1.672890   -0.386724
 ---------------------------------------------------------------------

 SCF Done:  E(RB3LYP) =  -423.179356020     A.U. after    1 cycles

 The electronic state is 1-A.
 Alpha  occ. eigenvalues --  -19.13755 -19.13661 -10.28356 -10.24548 -10.22651
 Alpha  occ. eigenvalues --  -10.21509 -10.19331 -10.18150 -10.17054  -1.04950
 Alpha  occ. eigenvalues --   -1.02125  -0.80535  -0.78169  -0.73695  -0.69357
 Alpha  occ. eigenvalues --   -0.65447  -0.57552  -0.53229  -0.48283  -0.45979
 Alpha  occ. eigenvalues --   -0.45568  -0.45051  -0.44848  -0.42925  -0.41530
 Alpha  occ. eigenvalues --   -0.38183  -0.37613  -0.37405  -0.36369  -0.33838
 Alpha  occ. eigenvalues --   -0.29435  -0.28454  -0.28248  -0.24507
 Alpha virt. eigenvalues --   -0.05407   0.03110   0.08075   0.09238   0.09932
 Alpha virt. eigenvalues --    0.12258   0.14463   0.15097   0.16253   0.16411
 Alpha virt. eigenvalues --    0.17356   0.18675   0.19738   0.20550   0.21234

 Mulliken charges:
               1
     1  C   -0.505841
     2  C    0.141661
     3  C   -0.011889
     4  C    0.184896
     5  O   -0.303328
     6  C    0.247356
     7  C   -0.415543
     8  C   -0.400724
     9  O   -0.461746
    10  H    0.162486
    11  H    0.166611
    12  H    0.165938
    13  H    0.112972
    14  H    0.128252
    15  H    0.133105
    16  H    0.136838
    17  H    0.116850
    18  H    0.126817
    19  H    0.275289
 Sum of Mulliken charges =   0.00000

 Dipole moment (field-independent basis, Debye):
    X=             -2.6943    Y=             -2.0847    Z=              0.9503  Tot=              3.5368
 Quadrupole moment (field-independent basis, Debye-Ang):
   XX=            -40.2339   YY=            -59.7559   ZZ=            -53.6973
   XY=              2.2755   XZ=              1.2363   YZ=             -2.2872

  Exact polarizability: 115.891   9.406  70.838   0.305  -0.591  61.069
 Approx polarizability: 161.881  25.882 116.923   0.708   2.444  87.714

                      1                      2                      3
                      A                      A                      A
 Frequencies --     24.5314                28.8286                83.4908
 Red. masses --      2.8094                 1.1267                 4.0068
 Frc consts  --      0.0010                 0.0006                 0.0165
 IR Inten    --      1.4456                 0.4272                 0.9870

                      4                      5                      6
                      A                      A                      A
 Frequencies --    129.2111               193.4274               232.2138
 Red. masses --      4.7617                 1.0677                 2.9936
 Frc consts  --      0.0468                 0.0235                 0.0951
 IR Inten    --      0.2087                 0.8732                 6.9532

                      7                      8                      9
                      A                      A                      A
 Frequencies --    239.2456               270.4235               298.8750
 Red. masses --      1.4866                 1.8788                 3.0215
 Frc consts  --      0.0501                 0.0810                 0.1590
 IR Inten    --      2.7285                 2.5375                 8.0227

                     10                     11                     12
                      A                      A                      A
 Frequencies --    307.1704               351.6541               387.4299
 Red. masses --      1.1348                 3.0227                 4.1573
 Frc consts  --      0.0631                 0.2202                 0.3677
 IR Inten    --    130.7854                 5.6770                 5.0837

                     13                     14                     15
                      A                      A                      A
 Frequencies --    390.6784               418.5920               461.9815
 Red. masses --      4.5716                 3.6329                 3.9813
 Frc consts  --      0.4111                 0.3750                 0.5006
 IR Inten    --      5.4852                 1.8056                 3.5519

                     16                     17                     18
                      A                      A                      A
 Frequencies --    594.0450               647.2465               759.6028
 Red. masses --      3.8245                 6.2317                 6.5189
 Frc consts  --      0.7952                 1.5381                 2.2162
 IR Inten    --     20.8752                 1.1455                 3.5128

                     19                     20                     21
                      A                      A                      A
 Frequencies --    830.6639               936.5619               950.9717
 Red. masses --      3.4385                 1.5239                 3.1944
 Frc consts  --      1.3979                 0.7875                 1.7021
 IR Inten    --     11.4762                 0.7583                70.5687

                     22                     23                     24
                      A                      A                      A
 Frequencies --    987.4161              1014.9932              1046.6357
 Red. masses --      2.0951                 1.4141                 1.4358
 Frc consts  --      1.2035                 0.8583                 0.9267
 IR Inten    --     27.5666                 1.3737                 2.2970

                     25                     26                     27
                      A                      A                      A
 Frequencies --   1052.1744              1125.0265              1178.6243
 Red. masses --      1.4040                 2.0620                 3.2942
 Frc consts  --      0.9158                 1.5377                 2.6962
 IR Inten    --      1.9821                29.0667               106.3968

                     28                     29                     30
                      A                      A                      A
 Frequencies --   1215.4200              1245.2823              1377.0703
 Red. masses --      2.7720                 3.3406                 1.2996
 Frc consts  --      2.4127                 3.0522                 1.4520
 IR Inten    --     70.2356                49.9597                19.6210

                     31                     32                     33
                      A                      A                      A
 Frequencies --   1394.5928              1409.4369              1411.9831
 Red. masses --      1.4192                 1.2550                 1.3270
 Frc consts  --      1.6262                 1.4688                 1.5587
 IR Inten    --     28.2696                12.3710                 6.7126

                     34                     35                     36
                      A                      A                      A
 Frequencies --   1469.2352              1473.1540              1476.4022
 Red. masses --      1.0394                 1.0396                 1.0513
 Frc consts  --      1.3220                 1.3292                 1.3501
 IR Inten    --      8.0128                 6.9256                 3.0965

                     37                     38                     39
                      A                      A                      A
 Frequencies --   1481.3635              1495.3887              1505.8693
 Red. masses --      1.0480                 1.0785                 1.0603
 Frc consts  --      1.3550                 1.4209                 1.4166
 IR Inten    --      0.9906                 5.5844                 3.9634

                     40                     41                     42
                      A                      A                      A
 Frequencies --   1763.1862              2328.5126              3032.4963
 Red. masses --     12.7841                11.9125                 1.0350
 Frc consts  --     23.4161                38.0550                 5.6079
 IR Inten    --    163.6763               146.2335                14.8562

                     43                     44                     45
                      A                      A                      A
 Frequencies --   3033.7169              3055.2101              3097.2520
 Red. masses --      1.0346                 1.0352                 1.0997
 Frc consts  --      5.6099                 5.6931                 6.2154
 IR Inten    --     12.3871                13.6034                 3.6958

                     46                     47                     48
                      A                      A                      A
 Frequencies --   3103.1184              3104.2033              3124.0721
 Red. masses --      1.1009                 1.0998                 1.1031
 Frc consts  --      6.2459                 6.2442                 6.3434
 IR Inten    --      4.6750                22.7900                 7.5919

                     49                     50                     51
                      A                      A                      A
 Frequencies --   3127.5264              3150.5245              3782.5170
 Red. masses --      1.1024                 1.1014                 1.0653
 Frc consts  --      6.3530                 6.4410                 8.9804
 IR Inten    --     21.0724                 9.4768                20.3195

 - Thermochemistry -
 -------------------
 Temperature   298.150 Kelvin.  Pressure   1.00000 Atm.
 Atom     1 has atomic number  6 and mass  12.00000

 Molecular mass:   126.06808 amu.
 Principal axes and moments of inertia in atomic units:
                           1         2         3
     Eigenvalues --   646.379791890.439842136.15557
           X            0.99996   0.00822   0.00305
           Y           -0.00804   0.99842  -0.05556
           Z           -0.00350   0.05554   0.99845
 This molecule is an asymmetric top.
 Rotational symmetry number  1.
 Warning -- assumption of classical behavior for rotation
           may cause significant error
 Rotational temperatures (Kelvin)      0.13400     0.04582     0.04055
 Rotational constants (GHZ):           2.79208     0.95467     0.84485
 Zero-point vibrational energy     404333.3 (Joules/Mol)
                                   96.63798 (Kcal/Mol)
 Warning -- explicit consideration of  16 degrees of freedom as
           vibrations may cause significant error
 Vibrational temperatures:     35.30    41.48   120.12   185.91   278.30
          (Kelvin)            334.10   344.22   389.08   430.01   441.95
                              505.95   557.42   562.10   602.26   664.69
                              854.70   931.24  1092.90  1195.14  1347.50
                             1368.23  1420.67  1460.35  1505.87  1513.84
                             1618.66  1695.78  1748.72  1791.68  1981.29
                             2006.51  2027.86  2031.53  2113.90  2119.54
                             2124.21  2131.35  2151.53  2166.61  2536.83
                             3350.21  4363.08  4364.84  4395.76  4456.25
                             4464.69  4466.25  4494.84  4499.81  4532.90
                             5442.19

 Zero-point correction=                           0.154002 (Hartree/Particle)
 Thermal correction to Energy=                    0.165292
 Thermal correction to Enthalpy=                  0.166237
 Thermal correction to Gibbs Free Energy=         0.115918
 Sum of electronic and zero-point Energies=           -423.025354
 Sum of electronic and thermal Energies=              -423.014064
 Sum of electronic and thermal Enthalpies=            -423.013119
 Sum of electronic and thermal Free Energies=         -423.063438

                     E (Thermal)             CV                S
                      KCal/Mol        Cal/Mol-Kelvin    Cal/Mol-Kelvin
 Total                  103.723             39.000            105.903
 Electronic               0.000              0.000              0.000
 Translational            0.889              2.981             40.409
 Rotational               0.889              2.981             29.347
 Vibrational            101.945             33.038             36.148
 Vibration     1          0.593              1.985              6.229
 Vibration     2          0.593              1.984              5.908
 Vibration     3          0.600              1.961              3.807
 Vibration     4          0.612              1.924              2.958
 Vibration     5          0.635              1.849              2.195
 Vibration     6          0.653              1.792              1.862
 Vibration     7          0.657              1.780              1.808
 Vibration     8          0.674              1.728              1.594
 Vibration     9          0.692              1.676              1.423
 Vibration    10          0.697              1.660              1.378
 Vibration    11          0.728              1.572              1.159
 Vibration    12          0.756              1.497              1.010
 Vibration    13          0.758              1.490              0.998
 Vibration    14          0.781              1.430              0.897
 Vibration    15          0.820              1.334              0.760
 Vibration    16          0.952              1.044              0.460

 Optimization completed on the basis of negligible forces.
    -- Stationary point found.
 Normal termination of Gaussian 09 at Mon Jan 27 15:47:42 2020.
