 Gaussian 09, Revision D.01,
 Gaussian 09:  ES64L-G09RevD.01 24-Apr-2013

 -----------------------------
 # b3lyp 6-31G(2df,p) opt Freq
 -----------------------------

 -----
 titel
 -----
 Symbolic Z-matrix:
 Charge =  0 Multiplicity = 1

 SCF Done:  E(RB3LYP) =  -423.125389549     A.U. after   14 cycles
 Optimization completed.
    -- Stationary point found.
 Normal termination of Gaussian 09 at Tue Jan 28 09:25:38 2020.

 ----------------------------------------------------------------------
 #N Geom=AllCheck Guess=TCheck SCRF=Check GenChk RB3LYP/6-31G(2df,p) Fr
 eq
 ----------------------------------------------------------------------

 Structure from the checkpoint file:  "/scratch/puck/g09_2ec2bccc-6789-46fc-a5ed-dfdfd94b372f/Gau-189034.chk"
 -----
 titel
 -----
 Charge =  0 Multiplicity = 1

                         Standard orientation:
 ---------------------------------------------------------------------
 Center     Atomic      Atomic             Coordinates (Angstroms)
 Number     Number       Type             X           Y           Z
 ---------------------------------------------------------------------
      1          6           0        3.174567   -0.443809   -0.323662
      2          6           0        2.126142   -0.016890    0.713350
      3          6           0        0.753776    0.097102    0.128201
      4          6           0       -0.184548   -1.031905   -0.365386
      5          6           0       -1.367216   -0.096424   -0.021770
      6          6           0       -2.727437    0.010491   -0.539236
      7          8           0       -2.455873   -0.528733    0.769416
      8          6           0       -0.392915    0.974593    0.443242
      9          8           0        0.452273    1.241804   -0.689980
     10          1           0        2.936754   -1.424291   -0.749291
     11          1           0        3.221360    0.277271   -1.145003
     12          1           0        4.167281   -0.508783    0.130711
     13          1           0        2.099237   -0.738832    1.538961
     14          1           0        2.398172    0.953295    1.143586
     15          1           0       -0.057941   -1.331104   -1.408084
     16          1           0       -0.187933   -1.911323    0.284633
     17          1           0       -3.232312    0.975176   -0.550281
     18          1           0       -3.084918   -0.712356   -1.270826
     19          1           0       -0.525120    1.757422    1.181678
 ---------------------------------------------------------------------

 SCF Done:  E(RB3LYP) =  -423.125389549     A.U. after    1 cycles

 The electronic state is 1-A.
 Alpha  occ. eigenvalues --  -19.15419 -19.15207 -10.24787 -10.24409 -10.23611
 Alpha  occ. eigenvalues --  -10.23385 -10.19429 -10.19189 -10.18043  -1.08383
 Alpha  occ. eigenvalues --   -1.06814  -0.79844  -0.77457  -0.67138  -0.65960
 Alpha  occ. eigenvalues --   -0.65166  -0.57393  -0.54820  -0.50705  -0.49680
 Alpha  occ. eigenvalues --   -0.46066  -0.45783  -0.44364  -0.40880  -0.40593
 Alpha  occ. eigenvalues --   -0.38552  -0.36997  -0.35921  -0.35332  -0.33771
 Alpha  occ. eigenvalues --   -0.32126  -0.29044  -0.26631  -0.24974
 Alpha virt. eigenvalues --    0.07401   0.08406   0.10481   0.11016   0.12117
 Alpha virt. eigenvalues --    0.12851   0.13449   0.14813   0.15117   0.15823
 Alpha virt. eigenvalues --    0.16324   0.17051   0.17904   0.18943   0.21932

 Mulliken charges:
               1
     1  C   -0.381078
     2  C   -0.300306
     3  C    0.440534
     4  C   -0.391121
     5  C    0.454795
     6  C   -0.263763
     7  O   -0.274484
     8  C   -0.174259
     9  O   -0.288005
    10  H    0.120659
    11  H    0.135351
    12  H    0.116477
    13  H    0.107142
    14  H    0.113363
    15  H    0.113227
    16  H    0.122307
    17  H    0.120329
    18  H    0.119997
    19  H    0.108833
 Sum of Mulliken charges =   0.00000

 Dipole moment (field-independent basis, Debye):
    X=              0.7834    Y=             -0.4344    Z=             -0.0012  Tot=              0.8958
 Quadrupole moment (field-independent basis, Debye-Ang):
   XX=            -52.0650   YY=            -53.1972   ZZ=            -54.0119
   XY=             -3.2458   XZ=              5.2048   YZ=              3.4018

  Exact polarizability:  96.100  -3.543  69.418   3.261   3.180  63.346
 Approx polarizability: 118.760  -3.570 106.663  -0.357  -1.372 101.707

                      1                      2                      3
                      A                      A                      A
 Frequencies --     69.2761                93.6587               171.8985
 Red. masses --      2.9763                 3.2111                 2.4393
 Frc consts  --      0.0084                 0.0166                 0.0425
 IR Inten    --      0.0391                 1.4864                 1.2940

                      4                      5                      6
                      A                      A                      A
 Frequencies --    214.0110               276.4782               329.6523
 Red. masses --      1.3119                 2.5292                 2.9795
 Frc consts  --      0.0354                 0.1139                 0.1908
 IR Inten    --      1.3688                 3.3315                 5.1795

                      7                      8                      9
                      A                      A                      A
 Frequencies --    360.1983               392.0170               434.2232
 Red. masses --      2.9340                 2.4687                 2.4110
 Frc consts  --      0.2243                 0.2235                 0.2678
 IR Inten    --      2.3171                 3.4234                 5.5047

                     10                     11                     12
                      A                      A                      A
 Frequencies --    498.7094               595.8382               670.9554
 Red. masses --      7.0680                 3.3424                 3.1875
 Frc consts  --      1.0357                 0.6991                 0.8455
 IR Inten    --      1.1976                 5.6730                 1.6106

                     13                     14                     15
                      A                      A                      A
 Frequencies --    763.0254               794.1653               840.1037
 Red. masses --      2.0619                 1.7807                 2.4463
 Frc consts  --      0.7073                 0.6617                 1.0172
 IR Inten    --      4.3551                10.4232                20.1982

                     16                     17                     18
                      A                      A                      A
 Frequencies --    885.5515               903.4226               905.2966
 Red. masses --      2.1510                 3.1601                 2.6171
 Frc consts  --      0.9939                 1.5196                 1.2637
 IR Inten    --      9.1795                10.5216                19.0763

                     19                     20                     21
                      A                      A                      A
 Frequencies --    954.1865               974.3798              1012.6253
 Red. masses --      2.8133                 2.3135                 1.6171
 Frc consts  --      1.5091                 1.2941                 0.9770
 IR Inten    --      4.1095                11.2820                13.6372

                     22                     23                     24
                      A                      A                      A
 Frequencies --   1022.4014              1063.4994              1104.1591
 Red. masses --      1.9535                 2.3719                 1.8569
 Frc consts  --      1.2031                 1.5806                 1.3339
 IR Inten    --     22.9022                 3.3462                 9.2867

                     25                     26                     27
                      A                      A                      A
 Frequencies --   1121.3174              1140.6832              1155.3591
 Red. masses --      1.3100                 1.4738                 1.6443
 Frc consts  --      0.9705                 1.1299                 1.2932
 IR Inten    --      2.1640                 2.7963                 0.3278

                     28                     29                     30
                      A                      A                      A
 Frequencies --   1163.4074              1203.3052              1225.5974
 Red. masses --      1.6416                 1.5283                 1.7307
 Frc consts  --      1.3091                 1.3038                 1.5317
 IR Inten    --      6.9129                 1.7379                10.1848

                     31                     32                     33
                      A                      A                      A
 Frequencies --   1236.8747              1314.1967              1345.6661
 Red. masses --      2.2554                 1.3492                 1.5081
 Frc consts  --      2.0329                 1.3729                 1.6090
 IR Inten    --      9.4650                 7.9701                 7.3825

                     34                     35                     36
                      A                      A                      A
 Frequencies --   1408.2333              1440.6136              1445.2888
 Red. masses --      1.2424                 1.6374                 2.3477
 Frc consts  --      1.4517                 2.0021                 2.8894
 IR Inten    --      1.6661                15.3898                12.4517

                     37                     38                     39
                      A                      A                      A
 Frequencies --   1471.5551              1479.5312              1498.4009
 Red. masses --      1.0938                 1.5610                 1.0397
 Frc consts  --      1.3955                 2.0132                 1.3753
 IR Inten    --      1.7423                 3.0323                 5.0189

                     40                     41                     42
                      A                      A                      A
 Frequencies --   1509.6166              1541.4569              3031.1454
 Red. masses --      1.1339                 1.8523                 1.0607
 Frc consts  --      1.5225                 2.5931                 5.7421
 IR Inten    --      5.7652                 9.7586                18.7801

                     43                     44                     45
                      A                      A                      A
 Frequencies --   3039.3914              3064.0716              3072.5100
 Red. masses --      1.0354                 1.0574                 1.1003
 Frc consts  --      5.6357                 5.8492                 6.1202
 IR Inten    --     22.9547                14.5412                 7.8842

                     46                     47                     48
                      A                      A                      A
 Frequencies --   3086.2426              3109.1013              3118.2020
 Red. masses --      1.0505                 1.1014                 1.1026
 Frc consts  --      5.8955                 6.2730                 6.3165
 IR Inten    --     23.5973                34.3529                23.8766

                     49                     50                     51
                      A                      A                      A
 Frequencies --   3125.3120              3174.1099              3186.0851
 Red. masses --      1.1085                 1.1196                 1.0950
 Frc consts  --      6.3792                 6.6459                 6.5491
 IR Inten    --     13.1262                17.3995                12.1607

 - Thermochemistry -
 -------------------
 Temperature   298.150 Kelvin.  Pressure   1.00000 Atm.
 Atom     1 has atomic number  6 and mass  12.00000

 Molecular mass:   126.06808 amu.
 Principal axes and moments of inertia in atomic units:
                           1         2         3
     Eigenvalues --   402.446511803.765791903.61316
           X            0.99978  -0.01789   0.01092
           Y            0.01597   0.98766   0.15583
           Z           -0.01358  -0.15562   0.98772
 This molecule is an asymmetric top.
 Rotational symmetry number  1.
 Rotational temperatures (Kelvin)      0.21522     0.04802     0.04550
 Rotational constants (GHZ):           4.48443     1.00054     0.94806
 Zero-point vibrational energy     412933.0 (Joules/Mol)
                                   98.69336 (Kcal/Mol)
 Warning -- explicit consideration of  11 degrees of freedom as
           vibrations may cause significant error
 Vibrational temperatures:     99.67   134.75   247.32   307.91   397.79
          (Kelvin)            474.30   518.24   564.02   624.75   717.53
                              857.28   965.35  1097.82  1142.63  1208.72
                             1274.11  1299.82  1302.52  1372.86  1401.91
                             1456.94  1471.01  1530.14  1588.64  1613.32
                             1641.19  1662.30  1673.88  1731.29  1763.36
                             1779.58  1890.83  1936.11  2026.13  2072.72
                             2079.45  2117.24  2128.71  2155.86  2172.00
                             2217.81  4361.14  4373.00  4408.51  4420.65
                             4440.41  4473.30  4486.39  4496.62  4566.83
                             4584.06

 Zero-point correction=                           0.157278 (Hartree/Particle)
 Thermal correction to Energy=                    0.165891
 Thermal correction to Enthalpy=                  0.166835
 Thermal correction to Gibbs Free Energy=         0.123792
 Sum of electronic and zero-point Energies=           -422.968112
 Sum of electronic and thermal Energies=              -422.959499
 Sum of electronic and thermal Enthalpies=            -422.958554
 Sum of electronic and thermal Free Energies=         -423.001597

                     E (Thermal)             CV                S
                      KCal/Mol        Cal/Mol-Kelvin    Cal/Mol-Kelvin
 Total                  104.098             32.622             90.591
 Electronic               0.000              0.000              0.000
 Translational            0.889              2.981             40.409
 Rotational               0.889              2.981             28.715
 Vibrational            102.321             26.660             21.468
 Vibration     1          0.598              1.969              4.174
 Vibration     2          0.603              1.954              3.582
 Vibration     3          0.626              1.877              2.415
 Vibration     4          0.644              1.820              2.009
 Vibration     5          0.678              1.717              1.555
 Vibration     6          0.712              1.616              1.262
 Vibration     7          0.735              1.554              1.121
 Vibration     8          0.759              1.487              0.992
 Vibration     9          0.795              1.396              0.845
 Vibration    10          0.854              1.253              0.661
 Vibration    11          0.954              1.041              0.457

 Normal termination of Gaussian 09 at Tue Jan 28 09:58:29 2020.
