 Gaussian 09, Revision D.01,
 Gaussian 09:  ES64L-G09RevD.01 24-Apr-2013

 -----------------------------
 # b3lyp 6-31G(2df,p) opt Freq
 -----------------------------

 -----
 titel
 -----
 Symbolic Z-matrix:
 Charge =  0 Multiplicity = 1

 SCF Done:  E(RB3LYP) =  -423.159268945     A.U. after   15 cycles
 SCF Done:  E(RB3LYP) =  -423.159268905     A.U. after    6 cycles
 SCF Done:  E(RB3LYP) =  -423.159268785     A.U. after    7 cycles
 Optimization completed.
    -- Stationary point found.
 Normal termination of Gaussian 09 at Mon Jan 27 15:33:22 2020.

 ----------------------------------------------------------------------
 #N Geom=AllCheck Guess=TCheck SCRF=Check GenChk RB3LYP/6-31G(2df,p) Fr
 eq
 ----------------------------------------------------------------------

 Structure from the checkpoint file:  "/scratch/puck/g09_290ddd3b-5bd0-4f1b-b6c4-97406cbd28c5/Gau-80713.chk"
 -----
 titel
 -----
 Charge =  0 Multiplicity = 1

                         Standard orientation:
 ---------------------------------------------------------------------
 Center     Atomic      Atomic             Coordinates (Angstroms)
 Number     Number       Type             X           Y           Z
 ---------------------------------------------------------------------
      1          6           0        0.958838   -1.562432   -0.721095
      2          6           0        1.377550   -0.385255    0.186500
      3          6           0        2.762448    0.155710   -0.173960
      4          6           0        0.333632    0.720085    0.128387
      5          8           0        0.536921    1.813327   -0.337308
      6          6           0       -1.082608    0.420726    0.706568
      7          8           0       -0.999352   -0.643665    1.644713
      8          6           0       -2.017506    0.132004   -0.379699
      9          6           0       -2.804728   -0.135256   -1.248207
     10          1           0        1.703817   -2.360785   -0.651359
     11          1           0       -0.008425   -1.971619   -0.424055
     12          1           0        0.898145   -1.247020   -1.767718
     13          1           0        1.375648   -0.757648    1.217852
     14          1           0        3.056694    0.973246    0.489391
     15          1           0        3.509555   -0.639891   -0.095444
     16          1           0        2.775614    0.543785   -1.196210
     17          1           0       -1.390316    1.355884    1.197340
     18          1           0       -1.891707   -0.968047    1.804016
     19          1           0       -3.495331   -0.358694   -2.024020
 ---------------------------------------------------------------------

 SCF Done:  E(RB3LYP) =  -423.159268785     A.U. after    1 cycles

 The electronic state is 1-A.
 Alpha  occ. eigenvalues --  -19.16077 -19.13564 -10.27295 -10.26906 -10.19738
 Alpha  occ. eigenvalues --  -10.19501 -10.19217 -10.17948 -10.17095  -1.05320
 Alpha  occ. eigenvalues --   -1.03885  -0.80238  -0.78107  -0.71782  -0.68353
 Alpha  occ. eigenvalues --   -0.63028  -0.56343  -0.52518  -0.52025  -0.49803
 Alpha  occ. eigenvalues --   -0.48030  -0.44405  -0.43584  -0.39970  -0.38939
 Alpha  occ. eigenvalues --   -0.38483  -0.37001  -0.36463  -0.34146  -0.33312
 Alpha  occ. eigenvalues --   -0.30589  -0.28769  -0.28654  -0.24276
 Alpha virt. eigenvalues --   -0.02374   0.02320   0.04673   0.08527   0.10500
 Alpha virt. eigenvalues --    0.11679   0.13872   0.14927   0.15461   0.16097
 Alpha virt. eigenvalues --    0.17452   0.18824   0.19471   0.21284   0.22220

 Mulliken charges:
               1
     1  C   -0.397002
     2  C   -0.062578
     3  C   -0.393190
     4  C    0.365064
     5  O   -0.305459
     6  C   -0.107117
     7  O   -0.419814
     8  C    0.312440
     9  C   -0.474177
    10  H    0.118703
    11  H    0.133067
    12  H    0.125312
    13  H    0.113924
    14  H    0.122136
    15  H    0.107102
    16  H    0.128971
    17  H    0.127471
    18  H    0.295753
    19  H    0.209394
 Sum of Mulliken charges =   0.00000

 Dipole moment (field-independent basis, Debye):
    X=             -1.5263    Y=             -2.0720    Z=              0.5046  Tot=              2.6224
 Quadrupole moment (field-independent basis, Debye-Ang):
   XX=            -46.2780   YY=            -57.6928   ZZ=            -51.0478
   XY=              0.0454   XZ=              0.7009   YZ=              2.2971

  Exact polarizability:  91.369   3.065  70.400   9.063   1.398  71.496
 Approx polarizability: 119.548   8.339 109.651  20.286  -0.556 115.783

                      1                      2                      3
                      A                      A                      A
 Frequencies --     48.3858                64.9860               132.5654
 Red. masses --      5.4179                 2.8925                 4.9973
 Frc consts  --      0.0075                 0.0072                 0.0517
 IR Inten    --      2.6825                 0.1144                 1.2988

                      4                      5                      6
                      A                      A                      A
 Frequencies --    187.4614               206.5390               209.5719
 Red. masses --      3.8013                 1.1620                 1.5759
 Frc consts  --      0.0787                 0.0292                 0.0408
 IR Inten    --      1.5821                 5.8256                26.5731

                      7                      8                      9
                      A                      A                      A
 Frequencies --    226.3520               254.3397               267.5550
 Red. masses --      1.2473                 1.9751                 2.1887
 Frc consts  --      0.0377                 0.0753                 0.0923
 IR Inten    --     12.9282                52.7958                 9.8530

                     10                     11                     12
                      A                      A                      A
 Frequencies --    310.8133               369.9478               398.0327
 Red. masses --      2.8412                 2.9737                 4.2885
 Frc consts  --      0.1617                 0.2398                 0.4003
 IR Inten    --      5.4993                 1.3604                 4.0183

                     13                     14                     15
                      A                      A                      A
 Frequencies --    465.4406               591.4593               603.7558
 Red. masses --      6.5888                 4.3031                 4.1737
 Frc consts  --      0.8410                 0.8869                 0.8964
 IR Inten    --      9.2147                 8.9033                 1.9838

                     16                     17                     18
                      A                      A                      A
 Frequencies --    633.4480               676.3740               683.4195
 Red. masses --      1.3251                 4.1835                 1.2582
 Frc consts  --      0.3133                 1.1276                 0.3463
 IR Inten    --     54.8333                11.6967                31.1241

                     19                     20                     21
                      A                      A                      A
 Frequencies --    793.5955               883.5955               936.0932
 Red. masses --      3.3061                 2.7820                 1.1594
 Frc consts  --      1.2268                 1.2797                 0.5986
 IR Inten    --     13.0454                 4.4569                 2.7340

                     22                     23                     24
                      A                      A                      A
 Frequencies --    950.3153               972.9419              1066.2141
 Red. masses --      3.8467                 1.4303                 3.5467
 Frc consts  --      2.0468                 0.7977                 2.3756
 IR Inten    --      9.9656                 1.9712               115.6126

                     25                     26                     27
                      A                      A                      A
 Frequencies --   1086.4085              1113.2907              1139.9198
 Red. masses --      2.9690                 2.0606                 2.3262
 Frc consts  --      2.0647                 1.5048                 1.7810
 IR Inten    --     40.2736                22.2252                17.2439

                     28                     29                     30
                      A                      A                      A
 Frequencies --   1198.0998              1238.3221              1312.5614
 Red. masses --      1.7049                 1.1477                 1.3551
 Frc consts  --      1.4419                 1.0369                 1.3755
 IR Inten    --      8.5731                23.4348                 2.4813

                     31                     32                     33
                      A                      A                      A
 Frequencies --   1321.2383              1364.4126              1370.2473
 Red. masses --      1.2290                 1.6782                 1.4800
 Frc consts  --      1.2641                 1.8407                 1.6373
 IR Inten    --     19.2341                 9.1563                32.3344

                     34                     35                     36
                      A                      A                      A
 Frequencies --   1398.2284              1419.6826              1485.5459
 Red. masses --      1.2355                 1.2223                 1.0459
 Frc consts  --      1.4232                 1.4515                 1.3599
 IR Inten    --      1.8323                 5.1258                 0.2831

                     37                     38                     39
                      A                      A                      A
 Frequencies --   1488.3120              1502.5939              1509.0285
 Red. masses --      1.0439                 1.0533                 1.0522
 Frc consts  --      1.3624                 1.4011                 1.4116
 IR Inten    --      3.0317                 3.6426                15.4335

                     40                     41                     42
                      A                      A                      A
 Frequencies --   1816.6818              2229.3593              2997.3656
 Red. masses --     12.1630                 5.9135                 1.0814
 Frc consts  --     23.6510                17.3163                 5.7243
 IR Inten    --    138.9598                 1.7143                19.2835

                     43                     44                     45
                      A                      A                      A
 Frequencies --   3040.0398              3045.2185              3046.5549
 Red. masses --      1.0415                 1.0461                 1.0638
 Frc consts  --      5.6709                 5.7156                 5.8176
 IR Inten    --     13.6960                13.2556                18.9337

                     46                     47                     48
                      A                      A                      A
 Frequencies --   3107.4661              3116.5701              3122.2750
 Red. masses --      1.1024                 1.1017                 1.1013
 Frc consts  --      6.2717                 6.3047                 6.3254
 IR Inten    --     11.1678                27.6860                22.3611

                     49                     50                     51
                      A                      A                      A
 Frequencies --   3137.7454              3500.6022              3821.5322
 Red. masses --      1.0999                 1.1622                 1.0666
 Frc consts  --      6.3804                 8.3914                 9.1774
 IR Inten    --     16.8020                68.4330                34.6011

 - Thermochemistry -
 -------------------
 Temperature   298.150 Kelvin.  Pressure   1.00000 Atm.
 Atom     1 has atomic number  6 and mass  12.00000

 Molecular mass:   126.06808 amu.
 Principal axes and moments of inertia in atomic units:
                           1         2         3
     Eigenvalues --   749.452031610.961781691.24292
           X            0.99991  -0.01113  -0.00681
           Y            0.01222   0.98184   0.18933
           Z            0.00458  -0.18939   0.98189
 This molecule is an asymmetric top.
 Rotational symmetry number  1.
 Warning -- assumption of classical behavior for rotation
           may cause significant error
 Rotational temperatures (Kelvin)      0.11557     0.05377     0.05121
 Rotational constants (GHZ):           2.40808     1.12029     1.06711
 Zero-point vibrational energy     405907.9 (Joules/Mol)
                                   97.01432 (Kcal/Mol)
 Warning -- explicit consideration of  15 degrees of freedom as
           vibrations may cause significant error
 Vibrational temperatures:     69.62    93.50   190.73   269.71   297.16
          (Kelvin)            301.53   325.67   365.94   384.95   447.19
                              532.27   572.68   669.66   850.98   868.67
                              911.39   973.15   983.29  1141.81  1271.30
                             1346.83  1367.29  1399.84  1534.04  1563.10
                             1601.77  1640.09  1723.80  1781.67  1888.48
                             1900.96  1963.08  1971.48  2011.74  2042.60
                             2137.37  2141.35  2161.89  2171.15  2613.80
                             3207.55  4312.54  4373.93  4381.38  4383.31
                             4470.95  4484.04  4492.25  4514.51  5036.58
                             5498.33

 Zero-point correction=                           0.154602 (Hartree/Particle)
 Thermal correction to Energy=                    0.165382
 Thermal correction to Enthalpy=                  0.166327
 Thermal correction to Gibbs Free Energy=         0.118564
 Sum of electronic and zero-point Energies=           -423.004667
 Sum of electronic and thermal Energies=              -422.993886
 Sum of electronic and thermal Enthalpies=            -422.992942
 Sum of electronic and thermal Free Energies=         -423.040705

                     E (Thermal)             CV                S
                      KCal/Mol        Cal/Mol-Kelvin    Cal/Mol-Kelvin
 Total                  103.779             38.435            100.525
 Electronic               0.000              0.000              0.000
 Translational            0.889              2.981             40.409
 Rotational               0.889              2.981             29.103
 Vibrational            102.002             32.473             31.014
 Vibration     1          0.595              1.978              4.882
 Vibration     2          0.597              1.971              4.300
 Vibration     3          0.613              1.921              2.908
 Vibration     4          0.632              1.857              2.253
 Vibration     5          0.641              1.831              2.074
 Vibration     6          0.642              1.826              2.047
 Vibration     7          0.650              1.801              1.908
 Vibration     8          0.665              1.755              1.700
 Vibration     9          0.673              1.733              1.612
 Vibration    10          0.700              1.653              1.358
 Vibration    11          0.742              1.534              1.080
 Vibration    12          0.764              1.474              0.970
 Vibration    13          0.823              1.327              0.750
 Vibration    14          0.949              1.050              0.465
 Vibration    15          0.962              1.024              0.443

 Optimization completed.
    -- Stationary point found.
 Normal termination of Gaussian 09 at Mon Jan 27 16:13:58 2020.
