 Gaussian 09, Revision D.01,
 Gaussian 09:  ES64L-G09RevD.01 24-Apr-2013

 -----------------------------
 # b3lyp 6-31G(2df,p) opt Freq
 -----------------------------

 -----
 titel
 -----
 Symbolic Z-matrix:
 Charge =  0 Multiplicity = 1

 SCF Done:  E(RB3LYP) =  -423.115045353     A.U. after   13 cycles
 Optimization completed.
    -- Stationary point found.
 Normal termination of Gaussian 09 at Mon Jan 27 18:44:45 2020.

 ----------------------------------------------------------------------
 #N Geom=AllCheck Guess=TCheck SCRF=Check GenChk RB3LYP/6-31G(2df,p) Fr
 eq
 ----------------------------------------------------------------------

 Structure from the checkpoint file:  "/scratch/puck/g09_b6a08830-8765-4141-a6fe-2b2e3f66ce80/Gau-49530.chk"
 -----
 titel
 -----
 Charge =  0 Multiplicity = 1

                         Standard orientation:
 ---------------------------------------------------------------------
 Center     Atomic      Atomic             Coordinates (Angstroms)
 Number     Number       Type             X           Y           Z
 ---------------------------------------------------------------------
      1          6           0       -1.266596    1.929385   -0.293843
      2          6           0       -0.881305    0.499797   -0.106281
      3          8           0       -1.650044   -0.494274   -0.807619
      4          6           0       -1.592259   -1.379713    0.344334
      5          6           0       -0.679611   -0.419183    1.093271
      6          6           0        0.471427   -0.054398    0.189082
      7          6           0        1.394030   -0.907486   -0.673607
      8          8           0        2.529551   -0.099302   -0.279251
      9          6           0        1.723399    0.721142    0.591117
     10          1           0       -1.123410    2.229336   -1.338251
     11          1           0       -2.317894    2.088550   -0.035934
     12          1           0       -0.651575    2.581927    0.332333
     13          1           0       -2.585358   -1.487040    0.794441
     14          1           0       -1.194334   -2.369428    0.089763
     15          1           0       -0.683125   -0.217362    2.157294
     16          1           0        1.512397   -1.954410   -0.364173
     17          1           0        1.209647   -0.867202   -1.753451
     18          1           0        2.026516    0.625840    1.642880
     19          1           0        1.756568    1.781130    0.305623
 ---------------------------------------------------------------------

 SCF Done:  E(RB3LYP) =  -423.115045353     A.U. after    1 cycles

 The electronic state is 1-A.
 Alpha  occ. eigenvalues --  -19.14034 -19.13188 -10.24764 -10.23900 -10.23416
 Alpha  occ. eigenvalues --  -10.22782 -10.20194 -10.19837 -10.18985  -1.05480
 Alpha  occ. eigenvalues --   -1.03480  -0.83980  -0.74791  -0.69865  -0.69295
 Alpha  occ. eigenvalues --   -0.65964  -0.55023  -0.53052  -0.50851  -0.49441
 Alpha  occ. eigenvalues --   -0.47686  -0.47216  -0.42845  -0.42049  -0.41498
 Alpha  occ. eigenvalues --   -0.40188  -0.39333  -0.34723  -0.33668  -0.32981
 Alpha  occ. eigenvalues --   -0.31614  -0.26993  -0.24840  -0.23208
 Alpha virt. eigenvalues --    0.07142   0.07650   0.09138   0.09690   0.11559
 Alpha virt. eigenvalues --    0.12607   0.13706   0.14564   0.15011   0.16234
 Alpha virt. eigenvalues --    0.17868   0.18305   0.19535   0.20254   0.21345

 Mulliken charges:
               1
     1  C   -0.496116
     2  C    0.389278
     3  O   -0.320331
     4  C   -0.094656
     5  C   -0.273830
     6  C    0.241810
     7  C   -0.142199
     8  O   -0.277231
     9  C   -0.155240
    10  H    0.136852
    11  H    0.131834
    12  H    0.126969
    13  H    0.111136
    14  H    0.106666
    15  H    0.099559
    16  H    0.099696
    17  H    0.113285
    18  H    0.100554
    19  H    0.101964
 Sum of Mulliken charges =   0.00000

 Dipole moment (field-independent basis, Debye):
    X=             -1.2740    Y=              0.4655    Z=              1.7573  Tot=              2.2199
 Quadrupole moment (field-independent basis, Debye-Ang):
   XX=            -60.9432   YY=            -48.8865   ZZ=            -52.6397
   XY=              0.3101   XZ=             -1.4182   YZ=             -0.3708

  Exact polarizability:  79.850   2.238  79.565  -0.262  -0.116  67.223
 Approx polarizability: 109.752   3.573 110.509   1.219  -1.249 105.190

                      1                      2                      3
                      A                      A                      A
 Frequencies --     88.7167               161.8995               173.8065
 Red. masses --      4.0056                 3.0410                 2.1174
 Frc consts  --      0.0186                 0.0470                 0.0377
 IR Inten    --      3.8755                 2.6218                 0.2240

                      4                      5                      6
                      A                      A                      A
 Frequencies --    191.9605               223.6038               271.2088
 Red. masses --      1.2123                 2.3435                 2.4685
 Frc consts  --      0.0263                 0.0690                 0.1070
 IR Inten    --      0.2930                 1.4116                 4.7448

                      7                      8                      9
                      A                      A                      A
 Frequencies --    336.1876               449.4533               486.2604
 Red. masses --      2.5259                 3.6502                 2.5203
 Frc consts  --      0.1682                 0.4344                 0.3511
 IR Inten    --      1.4310                 1.1584                 1.4334

                     10                     11                     12
                      A                      A                      A
 Frequencies --    572.4586               666.2409               761.9702
 Red. masses --      4.3278                 3.1421                 3.3490
 Frc consts  --      0.8356                 0.8217                 1.1456
 IR Inten    --      2.0281                 4.1640                 6.3707

                     13                     14                     15
                      A                      A                      A
 Frequencies --    847.0212               878.7391               920.3511
 Red. masses --      3.3390                 1.9859                 1.5811
 Frc consts  --      1.4114                 0.9035                 0.7891
 IR Inten    --      5.8633                10.1112                13.4860

                     16                     17                     18
                      A                      A                      A
 Frequencies --    929.8091               964.2825               977.7167
 Red. masses --      2.2817                 2.0758                 2.0320
 Frc consts  --      1.1622                 1.1372                 1.1445
 IR Inten    --     23.1666                 2.7837                34.5525

                     19                     20                     21
                      A                      A                      A
 Frequencies --    982.9376               994.0352              1029.3267
 Red. masses --      3.0074                 3.0191                11.1912
 Frc consts  --      1.7120                 1.7577                 6.9861
 IR Inten    --     10.2862                23.9289                80.6596

                     22                     23                     24
                      A                      A                      A
 Frequencies --   1061.5892              1113.3074              1124.3987
 Red. masses --      1.8857                 1.8446                 1.9410
 Frc consts  --      1.2521                 1.3471                 1.4458
 IR Inten    --      3.5280                 9.0209                 2.0996

                     25                     26                     27
                      A                      A                      A
 Frequencies --   1136.8782              1148.8031              1151.7942
 Red. masses --      2.4264                 1.2765                 1.1750
 Frc consts  --      1.8478                 0.9926                 0.9184
 IR Inten    --     14.5571                 0.6277                 4.9284

                     28                     29                     30
                      A                      A                      A
 Frequencies --   1160.7217              1199.7629              1215.4368
 Red. masses --      1.2951                 2.4451                 2.1294
 Frc consts  --      1.0280                 2.0737                 1.8534
 IR Inten    --      4.8327                24.3910                 9.5808

                     31                     32                     33
                      A                      A                      A
 Frequencies --   1282.5935              1306.4040              1334.5426
 Red. masses --      2.8115                 1.3684                 1.4641
 Frc consts  --      2.7250                 1.3760                 1.5363
 IR Inten    --      6.7216                 0.1484                 4.9871

                     34                     35                     36
                      A                      A                      A
 Frequencies --   1369.3227              1408.7402              1473.3318
 Red. masses --      1.4631                 1.3010                 1.0554
 Frc consts  --      1.6164                 1.5212                 1.3498
 IR Inten    --      5.0814                 6.8183                 3.2679

                     37                     38                     39
                      A                      A                      A
 Frequencies --   1481.5094              1507.6886              1510.5113
 Red. masses --      1.8028                 1.5379                 1.1023
 Frc consts  --      2.3314                 2.0597                 1.4819
 IR Inten    --      8.8061                 6.8213                 2.7747

                     40                     41                     42
                      A                      A                      A
 Frequencies --   1521.2287              1534.4428              2994.0110
 Red. masses --      1.2345                 1.1099                 1.0532
 Frc consts  --      1.6831                 1.5397                 5.5625
 IR Inten    --      1.3915                 0.2000               103.4551

                     43                     44                     45
                      A                      A                      A
 Frequencies --   3009.4984              3023.4860              3033.3139
 Red. masses --      1.0595                 1.0550                 1.0746
 Frc consts  --      5.6540                 5.6823                 5.8253
 IR Inten    --     19.5613                84.2116                 8.1772

                     46                     47                     48
                      A                      A                      A
 Frequencies --   3035.6492              3058.2290              3071.3446
 Red. masses --      1.0693                 1.1069                 1.1110
 Frc consts  --      5.8056                 6.0994                 6.1748
 IR Inten    --     55.1997                36.1747                35.6679

                     49                     50                     51
                      A                      A                      A
 Frequencies --   3099.1532              3117.5637              3187.8170
 Red. masses --      1.0997                 1.1010                 1.0936
 Frc consts  --      6.2233                 6.3049                 6.5477
 IR Inten    --     14.2116                16.3086                10.0539

 - Thermochemistry -
 -------------------
 Temperature   298.150 Kelvin.  Pressure   1.00000 Atm.
 Atom     1 has atomic number  6 and mass  12.00000

 Molecular mass:   126.06808 amu.
 Principal axes and moments of inertia in atomic units:
                           1         2         3
     Eigenvalues --   632.037481252.693351513.68553
           X            0.99993  -0.01057  -0.00439
           Y            0.01056   0.99994  -0.00290
           Z            0.00442   0.00285   0.99999
 This molecule is an asymmetric top.
 Rotational symmetry number  1.
 Warning -- assumption of classical behavior for rotation
           may cause significant error
 Rotational temperatures (Kelvin)      0.13704     0.06914     0.05722
 Rotational constants (GHZ):           2.85543     1.44069     1.19228
 Zero-point vibrational energy     416187.2 (Joules/Mol)
                                   99.47112 (Kcal/Mol)
 Warning -- explicit consideration of  10 degrees of freedom as
           vibrations may cause significant error
 Vibrational temperatures:    127.64   232.94   250.07   276.19   321.72
          (Kelvin)            390.21   483.70   646.66   699.62   823.64
                              958.57  1096.30  1218.67  1264.31  1324.18
                             1337.79  1387.39  1406.71  1414.23  1430.19
                             1480.97  1527.39  1601.80  1617.76  1635.71
                             1652.87  1657.17  1670.02  1726.19  1748.74
                             1845.36  1879.62  1920.11  1970.15  2026.86
                             2119.79  2131.56  2169.22  2173.29  2188.71
                             2207.72  4307.71  4329.99  4350.12  4364.26
                             4367.62  4400.10  4418.97  4458.98  4485.47
                             4586.55

 Zero-point correction=                           0.158517 (Hartree/Particle)
 Thermal correction to Energy=                    0.166838
 Thermal correction to Enthalpy=                  0.167782
 Thermal correction to Gibbs Free Energy=         0.125565
 Sum of electronic and zero-point Energies=           -422.956528
 Sum of electronic and thermal Energies=              -422.948207
 Sum of electronic and thermal Enthalpies=            -422.947263
 Sum of electronic and thermal Free Energies=         -422.989480

                     E (Thermal)             CV                S
                      KCal/Mol        Cal/Mol-Kelvin    Cal/Mol-Kelvin
 Total                  104.693             31.301             88.854
 Electronic               0.000              0.000              0.000
 Translational            0.889              2.981             40.409
 Rotational               0.889              2.981             28.573
 Vibrational            102.915             25.340             19.872
 Vibration     1          0.602              1.957              3.688
 Vibration     2          0.622              1.889              2.527
 Vibration     3          0.627              1.875              2.394
 Vibration     4          0.634              1.851              2.209
 Vibration     5          0.649              1.805              1.930
 Vibration     6          0.675              1.726              1.588
 Vibration     7          0.717              1.603              1.230
 Vibration     8          0.808              1.362              0.797
 Vibration     9          0.842              1.281              0.693
 Vibration    10          0.929              1.091              0.500

 Normal termination of Gaussian 09 at Mon Jan 27 19:25:55 2020.
