 Gaussian 09, Revision D.01,
 Gaussian 09:  ES64L-G09RevD.01 24-Apr-2013

 -----------------------------
 # b3lyp 6-31G(2df,p) opt Freq
 -----------------------------

 -----
 titel
 -----
 Symbolic Z-matrix:
 Charge =  0 Multiplicity = 1

 SCF Done:  E(RB3LYP) =  -423.111342368     A.U. after   13 cycles
 Optimization completed.
    -- Stationary point found.
 Normal termination of Gaussian 09 at Tue Jan 28 14:09:14 2020.

 ----------------------------------------------------------------------
 #N Geom=AllCheck Guess=TCheck SCRF=Check GenChk RB3LYP/6-31G(2df,p) Fr
 eq
 ----------------------------------------------------------------------

 Structure from the checkpoint file:  "/scratch/puck/g09_4a2fed7f-5f6f-436d-b919-8683cdcfa685/Gau-147319.chk"
 -----
 titel
 -----
 Charge =  0 Multiplicity = 1

                         Standard orientation:
 ---------------------------------------------------------------------
 Center     Atomic      Atomic             Coordinates (Angstroms)
 Number     Number       Type             X           Y           Z
 ---------------------------------------------------------------------
      1          8           0        3.504999    0.142083   -0.185913
      2          6           0        2.127054    0.113489   -0.520465
      3          6           0        1.228422   -0.048829    0.713418
      4          6           0       -0.220852   -0.088493    0.361403
      5          8           0       -0.715090   -1.186677   -0.419477
      6          6           0       -2.051481   -0.724451   -0.076274
      7          6           0       -2.201594    0.590110   -0.884678
      8          6           0       -1.121602    1.129421    0.052571
      9          6           0       -1.481496    0.107213    1.132981
     10          1           0        3.747689   -0.732007    0.135492
     11          1           0        1.916328    1.071279   -1.007094
     12          1           0        1.900190   -0.678124   -1.248732
     13          1           0        1.495593   -0.975330    1.239860
     14          1           0        1.412577    0.779843    1.406306
     15          1           0       -2.797697   -1.515940   -0.068706
     16          1           0       -1.997978    0.525444   -1.958226
     17          1           0       -3.166431    1.070503   -0.702032
     18          1           0       -0.783787    2.149326    0.187452
     19          1           0       -1.716468    0.190999    2.185061
 ---------------------------------------------------------------------

 SCF Done:  E(RB3LYP) =  -423.111342368     A.U. after    1 cycles

 The electronic state is 1-A.
 Alpha  occ. eigenvalues --  -19.13375 -19.13220 -10.24386 -10.24259 -10.22427
 Alpha  occ. eigenvalues --  -10.19593 -10.19291 -10.18844 -10.18749  -1.05969
 Alpha  occ. eigenvalues --   -1.01305  -0.85580  -0.77890  -0.70993  -0.64685
 Alpha  occ. eigenvalues --   -0.62768  -0.55276  -0.53964  -0.50858  -0.50469
 Alpha  occ. eigenvalues --   -0.46799  -0.45109  -0.43094  -0.42293  -0.41152
 Alpha  occ. eigenvalues --   -0.37636  -0.36874  -0.35925  -0.32948  -0.32649
 Alpha  occ. eigenvalues --   -0.29071  -0.27371  -0.25634  -0.22911
 Alpha virt. eigenvalues --    0.07792   0.08406   0.09490   0.10639   0.12385
 Alpha virt. eigenvalues --    0.14025   0.14747   0.15400   0.15565   0.15735
 Alpha virt. eigenvalues --    0.16622   0.18311   0.19673   0.20480   0.20658

 Mulliken charges:
               1
     1  O   -0.419124
     2  C   -0.059873
     3  C   -0.351865
     4  C    0.507495
     5  O   -0.334688
     6  C    0.067827
     7  C   -0.232334
     8  C   -0.157676
     9  C   -0.222602
    10  H    0.281963
    11  H    0.114819
    12  H    0.110367
    13  H    0.100324
    14  H    0.114157
    15  H    0.086553
    16  H    0.100601
    17  H    0.103943
    18  H    0.091666
    19  H    0.098446
 Sum of Mulliken charges =   0.00000

 Dipole moment (field-independent basis, Debye):
    X=             -1.3475    Y=             -0.0122    Z=              1.1775  Tot=              1.7896
 Quadrupole moment (field-independent basis, Debye-Ang):
   XX=            -53.8319   YY=            -52.9192   ZZ=            -52.4865
   XY=             -4.7620   XZ=              1.3048   YZ=             -0.9047

  Exact polarizability:  88.159  -1.188  68.077   3.097  -1.615  68.113
 Approx polarizability: 113.812  -1.322 108.625   1.899  -1.226 102.671

                      1                      2                      3
                      A                      A                      A
 Frequencies --     74.8880                93.7653               108.8845
 Red. masses --      3.8227                 1.9870                 4.1202
 Frc consts  --      0.0126                 0.0103                 0.0288
 IR Inten    --      2.2593                 4.8401                 0.0586

                      4                      5                      6
                      A                      A                      A
 Frequencies --    284.3038               310.3635               333.6089
 Red. masses --      1.5143                 1.6041                 3.1551
 Frc consts  --      0.0721                 0.0910                 0.2069
 IR Inten    --     47.7106                44.8733                11.4035

                      7                      8                      9
                      A                      A                      A
 Frequencies --    353.1609               457.8568               555.7897
 Red. masses --      5.5351                 2.0665                 4.1250
 Frc consts  --      0.4067                 0.2552                 0.7507
 IR Inten    --     19.8679                 1.5953                 0.8689

                     10                     11                     12
                      A                      A                      A
 Frequencies --    687.0045               745.0520               787.3430
 Red. masses --      3.4997                 2.1887                 2.6399
 Frc consts  --      0.9732                 0.7158                 0.9642
 IR Inten    --      1.3394                 3.4189                13.0172

                     13                     14                     15
                      A                      A                      A
 Frequencies --    798.5941               800.3470               829.8447
 Red. masses --      1.6594                 2.1067                 1.7726
 Frc consts  --      0.6235                 0.7951                 0.7192
 IR Inten    --      6.7573                 7.4311                 8.7444

                     16                     17                     18
                      A                      A                      A
 Frequencies --    891.8524               919.5697               936.8415
 Red. masses --      1.9850                 1.8286                 3.2353
 Frc consts  --      0.9302                 0.9110                 1.6730
 IR Inten    --     20.4339                10.9789                31.9685

                     19                     20                     21
                      A                      A                      A
 Frequencies --    959.0525               973.8377              1005.3637
 Red. masses --      1.9662                 2.3192                 2.0314
 Frc consts  --      1.0655                 1.2959                 1.2098
 IR Inten    --      6.3651                13.5784                 1.4257

                     22                     23                     24
                      A                      A                      A
 Frequencies --   1031.1388              1059.7786              1071.6251
 Red. masses --      2.6424                 2.0412                 3.1573
 Frc consts  --      1.6553                 1.3507                 2.1363
 IR Inten    --     23.6836                13.2800               129.8333

                     25                     26                     27
                      A                      A                      A
 Frequencies --   1086.3671              1097.6631              1132.1101
 Red. masses --      3.0609                 1.6358                 1.9682
 Frc consts  --      2.1284                 1.1612                 1.4863
 IR Inten    --      3.3660                 2.8074                 5.6226

                     28                     29                     30
                      A                      A                      A
 Frequencies --   1152.8802              1164.4835              1203.2431
 Red. masses --      1.4204                 1.4861                 1.4277
 Frc consts  --      1.1123                 1.1873                 1.2179
 IR Inten    --      7.4449                 4.2892                 7.8631

                     31                     32                     33
                      A                      A                      A
 Frequencies --   1251.0956              1263.9605              1283.8853
 Red. masses --      1.9629                 1.4906                 1.4827
 Frc consts  --      1.8102                 1.4030                 1.4400
 IR Inten    --      7.5865                11.5356                 3.0217

                     34                     35                     36
                      A                      A                      A
 Frequencies --   1307.2202              1332.6158              1395.6761
 Red. masses --      1.4835                 1.2918                 1.3129
 Frc consts  --      1.4936                 1.3516                 1.5068
 IR Inten    --      4.1552                 8.0168                15.5426

                     37                     38                     39
                      A                      A                      A
 Frequencies --   1414.9849              1452.7094              1474.4477
 Red. masses --      1.2728                 2.8053                 1.3268
 Frc consts  --      1.5015                 3.4881                 1.6995
 IR Inten    --     35.1643                 8.0943                 6.0129

                     40                     41                     42
                      A                      A                      A
 Frequencies --   1488.4377              1512.8138              3007.3558
 Red. masses --      1.1254                 1.0900                 1.0661
 Frc consts  --      1.4690                 1.4697                 5.6811
 IR Inten    --      0.6448                 0.5642                27.2580

                     43                     44                     45
                      A                      A                      A
 Frequencies --   3016.5785              3048.1005              3067.8454
 Red. masses --      1.0657                 1.0570                 1.0913
 Frc consts  --      5.7136                 5.7860                 6.0515
 IR Inten    --     34.6357                46.1876                 6.7681

                     46                     47                     48
                      A                      A                      A
 Frequencies --   3087.8035              3110.7822              3146.0738
 Red. masses --      1.1015                 1.1078                 1.0926
 Frc consts  --      6.1877                 6.3158                 6.3715
 IR Inten    --     38.0523                23.1410                39.7031

                     49                     50                     51
                      A                      A                      A
 Frequencies --   3194.5521              3210.0266              3817.4993
 Red. masses --      1.0908                 1.1004                 1.0662
 Frc consts  --      6.5584                 6.6804                 9.1546
 IR Inten    --     13.4643                 7.9354                19.3155

 - Thermochemistry -
 -------------------
 Temperature   298.150 Kelvin.  Pressure   1.00000 Atm.
 Atom     1 has atomic number  8 and mass  15.99491

 Molecular mass:   126.06808 amu.
 Principal axes and moments of inertia in atomic units:
                           1         2         3
     Eigenvalues --   413.131051905.111691930.46634
           X            0.99993  -0.00948   0.00767
           Y            0.01076   0.98212  -0.18797
           Z           -0.00575   0.18803   0.98215
 This molecule is an asymmetric top.
 Rotational symmetry number  1.
 Rotational temperatures (Kelvin)      0.20965     0.04546     0.04487
 Rotational constants (GHZ):           4.36845     0.94732     0.93487
 Zero-point vibrational energy     417443.3 (Joules/Mol)
                                   99.77135 (Kcal/Mol)
 Warning -- explicit consideration of   9 degrees of freedom as
           vibrations may cause significant error
 Vibrational temperatures:    107.75   134.91   156.66   409.05   446.54
          (Kelvin)            479.99   508.12   658.75   799.66   988.44
                             1071.96  1132.81  1149.00  1151.52  1193.96
                             1283.18  1323.05  1347.90  1379.86  1401.13
                             1446.49  1483.58  1524.78  1541.83  1563.04
                             1579.29  1628.85  1658.74  1675.43  1731.20
                             1800.05  1818.55  1847.22  1880.80  1917.33
                             2008.06  2035.85  2090.12  2121.40  2141.53
                             2176.60  4326.91  4340.18  4385.53  4413.94
                             4442.66  4475.72  4526.49  4596.24  4618.51
                             5492.52

 Zero-point correction=                           0.158996 (Hartree/Particle)
 Thermal correction to Energy=                    0.167215
 Thermal correction to Enthalpy=                  0.168159
 Thermal correction to Gibbs Free Energy=         0.125611
 Sum of electronic and zero-point Energies=           -422.952347
 Sum of electronic and thermal Energies=              -422.944127
 Sum of electronic and thermal Enthalpies=            -422.943183
 Sum of electronic and thermal Free Energies=         -422.985731

                     E (Thermal)             CV                S
                      KCal/Mol        Cal/Mol-Kelvin    Cal/Mol-Kelvin
 Total                  104.929             31.410             89.550
 Electronic               0.000              0.000              0.000
 Translational            0.889              2.981             40.409
 Rotational               0.889              2.981             28.809
 Vibrational            103.152             25.449             20.332
 Vibration     1          0.599              1.966              4.021
 Vibration     2          0.603              1.954              3.580
 Vibration     3          0.606              1.942              3.289
 Vibration     4          0.683              1.703              1.508
 Vibration     5          0.699              1.654              1.360
 Vibration     6          0.715              1.608              1.243
 Vibration     7          0.729              1.569              1.152
 Vibration     8          0.816              1.344              0.772
 Vibration     9          0.911              1.127              0.532

 Optimization completed.
    -- Stationary point found.
 Normal termination of Gaussian 09 at Tue Jan 28 14:49:32 2020.
