 Gaussian 09, Revision D.01,
 Gaussian 09:  ES64L-G09RevD.01 24-Apr-2013

 -----------------------------
 # b3lyp 6-31G(2df,p) opt Freq
 -----------------------------

 -----
 titel
 -----
 Symbolic Z-matrix:
 Charge =  0 Multiplicity = 1

 SCF Done:  E(RB3LYP) =  -423.156363575     A.U. after   14 cycles
 Optimization completed.
    -- Stationary point found.
 Normal termination of Gaussian 09 at Tue Jan 28 14:29:20 2020.

 ----------------------------------------------------------------------
 #N Geom=AllCheck Guess=TCheck SCRF=Check GenChk RB3LYP/6-31G(2df,p) Fr
 eq
 ----------------------------------------------------------------------

 Structure from the checkpoint file:  "/scratch/puck/g09_e2568122-25b6-4892-a82c-63e6dc033052/Gau-164343.chk"
 -----
 titel
 -----
 Charge =  0 Multiplicity = 1

                         Standard orientation:
 ---------------------------------------------------------------------
 Center     Atomic      Atomic             Coordinates (Angstroms)
 Number     Number       Type             X           Y           Z
 ---------------------------------------------------------------------
      1          8           0        4.169411    0.169387    0.027597
      2          6           0        2.866346    0.394439   -0.483910
      3          6           0        1.774797   -0.285593    0.344888
      4          6           0        0.374841   -0.092989   -0.247235
      5          6           0       -0.719940   -0.779185    0.591629
      6          6           0       -2.108121   -0.569979    0.014874
      7          8           0       -2.777783   -1.466353   -0.449839
      8          6           0       -2.602225    0.801286    0.040623
      9          6           0       -3.009380    1.933896    0.073369
     10          1           0        4.215191    0.567825    0.902526
     11          1           0        2.651092    1.471943   -0.575243
     12          1           0        2.873999   -0.016164   -1.499807
     13          1           0        2.011098   -1.353394    0.424878
     14          1           0        1.796912    0.117154    1.368217
     15          1           0        0.149719    0.977293   -0.329516
     16          1           0        0.348118   -0.496274   -1.267415
     17          1           0       -0.550762   -1.858382    0.644340
     18          1           0       -0.701538   -0.373882    1.611687
     19          1           0       -3.384768    2.928363    0.092840
 ---------------------------------------------------------------------

 SCF Done:  E(RB3LYP) =  -423.156363575     A.U. after    1 cycles

 The electronic state is 1-A.
 Alpha  occ. eigenvalues --  -19.14215 -19.13668 -10.29364 -10.23034 -10.20977
 Alpha  occ. eigenvalues --  -10.20297 -10.20034 -10.20006 -10.19001  -1.05222
 Alpha  occ. eigenvalues --   -1.01789  -0.81759  -0.77869  -0.74244  -0.66554
 Alpha  occ. eigenvalues --   -0.62410  -0.60047  -0.53790  -0.50975  -0.49551
 Alpha  occ. eigenvalues --   -0.46917  -0.45172  -0.44491  -0.41761  -0.41051
 Alpha  occ. eigenvalues --   -0.38937  -0.36668  -0.35549  -0.34632  -0.32456
 Alpha  occ. eigenvalues --   -0.29957  -0.29910  -0.27313  -0.25977
 Alpha virt. eigenvalues --   -0.05959   0.03237   0.07176   0.08032   0.10286
 Alpha virt. eigenvalues --    0.10697   0.11608   0.12200   0.13767   0.16040
 Alpha virt. eigenvalues --    0.16816   0.18276   0.18921   0.19706   0.21352

 Mulliken charges:
               1
     1  O   -0.416224
     2  C   -0.060272
     3  C   -0.195595
     4  C   -0.195682
     5  C   -0.302357
     6  C    0.253612
     7  O   -0.276710
     8  C    0.280702
     9  C   -0.460972
    10  H    0.280636
    11  H    0.086443
    12  H    0.114544
    13  H    0.112474
    14  H    0.087177
    15  H    0.113893
    16  H    0.115693
    17  H    0.125592
    18  H    0.119269
    19  H    0.217778
 Sum of Mulliken charges =   0.00000

 Dipole moment (field-independent basis, Debye):
    X=              0.6272    Y=              2.8346    Z=              1.7626  Tot=              3.3964
 Quadrupole moment (field-independent basis, Debye-Ang):
   XX=            -66.8219   YY=            -50.4494   ZZ=            -51.5741
   XY=             -6.5879   XZ=              1.4657   YZ=             -0.1045

  Exact polarizability:  90.175  -7.323  87.986   2.928   2.258  60.226
 Approx polarizability: 108.367  -9.563 152.878   5.792   9.754  92.253

                      1                      2                      3
                      A                      A                      A
 Frequencies --     31.6570                48.8623                90.9579
 Red. masses --      2.8207                 2.9247                 5.0865
 Frc consts  --      0.0017                 0.0041                 0.0248
 IR Inten    --      1.5660                 1.1713                 3.2822

                      4                      5                      6
                      A                      A                      A
 Frequencies --    105.5385               140.2683               163.3950
 Red. masses --      2.6023                 2.1309                 3.8457
 Frc consts  --      0.0171                 0.0247                 0.0605
 IR Inten    --      2.9186                 1.2303                 1.5572

                      7                      8                      9
                      A                      A                      A
 Frequencies --    218.6205               271.9842               304.4891
 Red. masses --      4.2276                 4.3764                 1.2129
 Frc consts  --      0.1190                 0.1907                 0.0663
 IR Inten    --      2.0926                 9.2074                99.0992

                     10                     11                     12
                      A                      A                      A
 Frequencies --    332.8020               437.0144               470.6160
 Red. masses --      3.9681                 3.5067                 3.8577
 Frc consts  --      0.2589                 0.3946                 0.5034
 IR Inten    --      1.2694                 5.7378                10.5641

                     13                     14                     15
                      A                      A                      A
 Frequencies --    611.7875               649.4882               705.4754
 Red. masses --      6.2541                 1.2492                 1.8161
 Frc consts  --      1.3792                 0.3105                 0.5325
 IR Inten    --      9.2155                43.5910                15.8389

                     16                     17                     18
                      A                      A                      A
 Frequencies --    717.1739               739.5173               765.1418
 Red. masses --      2.4890                 1.2211                 1.8439
 Frc consts  --      0.7543                 0.3934                 0.6360
 IR Inten    --     17.8840                 1.5973                16.7536

                     19                     20                     21
                      A                      A                      A
 Frequencies --    810.2896               926.0175               996.3995
 Red. masses --      1.5286                 1.4152                 4.1567
 Frc consts  --      0.5913                 0.7150                 2.4315
 IR Inten    --      4.1125                 1.1564                12.0570

                     22                     23                     24
                      A                      A                      A
 Frequencies --   1042.9351              1055.0908              1065.1342
 Red. masses --      2.7426                 3.1363                 2.0011
 Frc consts  --      1.7576                 2.0571                 1.3376
 IR Inten    --     39.6390                 3.9572                89.1080

                     25                     26                     27
                      A                      A                      A
 Frequencies --   1083.8259              1136.7101              1212.8564
 Red. masses --      3.7146                 1.3867                 2.5376
 Frc consts  --      2.5709                 1.0557                 2.1993
 IR Inten    --     57.9205                 4.9998               118.7216

                     28                     29                     30
                      A                      A                      A
 Frequencies --   1245.0245              1272.4805              1316.8659
 Red. masses --      1.2749                 1.4369                 1.2150
 Frc consts  --      1.1644                 1.3708                 1.2414
 IR Inten    --      0.6604                11.7689                 4.8280

                     31                     32                     33
                      A                      A                      A
 Frequencies --   1325.9798              1329.5643              1381.5079
 Red. masses --      1.2301                 1.1413                 1.4000
 Frc consts  --      1.2743                 1.1887                 1.5743
 IR Inten    --     22.1588                 0.3975                 4.1650

                     34                     35                     36
                      A                      A                      A
 Frequencies --   1401.0124              1424.8522              1466.4640
 Red. masses --      1.3324                 1.2928                 1.0904
 Frc consts  --      1.5409                 1.5464                 1.3816
 IR Inten    --      7.2658                43.7078                 2.8243

                     37                     38                     39
                      A                      A                      A
 Frequencies --   1485.9092              1499.1954              1516.4162
 Red. masses --      1.0765                 1.0918                 1.0958
 Frc consts  --      1.4003                 1.4458                 1.4846
 IR Inten    --      0.4711                 2.2460                 1.0957

                     40                     41                     42
                      A                      A                      A
 Frequencies --   1770.5028              2208.3165              2969.1489
 Red. masses --     11.8716                 5.9100                 1.0708
 Frc consts  --     21.9257                16.9810                 5.5617
 IR Inten    --    180.6460                56.5677                52.3532

                     43                     44                     45
                      A                      A                      A
 Frequencies --   3002.7485              3023.2840              3032.7144
 Red. masses --      1.0654                 1.0603                 1.0622
 Frc consts  --      5.6596                 5.7098                 5.7561
 IR Inten    --     18.0711                 4.4419                28.2949

                     46                     47                     48
                      A                      A                      A
 Frequencies --   3052.1611              3063.5570              3079.2919
 Red. masses --      1.0907                 1.0948                 1.1012
 Frc consts  --      5.9863                 6.0541                 6.1518
 IR Inten    --     12.6094                 6.1653                52.4254

                     49                     50                     51
                      A                      A                      A
 Frequencies --   3104.9202              3493.7563              3815.7420
 Red. masses --      1.1008                 1.1617                 1.0661
 Frc consts  --      6.2526                 8.3550                 9.1456
 IR Inten    --     27.0997                51.9369                16.2809

 - Thermochemistry -
 -------------------
 Temperature   298.150 Kelvin.  Pressure   1.00000 Atm.
 Atom     1 has atomic number  8 and mass  15.99491

 Molecular mass:   126.06808 amu.
 Principal axes and moments of inertia in atomic units:
                           1         2         3
     Eigenvalues --   507.470563086.218823431.43877
           X            0.99998  -0.00654  -0.00098
           Y            0.00652   0.99979  -0.01967
           Z            0.00111   0.01966   0.99981
 This molecule is an asymmetric top.
 Rotational symmetry number  1.
 Warning -- assumption of classical behavior for rotation
           may cause significant error
 Rotational temperatures (Kelvin)      0.17068     0.02806     0.02524
 Rotational constants (GHZ):           3.55635     0.58477     0.52594
 Zero-point vibrational energy     409215.3 (Joules/Mol)
                                   97.80482 (Kcal/Mol)
 Warning -- explicit consideration of  13 degrees of freedom as
           vibrations may cause significant error
 Vibrational temperatures:     45.55    70.30   130.87   151.85   201.81
          (Kelvin)            235.09   314.55   391.32   438.09   478.83
                              628.77   677.11   880.22   934.47  1015.02
                             1031.85  1064.00  1100.87  1165.82  1332.33
                             1433.59  1500.55  1518.04  1532.49  1559.38
                             1635.47  1745.03  1791.31  1830.81  1894.67
                             1907.79  1912.94  1987.68  2015.74  2050.04
                             2109.91  2137.89  2157.01  2181.78  2547.36
                             3177.27  4271.94  4320.28  4349.83  4363.39
                             4391.37  4407.77  4430.41  4467.28  5026.73
                             5489.99

 Zero-point correction=                           0.155862 (Hartree/Particle)
 Thermal correction to Energy=                    0.166576
 Thermal correction to Enthalpy=                  0.167520
 Thermal correction to Gibbs Free Energy=         0.118078
 Sum of electronic and zero-point Energies=           -423.000502
 Sum of electronic and thermal Energies=              -422.989787
 Sum of electronic and thermal Enthalpies=            -422.988843
 Sum of electronic and thermal Free Energies=         -423.038286

                     E (Thermal)             CV                S
                      KCal/Mol        Cal/Mol-Kelvin    Cal/Mol-Kelvin
 Total                  104.528             36.752            104.061
 Electronic               0.000              0.000              0.000
 Translational            0.889              2.981             40.409
 Rotational               0.889              2.981             30.064
 Vibrational            102.751             30.791             33.588
 Vibration     1          0.594              1.983              5.723
 Vibration     2          0.595              1.978              4.863
 Vibration     3          0.602              1.956              3.639
 Vibration     4          0.605              1.945              3.349
 Vibration     5          0.615              1.913              2.800
 Vibration     6          0.623              1.887              2.510
 Vibration     7          0.646              1.813              1.970
 Vibration     8          0.675              1.725              1.584
 Vibration     9          0.695              1.665              1.392
 Vibration    10          0.715              1.610              1.246
 Vibration    11          0.797              1.390              0.836
 Vibration    12          0.828              1.315              0.736
 Vibration    13          0.971              1.007              0.430

 Optimization completed.
    -- Stationary point found.
 Normal termination of Gaussian 09 at Tue Jan 28 15:06:50 2020.
