 Gaussian 09, Revision D.01,
 Gaussian 09:  ES64L-G09RevD.01 24-Apr-2013

 -----------------------------
 # b3lyp 6-31G(2df,p) opt Freq
 -----------------------------

 -----
 titel
 -----
 Symbolic Z-matrix:
 Charge =  0 Multiplicity = 1

 SCF Done:  E(RB3LYP) =  -423.208513148     A.U. after   14 cycles
 Optimization completed.
    -- Stationary point found.
 Normal termination of Gaussian 09 at Mon Jan 27 22:03:19 2020.

 ----------------------------------------------------------------------
 #N Geom=AllCheck Guess=TCheck SCRF=Check GenChk RB3LYP/6-31G(2df,p) Fr
 eq
 ----------------------------------------------------------------------

 Structure from the checkpoint file:  "/scratch/puck/g09_c1caf01e-a8e7-4f89-bf84-63c787b1f48d/Gau-181012.chk"
 -----
 titel
 -----
 Charge =  0 Multiplicity = 1

                         Standard orientation:
 ---------------------------------------------------------------------
 Center     Atomic      Atomic             Coordinates (Angstroms)
 Number     Number       Type             X           Y           Z
 ---------------------------------------------------------------------
      1          6           0       -2.720747    0.376464   -0.144865
      2          6           0       -1.317248   -0.110648    0.101428
      3          6           0       -0.902834   -1.302345   -0.337677
      4          6           0        0.455732   -1.930917   -0.186179
      5          8           0        1.414080   -1.165262    0.518744
      6          6           0        1.813451    0.008766   -0.146298
      7          6           0        0.819976    1.169714   -0.009856
      8          8           0        1.024368    2.227006   -0.552828
      9          6           0       -0.412625    0.874631    0.835531
     10          1           0       -3.228227    0.605061    0.800941
     11          1           0       -2.713125    1.307049   -0.726421
     12          1           0       -3.319145   -0.361496   -0.685119
     13          1           0       -1.612799   -1.932075   -0.872602
     14          1           0        0.367305   -2.873311    0.369492
     15          1           0        0.847516   -2.196457   -1.185899
     16          1           0        2.757344    0.331754    0.307547
     17          1           0        2.008116   -0.164806   -1.216148
     18          1           0       -0.095859    0.458355    1.797385
     19          1           0       -0.932951    1.817984    1.010984
 ---------------------------------------------------------------------

 SCF Done:  E(RB3LYP) =  -423.208513148     A.U. after    1 cycles

 The electronic state is 1-A.
 Alpha  occ. eigenvalues --  -19.15383 -19.13043 -10.26959 -10.24161 -10.23843
 Alpha  occ. eigenvalues --  -10.20396 -10.19248 -10.18680 -10.18505  -1.05239
 Alpha  occ. eigenvalues --   -1.03846  -0.82393  -0.76980  -0.71773  -0.69786
 Alpha  occ. eigenvalues --   -0.64012  -0.54899  -0.54097  -0.49952  -0.48403
 Alpha  occ. eigenvalues --   -0.47026  -0.44805  -0.43716  -0.42698  -0.41662
 Alpha  occ. eigenvalues --   -0.40268  -0.39066  -0.37750  -0.36523  -0.34128
 Alpha  occ. eigenvalues --   -0.32520  -0.28736  -0.25429  -0.22975
 Alpha virt. eigenvalues --   -0.01467   0.01818   0.08024   0.10890   0.12414
 Alpha virt. eigenvalues --    0.12954   0.14327   0.14902   0.15232   0.15943
 Alpha virt. eigenvalues --    0.16991   0.17823   0.18889   0.22163   0.22677

 Mulliken charges:
               1
     1  C   -0.473540
     2  C    0.284878
     3  C   -0.138189
     4  C   -0.140411
     5  O   -0.233993
     6  C   -0.181515
     7  C    0.357041
     8  O   -0.300355
     9  C   -0.387131
    10  H    0.128246
    11  H    0.136649
    12  H    0.121266
    13  H    0.085185
    14  H    0.123452
    15  H    0.100948
    16  H    0.140121
    17  H    0.122281
    18  H    0.137510
    19  H    0.117558
 Sum of Mulliken charges =   0.00000

 Dipole moment (field-independent basis, Debye):
    X=             -1.2013    Y=             -1.9738    Z=              0.2137  Tot=              2.3205
 Quadrupole moment (field-independent basis, Debye-Ang):
   XX=            -51.2024   YY=            -57.9697   ZZ=            -53.2658
   XY=             -1.6246   XZ=             -0.1098   YZ=              4.6652

  Exact polarizability:  85.273  -2.603  89.682  -1.965   4.987  60.409
 Approx polarizability: 110.769  -3.556 139.968  -3.353   5.620  97.455

                      1                      2                      3
                      A                      A                      A
 Frequencies --     68.4953                89.2728               201.4772
 Red. masses --      2.8849                 4.0097                 1.2569
 Frc consts  --      0.0080                 0.0188                 0.0301
 IR Inten    --      3.1179                 1.2128                 1.0855

                      4                      5                      6
                      A                      A                      A
 Frequencies --    256.1271               282.6814               323.9962
 Red. masses --      1.8883                 3.8586                 3.2546
 Frc consts  --      0.0730                 0.1817                 0.2013
 IR Inten    --      1.2167                 7.6426                 0.1708

                      7                      8                      9
                      A                      A                      A
 Frequencies --    366.6351               384.9392               459.4345
 Red. masses --      2.5740                 2.2296                 3.6791
 Frc consts  --      0.2039                 0.1946                 0.4576
 IR Inten    --      3.4279                 3.7517                 8.7413

                     10                     11                     12
                      A                      A                      A
 Frequencies --    484.9918               509.6745               588.9264
 Red. masses --      2.5531                 3.9104                 3.8837
 Frc consts  --      0.3538                 0.5985                 0.7936
 IR Inten    --     13.4824                 2.1625                 1.6172

                     13                     14                     15
                      A                      A                      A
 Frequencies --    694.9447               781.5168               810.1309
 Red. masses --      4.0916                 2.3093                 2.1537
 Frc consts  --      1.1642                 0.8310                 0.8328
 IR Inten    --      9.0398                 3.1142                 3.7050

                     16                     17                     18
                      A                      A                      A
 Frequencies --    845.2835               897.2850               945.6551
 Red. masses --      1.8310                 2.5067                 2.2493
 Frc consts  --      0.7708                 1.1891                 1.1851
 IR Inten    --      6.1290                 5.0072                 1.8282

                     19                     20                     21
                      A                      A                      A
 Frequencies --   1001.6401              1003.9852              1042.5397
 Red. masses --      1.8968                 2.0959                 1.7809
 Frc consts  --      1.1212                 1.2447                 1.1405
 IR Inten    --      0.8936                 8.6371                 4.1153

                     22                     23                     24
                      A                      A                      A
 Frequencies --   1067.4860              1076.5646              1126.6515
 Red. masses --      2.0252                 1.8088                 1.8713
 Frc consts  --      1.3597                 1.2351                 1.3995
 IR Inten    --      8.6964                 1.8866                 6.3480

                     25                     26                     27
                      A                      A                      A
 Frequencies --   1155.5105              1208.5742              1244.6307
 Red. masses --      3.3010                 2.5538                 1.5940
 Frc consts  --      2.5969                 2.1977                 1.4549
 IR Inten    --     36.5088                62.7815                25.3808

                     28                     29                     30
                      A                      A                      A
 Frequencies --   1270.8768              1299.5679              1316.7565
 Red. masses --      1.5128                 1.4180                 1.1758
 Frc consts  --      1.4396                 1.4110                 1.2012
 IR Inten    --     67.9191                 7.6995                 2.6782

                     31                     32                     33
                      A                      A                      A
 Frequencies --   1352.4524              1358.3783              1404.0177
 Red. masses --      1.4245                 1.4744                 1.2999
 Frc consts  --      1.5352                 1.6029                 1.5097
 IR Inten    --      1.1717                 9.1547                13.6289

                     34                     35                     36
                      A                      A                      A
 Frequencies --   1415.7913              1450.8838              1463.4086
 Red. masses --      1.2830                 1.0805                 1.0965
 Frc consts  --      1.5152                 1.3401                 1.3835
 IR Inten    --      6.9763                 6.9446                 9.0221

                     37                     38                     39
                      A                      A                      A
 Frequencies --   1479.4061              1484.4999              1491.9047
 Red. masses --      1.0479                 1.0925                 1.0581
 Frc consts  --      1.3513                 1.4185                 1.3876
 IR Inten    --      4.8619                 7.7546                 3.3930

                     40                     41                     42
                      A                      A                      A
 Frequencies --   1740.2303              1824.9564              2932.4455
 Red. masses --      6.9133                11.7208                 1.0723
 Frc consts  --     12.3352                22.9991                 5.4329
 IR Inten    --      7.0939               184.8473                61.9491

                     43                     44                     45
                      A                      A                      A
 Frequencies --   2993.5959              3017.4130              3039.0549
 Red. masses --      1.0658                 1.0377                 1.0870
 Frc consts  --      5.6275                 5.5664                 5.9149
 IR Inten    --     27.4094                23.5372                28.1300

                     46                     47                     48
                      A                      A                      A
 Frequencies --   3053.6713              3066.0606              3072.0181
 Red. masses --      1.0607                 1.0989                 1.0950
 Frc consts  --      5.8274                 6.0865                 6.0888
 IR Inten    --      7.0896                15.7220                10.7202

                     49                     50                     51
                      A                      A                      A
 Frequencies --   3114.2500              3122.1182              3135.6350
 Red. masses --      1.1000                 1.1016                 1.0879
 Frc consts  --      6.2856                 6.3264                 6.3021
 IR Inten    --     12.5596                12.3739                22.3002

 - Thermochemistry -
 -------------------
 Temperature   298.150 Kelvin.  Pressure   1.00000 Atm.
 Atom     1 has atomic number  6 and mass  12.00000

 Molecular mass:   126.06808 amu.
 Principal axes and moments of inertia in atomic units:
                           1         2         3
     Eigenvalues --   877.320291054.456241720.07162
           X            0.99473  -0.10246  -0.00276
           Y            0.10250   0.99422   0.03181
           Z           -0.00051  -0.03193   0.99949
 This molecule is an asymmetric top.
 Rotational symmetry number  1.
 Warning -- assumption of classical behavior for rotation
           may cause significant error
 Rotational temperatures (Kelvin)      0.09873     0.08214     0.05035
 Rotational constants (GHZ):           2.05711     1.71154     1.04922
 Zero-point vibrational energy     417607.0 (Joules/Mol)
                                   99.81047 (Kcal/Mol)
 Warning -- explicit consideration of  12 degrees of freedom as
           vibrations may cause significant error
 Vibrational temperatures:     98.55   128.44   289.88   368.51   406.71
          (Kelvin)            466.16   527.51   553.84   661.02   697.79
                              733.31   847.33   999.87  1124.43  1165.60
                             1216.17  1290.99  1360.59  1441.13  1444.51
                             1499.98  1535.87  1548.93  1621.00  1662.52
                             1738.87  1790.74  1828.51  1869.79  1894.52
                             1945.87  1954.40  2020.07  2037.01  2087.50
                             2105.52  2128.53  2135.86  2146.52  2503.80
                             2625.70  4219.13  4307.11  4341.38  4372.52
                             4393.55  4411.37  4419.94  4480.71  4492.03
                             4511.47

 Zero-point correction=                           0.159058 (Hartree/Particle)
 Thermal correction to Energy=                    0.167624
 Thermal correction to Enthalpy=                  0.168568
 Thermal correction to Gibbs Free Energy=         0.125609
 Sum of electronic and zero-point Energies=           -423.049455
 Sum of electronic and thermal Energies=              -423.040889
 Sum of electronic and thermal Enthalpies=            -423.039945
 Sum of electronic and thermal Free Energies=         -423.082904

                     E (Thermal)             CV                S
                      KCal/Mol        Cal/Mol-Kelvin    Cal/Mol-Kelvin
 Total                  105.186             32.370             90.415
 Electronic               0.000              0.000              0.000
 Translational            0.889              2.981             40.409
 Rotational               0.889              2.981             28.855
 Vibrational            103.408             26.408             21.152
 Vibration     1          0.598              1.969              4.196
 Vibration     2          0.602              1.957              3.676
 Vibration     3          0.638              1.838              2.120
 Vibration     4          0.666              1.752              1.688
 Vibration     5          0.682              1.706              1.517
 Vibration     6          0.709              1.627              1.290
 Vibration     7          0.740              1.541              1.094
 Vibration     8          0.754              1.502              1.020
 Vibration     9          0.817              1.340              0.768
 Vibration    10          0.841              1.283              0.697
 Vibration    11          0.865              1.229              0.634
 Vibration    12          0.946              1.055              0.469

 Normal termination of Gaussian 09 at Mon Jan 27 22:47:29 2020.
