 Gaussian 09, Revision D.01,
 Gaussian 09:  ES64L-G09RevD.01 24-Apr-2013

 -----------------------------
 # b3lyp 6-31G(2df,p) opt Freq
 -----------------------------

 -----
 titel
 -----
 Symbolic Z-matrix:
 Charge =  0 Multiplicity = 1

 SCF Done:  E(RB3LYP) =  -423.127220708     A.U. after   13 cycles
 Optimization completed.
    -- Stationary point found.
 Normal termination of Gaussian 09 at Tue Jan 28 00:01:10 2020.

 ----------------------------------------------------------------------
 #N Geom=AllCheck Guess=TCheck SCRF=Check GenChk RB3LYP/6-31G(2df,p) Fr
 eq
 ----------------------------------------------------------------------

 Structure from the checkpoint file:  "/scratch/puck/g09_9ef76ee0-0893-4c8f-b8e2-53b41ad78fcb/Gau-2001.chk"
 -----
 titel
 -----
 Charge =  0 Multiplicity = 1

                         Standard orientation:
 ---------------------------------------------------------------------
 Center     Atomic      Atomic             Coordinates (Angstroms)
 Number     Number       Type             X           Y           Z
 ---------------------------------------------------------------------
      1          8           0       -1.034782    2.111060    0.086338
      2          6           0       -0.210847    1.026723    0.445101
      3          6           0        1.095860    0.822623   -0.388469
      4          6           0        2.223714    0.096403    0.363052
      5          8           0        1.676467   -1.203461    0.039535
      6          6           0        0.627168   -0.615085   -0.761751
      7          6           0       -0.674216   -0.376522   -0.003476
      8          6           0       -1.516856   -1.376117    0.724524
      9          6           0       -2.059462   -0.696770   -0.506411
     10          1           0       -1.321238    1.974480   -0.823751
     11          1           0       -0.032491    1.138120    1.519545
     12          1           0        1.348516    1.609535   -1.097912
     13          1           0        3.222856    0.225094   -0.071443
     14          1           0        2.279714    0.270668    1.445531
     15          1           0        0.582179   -1.049668   -1.765009
     16          1           0       -1.227709   -2.419567    0.656777
     17          1           0       -1.924872   -1.084205    1.686941
     18          1           0       -2.148704   -1.274932   -1.420838
     19          1           0       -2.823902    0.062160   -0.372240
 ---------------------------------------------------------------------

 SCF Done:  E(RB3LYP) =  -423.127220708     A.U. after    1 cycles

 The electronic state is 1-A.
 Alpha  occ. eigenvalues --  -19.14248 -19.13062 -10.23568 -10.23356 -10.23126
 Alpha  occ. eigenvalues --  -10.19372 -10.19345 -10.19001 -10.18915  -1.03918
 Alpha  occ. eigenvalues --   -1.02340  -0.86664  -0.78915  -0.70051  -0.64664
 Alpha  occ. eigenvalues --   -0.60572  -0.58315  -0.54667  -0.50920  -0.49300
 Alpha  occ. eigenvalues --   -0.48653  -0.46350  -0.43279  -0.42279  -0.40499
 Alpha  occ. eigenvalues --   -0.38471  -0.36886  -0.34302  -0.32908  -0.31107
 Alpha  occ. eigenvalues --   -0.28990  -0.27814  -0.25965  -0.24311
 Alpha virt. eigenvalues --    0.05838   0.08166   0.09023   0.10375   0.11203
 Alpha virt. eigenvalues --    0.12753   0.13601   0.14124   0.16245   0.17084
 Alpha virt. eigenvalues --    0.18205   0.19028   0.20097   0.21395   0.22717

 Mulliken charges:
               1
     1  O   -0.431354
     2  C    0.054129
     3  C   -0.127877
     4  C   -0.082162
     5  O   -0.289031
     6  C    0.006545
     7  C    0.321126
     8  C   -0.318855
     9  C   -0.337535
    10  H    0.278745
    11  H    0.090494
    12  H    0.079368
    13  H    0.102646
    14  H    0.101004
    15  H    0.072157
    16  H    0.124526
    17  H    0.119205
    18  H    0.116147
    19  H    0.120720
 Sum of Mulliken charges =   0.00000

 Dipole moment (field-independent basis, Debye):
    X=             -0.3930    Y=              0.3858    Z=             -1.2227  Tot=              1.3410
 Quadrupole moment (field-independent basis, Debye-Ang):
   XX=            -52.8520   YY=            -58.5434   ZZ=            -49.7033
   XY=              4.4052   XZ=              1.6231   YZ=             -1.4450

  Exact polarizability:  85.926   4.137  71.996   2.544  -0.027  68.387
 Approx polarizability: 113.294   1.905 106.827   4.998   0.059 104.561

                      1                      2                      3
                      A                      A                      A
 Frequencies --     63.1115               186.4028               218.3037
 Red. masses --      3.4170                 4.2447                 2.4188
 Frc consts  --      0.0080                 0.0869                 0.0679
 IR Inten    --      2.7431                 1.7822                 1.2536

                      4                      5                      6
                      A                      A                      A
 Frequencies --    244.2163               286.8018               297.3080
 Red. masses --      3.0256                 1.7247                 2.4411
 Frc consts  --      0.1063                 0.0836                 0.1271
 IR Inten    --      2.2077                20.7464                 3.4429

                      7                      8                      9
                      A                      A                      A
 Frequencies --    352.7900               433.0453               542.7787
 Red. masses --      1.7855                 4.3639                 3.6856
 Frc consts  --      0.1309                 0.4822                 0.6397
 IR Inten    --     86.3166                 3.1125                 3.1967

                     10                     11                     12
                      A                      A                      A
 Frequencies --    595.9906               775.0253               784.0270
 Red. masses --      3.3062                 3.1429                 1.0766
 Frc consts  --      0.6919                 1.1123                 0.3899
 IR Inten    --      2.0695                 0.7238                 0.8749

                     13                     14                     15
                      A                      A                      A
 Frequencies --    817.7528               844.5399               883.1237
 Red. masses --      1.6019                 2.2271                 2.4406
 Frc consts  --      0.6312                 0.9359                 1.1215
 IR Inten    --      1.2512                23.2823                 2.3089

                     16                     17                     18
                      A                      A                      A
 Frequencies --    895.5436               950.5965               955.7658
 Red. masses --      2.2514                 1.7339                 2.9546
 Frc consts  --      1.0638                 0.9231                 1.5902
 IR Inten    --      3.2311                19.6143                13.8986

                     19                     20                     21
                      A                      A                      A
 Frequencies --    982.8655               990.3835              1015.1518
 Red. masses --      2.9198                 3.4263                 4.8019
 Frc consts  --      1.6618                 1.9801                 2.9156
 IR Inten    --     13.7748                 3.9461               104.3648

                     22                     23                     24
                      A                      A                      A
 Frequencies --   1026.1232              1050.6002              1069.0311
 Red. masses --      2.3056                 1.3729                 2.3355
 Frc consts  --      1.4303                 0.8928                 1.5726
 IR Inten    --     28.9508                13.1806                 6.9281

                     25                     26                     27
                      A                      A                      A
 Frequencies --   1077.7181              1122.1845              1147.7856
 Red. masses --      1.3941                 3.1567                 1.4438
 Frc consts  --      0.9540                 2.3422                 1.1206
 IR Inten    --      0.4550                92.6920                 4.6556

                     28                     29                     30
                      A                      A                      A
 Frequencies --   1169.2349              1191.6926              1209.6192
 Red. masses --      1.3999                 1.2769                 1.6031
 Frc consts  --      1.1276                 1.0684                 1.3820
 IR Inten    --      4.2380                 0.3960                 1.1836

                     31                     32                     33
                      A                      A                      A
 Frequencies --   1229.6326              1247.3476              1268.0324
 Red. masses --      1.4279                 1.5377                 2.2361
 Frc consts  --      1.2720                 1.4096                 2.1183
 IR Inten    --      1.9509                16.8796                12.0486

                     34                     35                     36
                      A                      A                      A
 Frequencies --   1285.2202              1314.3601              1353.1593
 Red. masses --      1.2716                 1.7406                 1.4709
 Frc consts  --      1.2375                 1.7717                 1.5869
 IR Inten    --      6.8608                 2.6437                 5.2347

                     37                     38                     39
                      A                      A                      A
 Frequencies --   1378.5885              1430.1557              1462.4229
 Red. masses --      2.4632                 1.2750                 1.0890
 Frc consts  --      2.7582                 1.5365                 1.3722
 IR Inten    --     19.8251                58.3583                 1.7357

                     40                     41                     42
                      A                      A                      A
 Frequencies --   1497.5929              1521.0047              3007.7541
 Red. masses --      1.4215                 1.0991                 1.0548
 Frc consts  --      1.8784                 1.4981                 5.6220
 IR Inten    --      0.6746                 1.1104                85.5736

                     43                     44                     45
                      A                      A                      A
 Frequencies --   3050.1841              3057.5975              3061.1373
 Red. masses --      1.1090                 1.0884                 1.0882
 Frc consts  --      6.0789                 5.9953                 6.0081
 IR Inten    --     26.2629                76.5705                18.1858

                     46                     47                     48
                      A                      A                      A
 Frequencies --   3122.2817              3123.4523              3129.2674
 Red. masses --      1.0547                 1.0875                 1.0555
 Frc consts  --      6.0581                 6.2508                 6.0899
 IR Inten    --     13.5483                28.3859                10.9254

                     49                     50                     51
                      A                      A                      A
 Frequencies --   3203.6800              3218.6899              3799.1688
 Red. masses --      1.1179                 1.1158                 1.0657
 Frc consts  --      6.7603                 6.8109                 9.0624
 IR Inten    --      0.5485                11.0631                12.9924

 - Thermochemistry -
 -------------------
 Temperature   298.150 Kelvin.  Pressure   1.00000 Atm.
 Atom     1 has atomic number  8 and mass  15.99491

 Molecular mass:   126.06808 amu.
 Principal axes and moments of inertia in atomic units:
                           1         2         3
     Eigenvalues --   730.219171072.879491537.49983
           X            0.99663   0.08172   0.00700
           Y           -0.08167   0.99663  -0.00766
           Z           -0.00760   0.00706   0.99995
 This molecule is an asymmetric top.
 Rotational symmetry number  1.
 Warning -- assumption of classical behavior for rotation
           may cause significant error
 Rotational temperatures (Kelvin)      0.11861     0.08073     0.05633
 Rotational constants (GHZ):           2.47151     1.68215     1.17382
 Zero-point vibrational energy     418335.6 (Joules/Mol)
                                   99.98460 (Kcal/Mol)
 Warning -- explicit consideration of  10 degrees of freedom as
           vibrations may cause significant error
 Vibrational temperatures:     90.80   268.19   314.09   351.37   412.64
          (Kelvin)            427.76   507.59   623.05   780.94   857.50
                             1115.09  1128.04  1176.56  1215.10  1270.62
                             1288.49  1367.69  1375.13  1414.12  1424.94
                             1460.58  1476.36  1511.58  1538.10  1550.59
                             1614.57  1651.41  1682.27  1714.58  1740.37
                             1769.16  1794.65  1824.41  1849.14  1891.07
                             1946.89  1983.48  2057.67  2104.10  2154.70
                             2188.38  4327.48  4388.53  4399.20  4404.29
                             4492.26  4493.95  4502.31  4609.38  4630.97
                             5466.15

 Zero-point correction=                           0.159336 (Hartree/Particle)
 Thermal correction to Energy=                    0.167379
 Thermal correction to Enthalpy=                  0.168323
 Thermal correction to Gibbs Free Energy=         0.126653
 Sum of electronic and zero-point Energies=           -422.967885
 Sum of electronic and thermal Energies=              -422.959842
 Sum of electronic and thermal Enthalpies=            -422.958898
 Sum of electronic and thermal Free Energies=         -423.000568

                     E (Thermal)             CV                S
                      KCal/Mol        Cal/Mol-Kelvin    Cal/Mol-Kelvin
 Total                  105.032             31.336             87.703
 Electronic               0.000              0.000              0.000
 Translational            0.889              2.981             40.409
 Rotational               0.889              2.981             28.579
 Vibrational            103.254             25.374             18.716
 Vibration     1          0.597              1.972              4.357
 Vibration     2          0.632              1.858              2.263
 Vibration     3          0.646              1.813              1.973
 Vibration     4          0.660              1.772              1.772
 Vibration     5          0.684              1.698              1.493
 Vibration     6          0.691              1.679              1.432
 Vibration     7          0.729              1.570              1.154
 Vibration     8          0.794              1.398              0.849
 Vibration     9          0.898              1.156              0.559
 Vibration    10          0.954              1.040              0.457

 Optimization completed.
    -- Stationary point found.
 Normal termination of Gaussian 09 at Tue Jan 28 00:43:19 2020.
