 Gaussian 09, Revision D.01,
 Gaussian 09:  ES64L-G09RevD.01 24-Apr-2013

 -----------------------------
 # b3lyp 6-31G(2df,p) opt Freq
 -----------------------------

 -----
 titel
 -----
 Symbolic Z-matrix:
 Charge =  0 Multiplicity = 1

 SCF Done:  E(RB3LYP) =  -423.198770916     A.U. after   14 cycles
 Optimization completed.
    -- Stationary point found.
 Normal termination of Gaussian 09 at Tue Jan 28 12:40:16 2020.

 ----------------------------------------------------------------------
 #N Geom=AllCheck Guess=TCheck SCRF=Check GenChk RB3LYP/6-31G(2df,p) Fr
 eq
 ----------------------------------------------------------------------

 Structure from the checkpoint file:  "/scratch/puck/g09_fb38be35-0dda-42ff-a570-a057b6da20e0/Gau-30222.chk"
 -----
 titel
 -----
 Charge =  0 Multiplicity = 1

                         Standard orientation:
 ---------------------------------------------------------------------
 Center     Atomic      Atomic             Coordinates (Angstroms)
 Number     Number       Type             X           Y           Z
 ---------------------------------------------------------------------
      1          6           0        2.358616   -1.074643   -0.552323
      2          6           0        1.373573   -1.186078    0.627522
      3          6           0       -0.023959   -0.739675    0.301603
      4          6           0       -1.045859   -1.457788   -0.160829
      5          6           0       -2.273956   -0.612148   -0.313082
      6          8           0       -1.865453    0.699834    0.084284
      7          6           0       -0.510809    0.688752    0.501953
      8          6           0        0.278518    1.694228   -0.334498
      9          8           0        1.306764    2.207850    0.021281
     10          1           0        2.479670   -0.038409   -0.875728
     11          1           0        3.343427   -1.450776   -0.258980
     12          1           0        2.009781   -1.662995   -1.406458
     13          1           0        1.338952   -2.227662    0.965359
     14          1           0        1.755490   -0.594489    1.467504
     15          1           0       -1.032428   -2.520250   -0.372609
     16          1           0       -2.654560   -0.580472   -1.344857
     17          1           0       -3.101856   -0.954945    0.327220
     18          1           0       -0.418850    0.993937    1.556795
     19          1           0       -0.186855    1.898690   -1.324838
 ---------------------------------------------------------------------

 SCF Done:  E(RB3LYP) =  -423.198770916     A.U. after    1 cycles

 The electronic state is 1-A.
 Alpha  occ. eigenvalues --  -19.14860 -19.14535 -10.27191 -10.24512 -10.23964
 Alpha  occ. eigenvalues --  -10.20374 -10.19699 -10.19271 -10.18010  -1.05622
 Alpha  occ. eigenvalues --   -1.04360  -0.82147  -0.76536  -0.74537  -0.65021
 Alpha  occ. eigenvalues --   -0.62415  -0.58539  -0.55281  -0.50068  -0.47973
 Alpha  occ. eigenvalues --   -0.46448  -0.45591  -0.43172  -0.43007  -0.41446
 Alpha  occ. eigenvalues --   -0.40264  -0.38258  -0.37816  -0.35369  -0.34719
 Alpha  occ. eigenvalues --   -0.32265  -0.28320  -0.27132  -0.23276
 Alpha virt. eigenvalues --   -0.03333   0.01379   0.09980   0.10557   0.12024
 Alpha virt. eigenvalues --    0.12507   0.14085   0.14933   0.15444   0.16395
 Alpha virt. eigenvalues --    0.16600   0.17549   0.17559   0.20933   0.21859

 Mulliken charges:
               1
     1  C   -0.381625
     2  C   -0.291951
     3  C    0.286602
     4  C   -0.203895
     5  C   -0.116059
     6  O   -0.276616
     7  C   -0.044999
     8  C    0.139969
     9  O   -0.245462
    10  H    0.143267
    11  H    0.117225
    12  H    0.117123
    13  H    0.110762
    14  H    0.119022
    15  H    0.106872
    16  H    0.112045
    17  H    0.110430
    18  H    0.107405
    19  H    0.089887
 Sum of Mulliken charges =   0.00000

 Dipole moment (field-independent basis, Debye):
    X=             -0.8289    Y=             -2.7954    Z=             -0.3199  Tot=              2.9332
 Quadrupole moment (field-independent basis, Debye-Ang):
   XX=            -55.4134   YY=            -55.6011   ZZ=            -52.0674
   XY=             -1.5494   XZ=              1.1427   YZ=             -0.2798

  Exact polarizability:  94.319   8.648  78.199   6.838   1.750  63.059
 Approx polarizability: 134.813  20.684 115.110  15.983   7.361  96.780

                      1                      2                      3
                      A                      A                      A
 Frequencies --     44.2576                75.1332                90.5462
 Red. masses --      2.2223                 4.5414                 4.1113
 Frc consts  --      0.0026                 0.0151                 0.0199
 IR Inten    --      0.9321                 3.8315                 7.6022

                      4                      5                      6
                      A                      A                      A
 Frequencies --    160.5191               197.5860               235.0568
 Red. masses --      2.6429                 1.7778                 1.4138
 Frc consts  --      0.0401                 0.0409                 0.0460
 IR Inten    --      1.6926                 1.6355                 0.7042

                      7                      8                      9
                      A                      A                      A
 Frequencies --    289.4217               345.4437               360.2169
 Red. masses --      2.7968                 2.3496                 3.6304
 Frc consts  --      0.1380                 0.1652                 0.2775
 IR Inten    --      7.6176                 0.4710                 8.6541

                     10                     11                     12
                      A                      A                      A
 Frequencies --    464.4237               561.7844               643.0556
 Red. masses --      6.2890                 3.6433                 3.1340
 Frc consts  --      0.7992                 0.6775                 0.7636
 IR Inten    --      2.8559                 8.3735                11.6310

                     13                     14                     15
                      A                      A                      A
 Frequencies --    771.5786               786.8489               828.1176
 Red. masses --      3.1476                 1.5798                 1.2344
 Frc consts  --      1.1041                 0.5763                 0.4987
 IR Inten    --      2.0409                11.0139                10.2460

                     16                     17                     18
                      A                      A                      A
 Frequencies --    859.2219               935.4808               963.2124
 Red. masses --      3.0833                 2.5180                 2.4592
 Frc consts  --      1.3411                 1.2983                 1.3443
 IR Inten    --     11.8330                 3.7968                 1.0354

                     19                     20                     21
                      A                      A                      A
 Frequencies --    987.2525              1026.4568              1046.6049
 Red. masses --      2.5818                 1.9020                 1.8581
 Frc consts  --      1.4826                 1.1807                 1.1992
 IR Inten    --      9.1689                10.1925                 6.7180

                     22                     23                     24
                      A                      A                      A
 Frequencies --   1069.1201              1079.2835              1091.6000
 Red. masses --      3.5420                 1.7017                 1.6981
 Frc consts  --      2.3853                 1.1679                 1.1922
 IR Inten    --     33.9795                 6.6968                 1.5298

                     25                     26                     27
                      A                      A                      A
 Frequencies --   1121.8046              1191.1449              1195.1377
 Red. masses --      5.1798                 1.8914                 1.2221
 Frc consts  --      3.8406                 1.5811                 1.0285
 IR Inten    --     64.6117                 9.6119                 4.9079

                     28                     29                     30
                      A                      A                      A
 Frequencies --   1256.8619              1270.9349              1299.5940
 Red. masses --      1.4065                 1.5467                 1.1990
 Frc consts  --      1.3090                 1.4720                 1.1931
 IR Inten    --      1.0018                 0.4968                 5.3755

                     31                     32                     33
                      A                      A                      A
 Frequencies --   1335.8755              1354.6501              1381.0962
 Red. masses --      1.4313                 1.4745                 1.4796
 Frc consts  --      1.5050                 1.5943                 1.6628
 IR Inten    --      3.7998                 6.1782                 4.6148

                     34                     35                     36
                      A                      A                      A
 Frequencies --   1391.7506              1410.2504              1484.8834
 Red. masses --      1.2553                 1.2121                 1.0702
 Frc consts  --      1.4326                 1.4203                 1.3903
 IR Inten    --      7.9544                 1.6119                 2.3857

                     37                     38                     39
                      A                      A                      A
 Frequencies --   1499.6798              1511.2435              1523.5695
 Red. masses --      1.0490                 1.0616                 1.0860
 Frc consts  --      1.3900                 1.4285                 1.4853
 IR Inten    --      5.9040                 2.2777                 1.1981

                     40                     41                     42
                      A                      A                      A
 Frequencies --   1718.3191              1828.1218              2888.4003
 Red. masses --      7.6876                10.7541                 1.0847
 Frc consts  --     13.3737                21.1755                 5.3317
 IR Inten    --      2.1543               155.2637                79.5299

                     43                     44                     45
                      A                      A                      A
 Frequencies --   2976.5611              2981.6465              3002.5210
 Red. masses --      1.0757                 1.0671                 1.1015
 Frc consts  --      5.6153                 5.5893                 5.8507
 IR Inten    --     75.8963                45.9747                43.3187

                     46                     47                     48
                      A                      A                      A
 Frequencies --   3035.6199              3044.3255              3074.0119
 Red. masses --      1.0590                 1.0363                 1.1024
 Frc consts  --      5.7496                 5.6588                 6.1376
 IR Inten    --     21.5935                26.6619                11.4120

                     49                     50                     51
                      A                      A                      A
 Frequencies --   3111.5176              3135.4958              3208.0520
 Red. masses --      1.1020                 1.1008                 1.0948
 Frc consts  --      6.2861                 6.3763                 6.6387
 IR Inten    --     30.3154                17.1826                 5.1194

 - Thermochemistry -
 -------------------
 Temperature   298.150 Kelvin.  Pressure   1.00000 Atm.
 Atom     1 has atomic number  6 and mass  12.00000

 Molecular mass:   126.06808 amu.
 Principal axes and moments of inertia in atomic units:
                           1         2         3
     Eigenvalues --   866.359521157.658421826.44161
           X            0.99716  -0.07527   0.00184
           Y            0.07527   0.99716   0.00119
           Z           -0.00192  -0.00105   1.00000
 This molecule is an asymmetric top.
 Rotational symmetry number  1.
 Warning -- assumption of classical behavior for rotation
           may cause significant error
 Rotational temperatures (Kelvin)      0.09997     0.07482     0.04742
 Rotational constants (GHZ):           2.08313     1.55896     0.98812
 Zero-point vibrational energy     413580.7 (Joules/Mol)
                                   98.84816 (Kcal/Mol)
 Warning -- explicit consideration of  11 degrees of freedom as
           vibrations may cause significant error
 Vibrational temperatures:     63.68   108.10   130.28   230.95   284.28
          (Kelvin)            338.19   416.41   497.02   518.27   668.20
                              808.28   925.21  1110.13  1132.10  1191.47
                             1236.23  1345.95  1385.85  1420.43  1476.84
                             1505.83  1538.22  1552.85  1570.57  1614.02
                             1713.79  1719.53  1808.34  1828.59  1869.82
                             1922.02  1949.04  1987.09  2002.42  2029.03
                             2136.41  2157.70  2174.34  2192.07  2472.27
                             2630.26  4155.76  4282.60  4289.92  4319.95
                             4367.57  4380.10  4422.81  4476.77  4511.27
                             4615.67

 Zero-point correction=                           0.157525 (Hartree/Particle)
 Thermal correction to Energy=                    0.166894
 Thermal correction to Enthalpy=                  0.167839
 Thermal correction to Gibbs Free Energy=         0.122234
 Sum of electronic and zero-point Energies=           -423.041246
 Sum of electronic and thermal Energies=              -423.031877
 Sum of electronic and thermal Enthalpies=            -423.030932
 Sum of electronic and thermal Free Energies=         -423.076537

                     E (Thermal)             CV                S
                      KCal/Mol        Cal/Mol-Kelvin    Cal/Mol-Kelvin
 Total                  104.728             33.066             95.984
 Electronic               0.000              0.000              0.000
 Translational            0.889              2.981             40.409
 Rotational               0.889              2.981             28.995
 Vibrational            102.950             27.104             26.580
 Vibration     1          0.595              1.980              5.059
 Vibration     2          0.599              1.966              4.014
 Vibration     3          0.602              1.956              3.648
 Vibration     4          0.622              1.891              2.544
 Vibration     5          0.637              1.843              2.155
 Vibration     6          0.655              1.787              1.840
 Vibration     7          0.686              1.693              1.477
 Vibration     8          0.724              1.585              1.187
 Vibration     9          0.735              1.554              1.121
 Vibration    10          0.822              1.329              0.753
 Vibration    11          0.917              1.114              0.520

 Optimization completed.
    -- Stationary point found.
 Normal termination of Gaussian 09 at Tue Jan 28 13:22:24 2020.
