 Gaussian 09, Revision D.01,
 Gaussian 09:  ES64L-G09RevD.01 24-Apr-2013

 -----------------------------
 # b3lyp 6-31G(2df,p) opt Freq
 -----------------------------

 -----
 titel
 -----
 Symbolic Z-matrix:
 Charge =  0 Multiplicity = 1

 SCF Done:  E(RB3LYP) =  -423.165082445     A.U. after   14 cycles
 Optimization completed.
    -- Stationary point found.
 Normal termination of Gaussian 09 at Mon Jan 27 18:47:08 2020.

 ----------------------------------------------------------------------
 #N Geom=AllCheck Guess=TCheck SCRF=Check GenChk RB3LYP/6-31G(2df,p) Fr
 eq
 ----------------------------------------------------------------------

 Structure from the checkpoint file:  "/scratch/puck/g09_ec72c6a7-9912-41d0-b50b-7e99ccd7d4ce/Gau-43344.chk"
 -----
 titel
 -----
 Charge =  0 Multiplicity = 1

                         Standard orientation:
 ---------------------------------------------------------------------
 Center     Atomic      Atomic             Coordinates (Angstroms)
 Number     Number       Type             X           Y           Z
 ---------------------------------------------------------------------
      1          8           0        1.806037   -1.441562   -0.715655
      2          6           0        1.114193   -0.485335    0.033462
      3          6           0        1.943385    0.710040    0.598334
      4          6           0        1.085707    1.701362   -0.251330
      5          6           0        0.175440    0.532562   -0.691317
      6          6           0       -0.955115    0.188507    0.342572
      7          6           0       -0.058962   -0.960517    0.920885
      8          6           0       -2.243655   -0.280105   -0.272130
      9          8           0       -3.332533    0.178640   -0.038696
     10          1           0        2.432611   -1.888608   -0.135056
     11          1           0        1.888861    0.844046    1.682237
     12          1           0        2.993296    0.666423    0.300037
     13          1           0        0.594615    2.512306    0.291989
     14          1           0        1.646749    2.133679   -1.082863
     15          1           0       -0.088934    0.439288   -1.745519
     16          1           0       -1.174514    0.997485    1.042315
     17          1           0        0.079236   -0.974492    2.005367
     18          1           0       -0.406902   -1.944408    0.589613
     19          1           0       -2.119021   -1.121430   -0.996174
 ---------------------------------------------------------------------

 SCF Done:  E(RB3LYP) =  -423.165082446     A.U. after    1 cycles

 The electronic state is 1-A.
 Alpha  occ. eigenvalues --  -19.14764 -19.13541 -10.26646 -10.24285 -10.19899
 Alpha  occ. eigenvalues --  -10.19625 -10.19285 -10.19135 -10.18838  -1.04225
 Alpha  occ. eigenvalues --   -1.03297  -0.87667  -0.77248  -0.69333  -0.65268
 Alpha  occ. eigenvalues --   -0.62200  -0.57821  -0.54238  -0.51103  -0.48324
 Alpha  occ. eigenvalues --   -0.46411  -0.45086  -0.43634  -0.42777  -0.40130
 Alpha  occ. eigenvalues --   -0.39457  -0.37839  -0.34898  -0.34253  -0.33401
 Alpha  occ. eigenvalues --   -0.31267  -0.28690  -0.26444  -0.24296
 Alpha virt. eigenvalues --   -0.02087   0.06423   0.08525   0.09163   0.10901
 Alpha virt. eigenvalues --    0.11225   0.12805   0.14252   0.15653   0.16227
 Alpha virt. eigenvalues --    0.17261   0.18611   0.19706   0.21498   0.22329

 Mulliken charges:
               1
     1  O   -0.479763
     2  C    0.427144
     3  C   -0.292853
     4  C   -0.224772
     5  C   -0.089373
     6  C   -0.067363
     7  C   -0.327765
     8  C    0.157548
     9  O   -0.258370
    10  H    0.278357
    11  H    0.098485
    12  H    0.106675
    13  H    0.105941
    14  H    0.111231
    15  H    0.080394
    16  H    0.088796
    17  H    0.102473
    18  H    0.110710
    19  H    0.072505
 Sum of Mulliken charges =   0.00000

 Dipole moment (field-independent basis, Debye):
    X=              3.3260    Y=             -0.4345    Z=              1.0600  Tot=              3.5178
 Quadrupole moment (field-independent basis, Debye-Ang):
   XX=            -62.8279   YY=            -51.3656   ZZ=            -52.9498
   XY=              0.7394   XZ=              2.9646   YZ=             -2.2842

  Exact polarizability:  90.466  -0.672  73.385   1.067   0.614  65.903
 Approx polarizability: 125.147  -7.538 106.312  -1.341   3.066 101.664

                      1                      2                      3
                      A                      A                      A
 Frequencies --     46.6964                69.3660               188.3234
 Red. masses --      3.4515                 4.6794                 2.3681
 Frc consts  --      0.0044                 0.0133                 0.0495
 IR Inten    --      0.6550                 4.4546                 1.7006

                      4                      5                      6
                      A                      A                      A
 Frequencies --    205.1595               266.6590               319.9626
 Red. masses --      1.0753                 2.1559                 2.4477
 Frc consts  --      0.0267                 0.0903                 0.1476
 IR Inten    --    102.2097                 0.1561                 4.9954

                      7                      8                      9
                      A                      A                      A
 Frequencies --    327.6661               388.1642               427.0353
 Red. masses --      4.2909                 3.5598                 2.5261
 Frc consts  --      0.2714                 0.3160                 0.2714
 IR Inten    --      5.5176                 9.1996                 1.5066

                     10                     11                     12
                      A                      A                      A
 Frequencies --    463.9818               632.5857               645.4052
 Red. masses --      3.8410                 3.2221                 3.3617
 Frc consts  --      0.4872                 0.7597                 0.8250
 IR Inten    --     14.4074                 4.0450                 3.1761

                     13                     14                     15
                      A                      A                      A
 Frequencies --    747.3616               818.1210               857.8752
 Red. masses --      1.2220                 2.1703                 2.6924
 Frc consts  --      0.4022                 0.8559                 1.1674
 IR Inten    --      1.7858                 8.8282                 1.0807

                     16                     17                     18
                      A                      A                      A
 Frequencies --    887.1597               892.9052               935.8322
 Red. masses --      2.2692                 2.0660                 2.1502
 Frc consts  --      1.0523                 0.9705                 1.1095
 IR Inten    --      2.3967                 5.0467                 6.7557

                     19                     20                     21
                      A                      A                      A
 Frequencies --    949.8397               984.4463              1023.7591
 Red. masses --      2.4866                 2.4734                 1.4336
 Frc consts  --      1.3218                 1.4123                 0.8853
 IR Inten    --      2.2038                10.9714                 1.6741

                     22                     23                     24
                      A                      A                      A
 Frequencies --   1033.0574              1056.2207              1100.4165
 Red. masses --      2.3955                 2.0627                 1.9398
 Frc consts  --      1.5062                 1.3558                 1.3839
 IR Inten    --     24.5966                59.1748                 4.1511

                     25                     26                     27
                      A                      A                      A
 Frequencies --   1140.7847              1178.5230              1180.8002
 Red. masses --      1.6854                 2.3088                 1.9831
 Frc consts  --      1.2923                 1.8894                 1.6291
 IR Inten    --      8.7952                 5.8679                28.7943

                     28                     29                     30
                      A                      A                      A
 Frequencies --   1219.5910              1229.1048              1237.5266
 Red. masses --      1.2936                 1.3918                 1.5481
 Frc consts  --      1.1337                 1.2388                 1.3969
 IR Inten    --      1.3216                 6.4725                17.9644

                     31                     32                     33
                      A                      A                      A
 Frequencies --   1247.2141              1272.1128              1276.9853
 Red. masses --      1.2689                 1.6336                 1.3624
 Frc consts  --      1.1630                 1.5575                 1.3090
 IR Inten    --      0.8378                25.3248                 4.0743

                     34                     35                     36
                      A                      A                      A
 Frequencies --   1304.3253              1325.7359              1367.8054
 Red. masses --      1.9279                 1.5475                 1.9204
 Frc consts  --      1.9324                 1.6025                 2.1168
 IR Inten    --     89.8275                 4.1419                 4.4581

                     37                     38                     39
                      A                      A                      A
 Frequencies --   1429.8067              1464.6518              1474.5296
 Red. masses --      1.2095                 1.0953                 1.1057
 Frc consts  --      1.4569                 1.3843                 1.4164
 IR Inten    --      3.7948                 1.6629                 2.2603

                     40                     41                     42
                      A                      A                      A
 Frequencies --   1490.4551              1827.8601              2841.5151
 Red. masses --      1.1224                10.2845                 1.0812
 Frc consts  --      1.4691                20.2451                 5.1437
 IR Inten    --      2.5738               228.3786                92.3313

                     43                     44                     45
                      A                      A                      A
 Frequencies --   3044.7319              3056.1391              3064.6768
 Red. masses --      1.0576                 1.0580                 1.0597
 Frc consts  --      5.7767                 5.8220                 5.8642
 IR Inten    --     27.8567                34.1048                33.3119

                     46                     47                     48
                      A                      A                      A
 Frequencies --   3091.3920              3100.6252              3106.7288
 Red. masses --      1.0906                 1.0946                 1.1024
 Frc consts  --      6.1405                 6.2003                 6.2692
 IR Inten    --      6.6093                 9.6925                25.0538

                     49                     50                     51
                      A                      A                      A
 Frequencies --   3107.9615              3124.3360              3791.2004
 Red. masses --      1.1043                 1.1071                 1.0658
 Frc consts  --      6.2849                 6.3671                 9.0256
 IR Inten    --      1.5622                44.0533                19.5611

 - Thermochemistry -
 -------------------
 Temperature   298.150 Kelvin.  Pressure   1.00000 Atm.
 Atom     1 has atomic number  8 and mass  15.99491

 Molecular mass:   126.06808 amu.
 Principal axes and moments of inertia in atomic units:
                           1         2         3
     Eigenvalues --   575.781001602.704761855.60701
           X            0.99975   0.02071   0.00850
           Y           -0.02054   0.99962  -0.01862
           Z           -0.00889   0.01844   0.99979
 This molecule is an asymmetric top.
 Rotational symmetry number  1.
 Warning -- assumption of classical behavior for rotation
           may cause significant error
 Rotational temperatures (Kelvin)      0.15043     0.05404     0.04668
 Rotational constants (GHZ):           3.13442     1.12606     0.97259
 Zero-point vibrational energy     414297.4 (Joules/Mol)
                                   99.01946 (Kcal/Mol)
 Warning -- explicit consideration of  10 degrees of freedom as
           vibrations may cause significant error
 Vibrational temperatures:     67.19    99.80   270.96   295.18   383.66
          (Kelvin)            460.35   471.44   558.48   614.41   667.57
                              910.15   928.59  1075.29  1177.09  1234.29
                             1276.42  1284.69  1346.45  1366.61  1416.40
                             1472.96  1486.34  1519.66  1583.25  1641.33
                             1695.63  1698.91  1754.72  1768.41  1780.52
                             1794.46  1830.28  1837.29  1876.63  1907.44
                             1967.96  2057.17  2107.30  2121.52  2144.43
                             2629.88  4088.30  4380.68  4397.10  4409.38
                             4447.82  4461.10  4469.88  4471.66  4495.22
                             5454.68

 Zero-point correction=                           0.157798 (Hartree/Particle)
 Thermal correction to Energy=                    0.166571
 Thermal correction to Enthalpy=                  0.167516
 Thermal correction to Gibbs Free Energy=         0.123606
 Sum of electronic and zero-point Energies=           -423.007285
 Sum of electronic and thermal Energies=              -422.998511
 Sum of electronic and thermal Enthalpies=            -422.997567
 Sum of electronic and thermal Free Energies=         -423.041476

                     E (Thermal)             CV                S
                      KCal/Mol        Cal/Mol-Kelvin    Cal/Mol-Kelvin
 Total                  104.525             32.758             92.415
 Electronic               0.000              0.000              0.000
 Translational            0.889              2.981             40.409
 Rotational               0.889              2.981             28.928
 Vibrational            102.748             26.797             23.078
 Vibration     1          0.595              1.979              4.953
 Vibration     2          0.598              1.969              4.171
 Vibration     3          0.633              1.856              2.244
 Vibration     4          0.640              1.833              2.086
 Vibration     5          0.672              1.734              1.618
 Vibration     6          0.706              1.635              1.310
 Vibration     7          0.711              1.620              1.272
 Vibration     8          0.756              1.495              1.007
 Vibration     9          0.789              1.411              0.868
 Vibration    10          0.822              1.330              0.755

 Optimization completed.
    -- Stationary point found.
 Normal termination of Gaussian 09 at Mon Jan 27 19:48:43 2020.
