 Gaussian 09, Revision D.01,
 Gaussian 09:  ES64L-G09RevD.01 24-Apr-2013

 -----------------------------
 # b3lyp 6-31G(2df,p) opt Freq
 -----------------------------

 -----
 titel
 -----
 Symbolic Z-matrix:
 Charge =  0 Multiplicity = 1

 SCF Done:  E(RB3LYP) =  -423.187255307     A.U. after   14 cycles
 Optimization completed.
    -- Stationary point found.
 Normal termination of Gaussian 09 at Tue Jan 28 03:13:33 2020.

 ----------------------------------------------------------------------
 #N Geom=AllCheck Guess=TCheck SCRF=Check GenChk RB3LYP/6-31G(2df,p) Fr
 eq
 ----------------------------------------------------------------------

 Structure from the checkpoint file:  "/scratch/puck/g09_0a283583-601b-444f-bcb5-f6e157e363c8/Gau-44861.chk"
 -----
 titel
 -----
 Charge =  0 Multiplicity = 1

                         Standard orientation:
 ---------------------------------------------------------------------
 Center     Atomic      Atomic             Coordinates (Angstroms)
 Number     Number       Type             X           Y           Z
 ---------------------------------------------------------------------
      1          8           0       -2.228275   -0.755851   -0.149783
      2          6           0       -0.824770   -0.926688   -0.027315
      3          6           0       -0.219022   -0.465990    1.336035
      4          6           0        0.779875    0.660419    0.915155
      5          6           0       -0.040251    1.811654    0.371541
      6          6           0       -0.574735    1.416564   -0.789834
      7          6           0       -0.107472   -0.001059   -1.056423
      8          6           0        1.302872    0.075984   -0.432553
      9          8           0        1.904877   -1.200857   -0.362387
     10          1           0       -2.653088   -1.374666    0.451529
     11          1           0       -0.547847   -1.967924   -0.229399
     12          1           0       -0.996734   -0.091225    2.005678
     13          1           0        0.308776   -1.286886    1.827927
     14          1           0        1.529733    0.911874    1.668287
     15          1           0       -0.214978    2.745503    0.891457
     16          1           0       -1.278855    1.955550   -1.409186
     17          1           0       -0.171568   -0.354008   -2.085386
     18          1           0        1.940577    0.792634   -0.965296
     19          1           0        2.772179   -1.102496    0.042116
 ---------------------------------------------------------------------

 SCF Done:  E(RB3LYP) =  -423.187255307     A.U. after    1 cycles

 The electronic state is 1-A.
 Alpha  occ. eigenvalues --  -19.13928 -19.12549 -10.22854 -10.22135 -10.18482
 Alpha  occ. eigenvalues --  -10.17988 -10.17359 -10.17265 -10.17170  -1.02377
 Alpha  occ. eigenvalues --   -1.00757  -0.86569  -0.73087  -0.71310  -0.67446
 Alpha  occ. eigenvalues --   -0.58155  -0.56125  -0.52233  -0.51361  -0.50275
 Alpha  occ. eigenvalues --   -0.49298  -0.43098  -0.41987  -0.38991  -0.37891
 Alpha  occ. eigenvalues --   -0.37077  -0.35624  -0.34852  -0.34301  -0.30728
 Alpha  occ. eigenvalues --   -0.29876  -0.27066  -0.25462  -0.23238
 Alpha virt. eigenvalues --    0.02403   0.07365   0.08741   0.11401   0.13936
 Alpha virt. eigenvalues --    0.14870   0.16143   0.16970   0.17466   0.17841
 Alpha virt. eigenvalues --    0.18587   0.19804   0.20063   0.20775   0.25483

 Mulliken charges:
               1
     1  O   -0.444119
     2  C    0.149863
     3  C   -0.241546
     4  C   -0.112150
     5  C   -0.085368
     6  C   -0.060424
     7  C   -0.101669
     8  C    0.136460
     9  O   -0.444947
    10  H    0.279373
    11  H    0.079328
    12  H    0.093307
    13  H    0.093901
    14  H    0.049853
    15  H    0.091790
    16  H    0.099336
    17  H    0.065767
    18  H    0.067544
    19  H    0.283702
 Sum of Mulliken charges =   0.00000

 Dipole moment (field-independent basis, Debye):
    X=              1.2030    Y=             -0.0328    Z=              1.4098  Tot=              1.8536
 Quadrupole moment (field-independent basis, Debye-Ang):
   XX=            -48.8626   YY=            -52.2183   ZZ=            -52.1355
   XY=              2.2524   XZ=             -0.3802   YZ=             -1.9727

  Exact polarizability:  74.985  -1.150  75.595   4.398   0.489  72.869
 Approx polarizability: 108.437  -1.659 111.628  11.196   4.013 117.073

                      1                      2                      3
                      A                      A                      A
 Frequencies --    148.1147               239.3946               255.2020
 Red. masses --      3.8532                 2.5449                 1.1163
 Frc consts  --      0.0498                 0.0859                 0.0428
 IR Inten    --      1.5736                 5.3472                80.4778

                      4                      5                      6
                      A                      A                      A
 Frequencies --    272.0550               291.7446               334.6438
 Red. masses --      1.2415                 3.8252                 3.9699
 Frc consts  --      0.0541                 0.1918                 0.2619
 IR Inten    --    121.0036                 5.7818                 3.8700

                      7                      8                      9
                      A                      A                      A
 Frequencies --    406.4095               486.2905               522.7164
 Red. masses --      2.2943                 3.2503                 3.3050
 Frc consts  --      0.2233                 0.4529                 0.5321
 IR Inten    --      2.8901                 5.7311                 3.1713

                     10                     11                     12
                      A                      A                      A
 Frequencies --    572.8961               676.5480               739.8538
 Red. masses --      5.7819                 4.1000                 1.9992
 Frc consts  --      1.1181                 1.1057                 0.6448
 IR Inten    --     10.9129                 0.1380                21.7324

                     13                     14                     15
                      A                      A                      A
 Frequencies --    753.4742               819.6998               843.0703
 Red. masses --      2.4280                 3.3263                 2.3459
 Frc consts  --      0.8122                 1.3168                 0.9824
 IR Inten    --     21.7891                 7.7179                 0.7063

                     16                     17                     18
                      A                      A                      A
 Frequencies --    850.7358               899.0621               944.8194
 Red. masses --      3.5464                 2.4850                 1.4721
 Frc consts  --      1.5123                 1.1835                 0.7742
 IR Inten    --      9.6495                 4.2239                 4.3877

                     19                     20                     21
                      A                      A                      A
 Frequencies --    960.5815               976.4826               992.5451
 Red. masses --      1.7676                 2.0756                 2.3404
 Frc consts  --      0.9610                 1.1661                 1.3584
 IR Inten    --      2.6204                 5.3207                14.6787

                     22                     23                     24
                      A                      A                      A
 Frequencies --   1014.5603              1036.8229              1086.8399
 Red. masses --      1.9678                 2.9454                 1.8347
 Frc consts  --      1.1934                 1.8656                 1.2769
 IR Inten    --     14.9567                 8.5698                39.5885

                     25                     26                     27
                      A                      A                      A
 Frequencies --   1106.3510              1123.8958              1165.6981
 Red. masses --      2.1931                 1.6851                 1.6002
 Frc consts  --      1.5816                 1.2541                 1.2811
 IR Inten    --     48.2927                29.5222                19.5141

                     28                     29                     30
                      A                      A                      A
 Frequencies --   1179.7969              1190.4856              1220.3428
 Red. masses --      1.3089                 1.3243                 1.1901
 Frc consts  --      1.0735                 1.1059                 1.0443
 IR Inten    --     29.2244                23.2757                27.2299

                     31                     32                     33
                      A                      A                      A
 Frequencies --   1245.0043              1284.1434              1290.6690
 Red. masses --      1.4325                 1.4466                 1.3584
 Frc consts  --      1.3082                 1.4055                 1.3332
 IR Inten    --      8.2180                 6.2523                37.5743

                     34                     35                     36
                      A                      A                      A
 Frequencies --   1314.8681              1317.6479              1347.8804
 Red. masses --      1.4112                 1.3974                 1.6049
 Frc consts  --      1.4375                 1.4295                 1.7179
 IR Inten    --     16.0195                20.8984                22.6904

                     37                     38                     39
                      A                      A                      A
 Frequencies --   1367.3770              1411.3986              1427.9433
 Red. masses --      1.5010                 1.3989                 1.4721
 Frc consts  --      1.6535                 1.6419                 1.7686
 IR Inten    --      3.4631                 6.8849                 2.9206

                     40                     41                     42
                      A                      A                      A
 Frequencies --   1471.2544              1643.5549              3027.7240
 Red. masses --      1.1005                 5.7579                 1.0850
 Frc consts  --      1.4036                 9.1639                 5.8602
 IR Inten    --      3.0179                 0.6948                43.1595

                     43                     44                     45
                      A                      A                      A
 Frequencies --   3028.7583              3061.5633              3088.9943
 Red. masses --      1.0850                 1.0598                 1.0871
 Frc consts  --      5.8641                 5.8528                 6.1118
 IR Inten    --     43.6534                29.6848                50.4640

                     46                     47                     48
                      A                      A                      A
 Frequencies --   3114.3620              3120.6102              3198.7536
 Red. masses --      1.1069                 1.0889                 1.0875
 Frc consts  --      6.3255                 6.2474                 6.5563
 IR Inten    --     23.5797                27.2360                 8.8289

                     49                     50                     51
                      A                      A                      A
 Frequencies --   3228.8070              3823.0118              3825.0946
 Red. masses --      1.1045                 1.0662                 1.0663
 Frc consts  --      6.7841                 9.1814                 9.1918
 IR Inten    --     15.5954                27.1686                19.6016

 - Thermochemistry -
 -------------------
 Temperature   298.150 Kelvin.  Pressure   1.00000 Atm.
 Atom     1 has atomic number  8 and mass  15.99491

 Molecular mass:   126.06808 amu.
 Principal axes and moments of inertia in atomic units:
                           1         2         3
     Eigenvalues --   760.30843 997.661011206.23580
           X            0.99982   0.01896   0.00185
           Y           -0.01890   0.99947  -0.02643
           Z           -0.00236   0.02639   0.99965
 This molecule is an asymmetric top.
 Rotational symmetry number  1.
 Warning -- assumption of classical behavior for rotation
           may cause significant error
 Rotational temperatures (Kelvin)      0.11392     0.08682     0.07181
 Rotational constants (GHZ):           2.37370     1.80897     1.49618
 Zero-point vibrational energy     423182.3 (Joules/Mol)
                                  101.14299 (Kcal/Mol)
 Warning -- explicit consideration of  10 degrees of freedom as
           vibrations may cause significant error
 Vibrational temperatures:    213.10   344.44   367.18   391.43   419.75
          (Kelvin)            481.48   584.73   699.66   752.07   824.27
                              973.40  1064.48  1084.08  1179.36  1212.99
                             1224.02  1293.55  1359.38  1382.06  1404.94
                             1428.05  1459.72  1491.75  1563.72  1591.79
                             1617.03  1677.18  1697.46  1712.84  1755.80
                             1791.28  1847.59  1856.98  1891.80  1895.80
                             1939.30  1967.35  2030.69  2054.49  2116.80
                             2364.71  4356.21  4357.70  4404.90  4444.37
                             4480.87  4489.86  4602.29  4645.53  5500.45
                             5503.45

 Zero-point correction=                           0.161182 (Hartree/Particle)
 Thermal correction to Energy=                    0.168875
 Thermal correction to Enthalpy=                  0.169819
 Thermal correction to Gibbs Free Energy=         0.129602
 Sum of electronic and zero-point Energies=           -423.026074
 Sum of electronic and thermal Energies=              -423.018380
 Sum of electronic and thermal Enthalpies=            -423.017436
 Sum of electronic and thermal Free Energies=         -423.057653

                     E (Thermal)             CV                S
                      KCal/Mol        Cal/Mol-Kelvin    Cal/Mol-Kelvin
 Total                  105.971             31.448             84.644
 Electronic               0.000              0.000              0.000
 Translational            0.889              2.981             40.409
 Rotational               0.889              2.981             28.305
 Vibrational            104.193             25.486             15.930
 Vibration     1          0.617              1.905              2.696
 Vibration     2          0.657              1.780              1.807
 Vibration     3          0.666              1.754              1.694
 Vibration     4          0.675              1.725              1.583
 Vibration     5          0.687              1.689              1.464
 Vibration     6          0.716              1.606              1.238
 Vibration     7          0.771              1.456              0.939
 Vibration     8          0.842              1.280              0.693
 Vibration     9          0.878              1.200              0.604
 Vibration    10          0.929              1.090              0.499

 Optimization completed.
    -- Stationary point found.
 Normal termination of Gaussian 09 at Tue Jan 28 05:17:37 2020.
