 Gaussian 09, Revision D.01,
 Gaussian 09:  ES64L-G09RevD.01 24-Apr-2013

 -----------------------------
 # b3lyp 6-31G(2df,p) opt Freq
 -----------------------------

 -----
 titel
 -----
 Symbolic Z-matrix:
 Charge =  0 Multiplicity = 1

 SCF Done:  E(RB3LYP) =  -423.103641436     A.U. after   14 cycles
 Optimization completed.
    -- Stationary point found.
 Normal termination of Gaussian 09 at Tue Jan 28 08:22:56 2020.

 ----------------------------------------------------------------------
 #N Geom=AllCheck Guess=TCheck SCRF=Check GenChk RB3LYP/6-31G(2df,p) Fr
 eq
 ----------------------------------------------------------------------

 Structure from the checkpoint file:  "/scratch/puck/g09_7a8a21d2-77cc-43f4-a36c-531190cf5422/Gau-60198.chk"
 -----
 titel
 -----
 Charge =  0 Multiplicity = 1

                         Standard orientation:
 ---------------------------------------------------------------------
 Center     Atomic      Atomic             Coordinates (Angstroms)
 Number     Number       Type             X           Y           Z
 ---------------------------------------------------------------------
      1          6           0       -1.130083    1.863274   -0.664842
      2          8           0       -0.091854    0.923599   -0.913770
      3          6           0        0.432131    0.189740    0.192593
      4          6           0        0.564488    1.025310    1.481491
      5          6           0        1.763635   -0.275880   -0.224714
      6          6           0        2.849898   -0.687839   -0.529681
      7          6           0       -0.414359   -1.062570    0.475090
      8          6           0       -1.273999   -1.660744   -0.545110
      9          8           0       -1.826603   -0.887455    0.534747
     10          1           0       -0.777381    2.721042   -0.077940
     11          1           0       -1.434554    2.225465   -1.649993
     12          1           0       -1.989922    1.407071   -0.166635
     13          1           0        1.152537    1.926299    1.291910
     14          1           0       -0.418671    1.305209    1.866857
     15          1           0        1.077607    0.436320    2.245508
     16          1           0        3.810974   -1.040205   -0.813167
     17          1           0       -0.000827   -1.702693    1.255960
     18          1           0       -1.329458   -1.189350   -1.522001
     19          1           0       -1.492924   -2.726063   -0.507283
 ---------------------------------------------------------------------

 SCF Done:  E(RB3LYP) =  -423.103641436     A.U. after    1 cycles

 The electronic state is 1-A.
 Alpha  occ. eigenvalues --  -19.15557 -19.14422 -10.26958 -10.24060 -10.23226
 Alpha  occ. eigenvalues --  -10.21950 -10.18680 -10.18377 -10.17926  -1.07595
 Alpha  occ. eigenvalues --   -1.03096  -0.80782  -0.73099  -0.70154  -0.67417
 Alpha  occ. eigenvalues --   -0.64336  -0.59300  -0.54010  -0.51072  -0.50151
 Alpha  occ. eigenvalues --   -0.48490  -0.45694  -0.42865  -0.41361  -0.40696
 Alpha  occ. eigenvalues --   -0.39470  -0.38515  -0.37792  -0.31723  -0.30635
 Alpha  occ. eigenvalues --   -0.29042  -0.27743  -0.27476  -0.24612
 Alpha virt. eigenvalues --    0.03597   0.04732   0.09500   0.10015   0.11566
 Alpha virt. eigenvalues --    0.12333   0.13452   0.14242   0.15047   0.15851
 Alpha virt. eigenvalues --    0.17007   0.17509   0.18837   0.19010   0.20719

 Mulliken charges:
               1
     1  C   -0.251155
     2  O   -0.287951
     3  C    0.114641
     4  C   -0.444494
     5  C    0.353561
     6  C   -0.464847
     7  C    0.088560
     8  C   -0.181746
     9  O   -0.250404
    10  H    0.109735
    11  H    0.126517
    12  H    0.138527
    13  H    0.135271
    14  H    0.136383
    15  H    0.130902
    16  H    0.198895
    17  H    0.097702
    18  H    0.133550
    19  H    0.116353
 Sum of Mulliken charges =   0.00000

 Dipole moment (field-independent basis, Debye):
    X=              0.6478    Y=             -0.1851    Z=              0.4313  Tot=              0.8000
 Quadrupole moment (field-independent basis, Debye-Ang):
   XX=            -52.2571   YY=            -48.8451   ZZ=            -53.2836
   XY=             -2.8673   XZ=              2.3388   YZ=              1.6770

  Exact polarizability:  90.159  -6.642  75.163   0.159   3.183  66.429
 Approx polarizability: 134.886 -14.756 101.585  -6.315   5.677  99.523

                      1                      2                      3
                      A                      A                      A
 Frequencies --     79.4202               121.2644               155.6505
 Red. masses --      3.7726                 2.8793                 2.4409
 Frc consts  --      0.0140                 0.0249                 0.0348
 IR Inten    --      2.1621                 2.7590                 1.0337

                      4                      5                      6
                      A                      A                      A
 Frequencies --    169.0849               192.3309               244.8004
 Red. masses --      3.5136                 1.3691                 2.7579
 Frc consts  --      0.0592                 0.0298                 0.0974
 IR Inten    --      2.6993                 0.9175                 2.5655

                      7                      8                      9
                      A                      A                      A
 Frequencies --    255.9142               288.3470               323.7623
 Red. masses --      2.5885                 1.4193                 2.2155
 Frc consts  --      0.0999                 0.0695                 0.1368
 IR Inten    --      9.1463                 0.2906                 0.5885

                     10                     11                     12
                      A                      A                      A
 Frequencies --    422.6779               439.6161               493.3389
 Red. masses --      3.5317                 3.6133                 5.9754
 Frc consts  --      0.3717                 0.4114                 0.8569
 IR Inten    --      3.1308                 1.5374                 3.1918

                     13                     14                     15
                      A                      A                      A
 Frequencies --    530.9173               583.5127               630.0116
 Red. masses --      5.9059                 3.8683                 1.2291
 Frc consts  --      0.9808                 0.7760                 0.2874
 IR Inten    --      7.5078                 4.6967                43.0582

                     16                     17                     18
                      A                      A                      A
 Frequencies --    669.6961               701.7045               847.8460
 Red. masses --      1.2649                 3.2078                 4.2714
 Frc consts  --      0.3343                 0.9306                 1.8091
 IR Inten    --     35.0080                13.0072                15.6096

                     19                     20                     21
                      A                      A                      A
 Frequencies --    881.8772               911.1085               952.4165
 Red. masses --      2.8376                 2.1562                 2.8022
 Frc consts  --      1.3002                 1.0546                 1.4976
 IR Inten    --     26.2965                 2.1360                31.2328

                     22                     23                     24
                      A                      A                      A
 Frequencies --    995.6996              1083.2973              1094.0989
 Red. masses --      1.4748                 4.2005                 1.4068
 Frc consts  --      0.8615                 2.9043                 0.9922
 IR Inten    --     11.7047                42.1873                 6.4364

                     25                     26                     27
                      A                      A                      A
 Frequencies --   1117.4376              1154.1501              1170.8903
 Red. masses --      2.8168                 1.4654                 1.3338
 Frc consts  --      2.0723                 1.1501                 1.0774
 IR Inten    --     61.7564                 4.0657                 2.0535

                     28                     29                     30
                      A                      A                      A
 Frequencies --   1176.0639              1188.8247              1206.5339
 Red. masses --      1.2869                 1.8343                 2.7407
 Frc consts  --      1.0487                 1.5274                 2.3507
 IR Inten    --      0.9012                24.9511                87.1384

                     31                     32                     33
                      A                      A                      A
 Frequencies --   1246.5755              1295.1766              1397.9042
 Red. masses --      2.0685                 1.5545                 1.2695
 Frc consts  --      1.8938                 1.5364                 1.4616
 IR Inten    --     20.7866                24.7652                 8.5101

                     34                     35                     36
                      A                      A                      A
 Frequencies --   1420.7981              1470.7100              1485.1241
 Red. masses --      1.7601                 1.1261                 1.0515
 Frc consts  --      2.0935                 1.4350                 1.3664
 IR Inten    --      3.6785                 0.1253                 3.2189

                     37                     38                     39
                      A                      A                      A
 Frequencies --   1490.1460              1501.2820              1517.0971
 Red. masses --      1.0518                 1.0583                 1.2245
 Frc consts  --      1.3761                 1.4054                 1.6605
 IR Inten    --      3.0948                 2.6226                 0.3485

                     40                     41                     42
                      A                      A                      A
 Frequencies --   1521.9143              2239.4449              3015.7267
 Red. masses --      1.1844                 5.8898                 1.0376
 Frc consts  --      1.6163                17.4034                 5.5597
 IR Inten    --      6.8244                 1.5604                57.8701

                     43                     44                     45
                      A                      A                      A
 Frequencies --   3053.9734              3091.3491              3097.7024
 Red. masses --      1.0339                 1.0944                 1.0716
 Frc consts  --      5.6813                 6.1622                 6.0582
 IR Inten    --     10.7446                23.4803                27.2403

                     46                     47                     48
                      A                      A                      A
 Frequencies --   3105.8020              3124.0975              3132.0081
 Red. masses --      1.0678                 1.1052                 1.1019
 Frc consts  --      6.0687                 6.3553                 6.3683
 IR Inten    --     23.2697                16.1893                14.9297

                     49                     50                     51
                      A                      A                      A
 Frequencies --   3138.0258              3203.5406              3501.3549
 Red. masses --      1.1034                 1.1181                 1.1632
 Frc consts  --      6.4018                 6.7606                 8.4021
 IR Inten    --     14.0910                11.7228                63.3358

 - Thermochemistry -
 -------------------
 Temperature   298.150 Kelvin.  Pressure   1.00000 Atm.
 Atom     1 has atomic number  6 and mass  12.00000

 Molecular mass:   126.06808 amu.
 Principal axes and moments of inertia in atomic units:
                           1         2         3
     Eigenvalues --   874.507251204.979771523.62207
           X            0.99839  -0.04856   0.02933
           Y            0.04737   0.99808   0.04000
           Z           -0.03121  -0.03855   0.99877
 This molecule is an asymmetric top.
 Rotational symmetry number  1.
 Warning -- assumption of classical behavior for rotation
           may cause significant error
 Rotational temperatures (Kelvin)      0.09904     0.07188     0.05685
 Rotational constants (GHZ):           2.06372     1.49774     1.18451
 Zero-point vibrational energy     407520.1 (Joules/Mol)
                                   97.39965 (Kcal/Mol)
 Warning -- explicit consideration of  14 degrees of freedom as
           vibrations may cause significant error
 Vibrational temperatures:    114.27   174.47   223.95   243.28   276.72
          (Kelvin)            352.21   368.20   414.87   465.82   608.14
                              632.51   709.80   763.87   839.54   906.44
                              963.54  1009.59  1219.86  1268.82  1310.88
                             1370.31  1432.59  1558.62  1574.16  1607.74
                             1660.56  1684.65  1692.09  1710.45  1735.93
                             1793.54  1863.47  2011.27  2044.21  2116.02
                             2136.76  2143.99  2160.01  2182.76  2189.69
                             3222.06  4338.95  4393.98  4447.76  4456.90
                             4468.55  4494.87  4506.26  4514.91  4609.17
                             5037.66

 Zero-point correction=                           0.155216 (Hartree/Particle)
 Thermal correction to Energy=                    0.165170
 Thermal correction to Enthalpy=                  0.166114
 Thermal correction to Gibbs Free Energy=         0.120745
 Sum of electronic and zero-point Energies=           -422.948425
 Sum of electronic and thermal Energies=              -422.938471
 Sum of electronic and thermal Enthalpies=            -422.937527
 Sum of electronic and thermal Free Energies=         -422.982897

                     E (Thermal)             CV                S
                      KCal/Mol        Cal/Mol-Kelvin    Cal/Mol-Kelvin
 Total                  103.646             36.664             95.488
 Electronic               0.000              0.000              0.000
 Translational            0.889              2.981             40.409
 Rotational               0.889              2.981             28.864
 Vibrational            101.868             30.703             26.216
 Vibration     1          0.600              1.963              3.905
 Vibration     2          0.609              1.931              3.080
 Vibration     3          0.620              1.896              2.602
 Vibration     4          0.625              1.881              2.446
 Vibration     5          0.634              1.850              2.205
 Vibration     6          0.660              1.771              1.768
 Vibration     7          0.666              1.753              1.689
 Vibration     8          0.685              1.695              1.484
 Vibration     9          0.708              1.628              1.291
 Vibration    10          0.785              1.421              0.883
 Vibration    11          0.800              1.384              0.828
 Vibration    12          0.849              1.265              0.675
 Vibration    13          0.886              1.182              0.585
 Vibration    14          0.940              1.067              0.479

 Optimization completed.
    -- Stationary point found.
 Normal termination of Gaussian 09 at Tue Jan 28 10:19:33 2020.
