 Gaussian 09, Revision D.01,
 Gaussian 09:  ES64L-G09RevD.01 24-Apr-2013

 -----------------------------
 # b3lyp 6-31G(2df,p) opt Freq
 -----------------------------

 -----
 titel
 -----
 Symbolic Z-matrix:
 Charge =  0 Multiplicity = 1

 SCF Done:  E(RB3LYP) =  -423.126063125     A.U. after   14 cycles
 Optimization completed.
    -- Stationary point found.
 Normal termination of Gaussian 09 at Tue Jan 28 08:08:29 2020.

 ----------------------------------------------------------------------
 #N Geom=AllCheck Guess=TCheck SCRF=Check GenChk RB3LYP/6-31G(2df,p) Fr
 eq
 ----------------------------------------------------------------------

 Structure from the checkpoint file:  "/scratch/puck/g09_4840bca4-afe5-4b7b-815b-6de20247c6f8/Gau-127767.chk"
 -----
 titel
 -----
 Charge =  0 Multiplicity = 1

                         Standard orientation:
 ---------------------------------------------------------------------
 Center     Atomic      Atomic             Coordinates (Angstroms)
 Number     Number       Type             X           Y           Z
 ---------------------------------------------------------------------
      1          8           0       -4.228397    0.215847   -0.431718
      2          6           0       -3.263545   -0.690741    0.088305
      3          6           0       -1.924471   -0.116385    0.206898
      4          6           0       -0.839688    0.393651    0.327344
      5          6           0        0.488813    0.983386    0.435361
      6          6           0        1.532193    0.276659   -0.433641
      7          6           0        3.003205    0.718374   -0.270912
      8          6           0        3.251266   -0.759483    0.090984
      9          8           0        1.839429   -1.053717    0.037123
     10          1           0       -4.172873    1.022199    0.091416
     11          1           0       -3.577415   -1.089382    1.066492
     12          1           0       -3.248994   -1.538385   -0.605869
     13          1           0        0.452082    2.039194    0.131849
     14          1           0        0.832482    0.964627    1.477474
     15          1           0        1.182945    0.250989   -1.474339
     16          1           0        3.497466    1.090261   -1.169122
     17          1           0        3.169279    1.421496    0.548625
     18          1           0        3.815210   -1.330552   -0.657445
     19          1           0        3.674927   -0.960239    1.081638
 ---------------------------------------------------------------------

 SCF Done:  E(RB3LYP) =  -423.126063125     A.U. after    1 cycles

 The electronic state is 1-A.
 Alpha  occ. eigenvalues --  -19.13593 -19.13138 -10.24639 -10.24176 -10.23311
 Alpha  occ. eigenvalues --  -10.20942 -10.19357 -10.17664 -10.16995  -1.03848
 Alpha  occ. eigenvalues --   -1.01731  -0.79722  -0.75188  -0.73627  -0.68276
 Alpha  occ. eigenvalues --   -0.64715  -0.55789  -0.52797  -0.50252  -0.48473
 Alpha  occ. eigenvalues --   -0.47938  -0.46094  -0.44473  -0.43820  -0.40864
 Alpha  occ. eigenvalues --   -0.39236  -0.37742  -0.35070  -0.33356  -0.30742
 Alpha  occ. eigenvalues --   -0.28209  -0.25997  -0.25350  -0.24203
 Alpha virt. eigenvalues --    0.03368   0.05320   0.09467   0.09632   0.10475
 Alpha virt. eigenvalues --    0.11165   0.11885   0.13523   0.15161   0.15682
 Alpha virt. eigenvalues --    0.16877   0.18508   0.18643   0.21556   0.22199

 Mulliken charges:
               1
     1  O   -0.403798
     2  C   -0.193070
     3  C    0.103413
     4  C    0.016683
     5  C   -0.368996
     6  C    0.173459
     7  C   -0.301804
     8  C   -0.057666
     9  O   -0.284671
    10  H    0.285436
    11  H    0.116108
    12  H    0.140716
    13  H    0.128378
    14  H    0.127818
    15  H    0.085522
    16  H    0.112931
    17  H    0.110004
    18  H    0.103495
    19  H    0.106041
 Sum of Mulliken charges =   0.00000

 Dipole moment (field-independent basis, Debye):
    X=              2.2167    Y=              1.8257    Z=              0.8224  Tot=              2.9872
 Quadrupole moment (field-independent basis, Debye-Ang):
   XX=            -51.5762   YY=            -51.5092   ZZ=            -52.6727
   XY=              1.2410   XZ=             -5.0347   YZ=              1.0730

  Exact polarizability: 114.380   6.451  69.544   1.975   0.690  61.120
 Approx polarizability: 145.593  16.464 104.202   6.648   1.710  91.266

                      1                      2                      3
                      A                      A                      A
 Frequencies --     17.0782                48.6534                71.3871
 Red. masses --      3.3478                 4.5904                 2.9920
 Frc consts  --      0.0006                 0.0064                 0.0090
 IR Inten    --      1.5128                 1.1172                 2.8126

                      4                      5                      6
                      A                      A                      A
 Frequencies --     97.1103               134.6383               231.2792
 Red. masses --      2.5582                 4.3218                 2.1030
 Frc consts  --      0.0142                 0.0462                 0.0663
 IR Inten    --      0.7539                 1.4523                16.7024

                      7                      8                      9
                      A                      A                      A
 Frequencies --    282.4813               324.8540               360.8982
 Red. masses --      2.7049                 1.6138                 3.6264
 Frc consts  --      0.1272                 0.1003                 0.2783
 IR Inten    --     17.5438                97.9000                 2.5186

                     10                     11                     12
                      A                      A                      A
 Frequencies --    394.5341               494.5904               556.0929
 Red. masses --      2.9048                 3.7576                 6.8190
 Frc consts  --      0.2664                 0.5416                 1.2424
 IR Inten    --      8.5286                 3.9826                 9.7945

                     13                     14                     15
                      A                      A                      A
 Frequencies --    737.1914               780.0148               812.5557
 Red. masses --      1.8807                 3.9047                 1.4431
 Frc consts  --      0.6022                 1.3997                 0.5614
 IR Inten    --      1.3816                 5.3153                 1.5886

                     16                     17                     18
                      A                      A                      A
 Frequencies --    869.3347               890.9779               965.5927
 Red. masses --      2.6430                 1.9951                 2.5780
 Frc consts  --      1.1769                 0.9332                 1.4162
 IR Inten    --     18.2760                 1.9672                 2.6770

                     19                     20                     21
                      A                      A                      A
 Frequencies --    987.7465              1007.4322              1037.6842
 Red. masses --      1.5956                 3.0612                 6.3287
 Frc consts  --      0.9172                 1.8305                 4.0151
 IR Inten    --     35.8155                38.2738               175.3066

                     22                     23                     24
                      A                      A                      A
 Frequencies --   1043.7624              1093.9728              1122.5477
 Red. masses --      5.5455                 2.8228                 2.1714
 Frc consts  --      3.5595                 1.9904                 1.6121
 IR Inten    --     21.8686                14.3519                15.7943

                     25                     26                     27
                      A                      A                      A
 Frequencies --   1158.0449              1166.7833              1211.5570
 Red. masses --      3.2047                 1.1805                 1.2196
 Frc consts  --      2.5321                 0.9469                 1.0547
 IR Inten    --      5.7057                 0.7298                 4.1774

                     28                     29                     30
                      A                      A                      A
 Frequencies --   1214.0596              1232.4010              1257.9073
 Red. masses --      1.1055                 1.2234                 1.4635
 Frc consts  --      0.9600                 1.0948                 1.3644
 IR Inten    --     13.9405                 0.4395                 3.4566

                     31                     32                     33
                      A                      A                      A
 Frequencies --   1289.6908              1316.4068              1357.5169
 Red. masses --      1.2818                 1.3774                 1.2159
 Frc consts  --      1.2561                 1.4063                 1.3202
 IR Inten    --     12.7275                15.7585                 4.2013

                     34                     35                     36
                      A                      A                      A
 Frequencies --   1369.5388              1393.5667              1418.1314
 Red. masses --      1.4457                 1.3879                 1.2449
 Frc consts  --      1.5976                 1.5880                 1.4751
 IR Inten    --      2.6343                20.9387               101.9302

                     37                     38                     39
                      A                      A                      A
 Frequencies --   1453.5235              1490.5012              1493.3237
 Red. masses --      1.0984                 1.1057                 1.0796
 Frc consts  --      1.3672                 1.4472                 1.4184
 IR Inten    --      2.3525                 3.8760                 0.6811

                     40                     41                     42
                      A                      A                      A
 Frequencies --   1532.5784              2363.5648              2974.5102
 Red. masses --      1.1112                11.8613                 1.0716
 Frc consts  --      1.5378                39.0408                 5.5862
 IR Inten    --      0.9029                 8.9342                52.7104

                     43                     44                     45
                      A                      A                      A
 Frequencies --   3009.8215              3012.9488              3018.9748
 Red. masses --      1.0623                 1.0691                 1.0702
 Frc consts  --      5.6702                 5.7183                 5.7470
 IR Inten    --     26.5635                71.9526                45.6996

                     46                     47                     48
                      A                      A                      A
 Frequencies --   3052.9643              3058.2522              3061.9178
 Red. masses --      1.0998                 1.1079                 1.0881
 Frc consts  --      6.0395                 6.1050                 6.0106
 IR Inten    --     20.5431                33.7500                17.4657

                     49                     50                     51
                      A                      A                      A
 Frequencies --   3075.6139              3133.4805              3816.9597
 Red. masses --      1.0617                 1.1073                 1.0662
 Frc consts  --      5.9174                 6.4060                 9.1525
 IR Inten    --     29.0857                26.2082                19.6597

 - Thermochemistry -
 -------------------
 Temperature   298.150 Kelvin.  Pressure   1.00000 Atm.
 Atom     1 has atomic number  8 and mass  15.99491

 Molecular mass:   126.06808 amu.
 Principal axes and moments of inertia in atomic units:
                           1         2         3
     Eigenvalues --   311.419883215.718263387.04992
           X            0.99996   0.00789  -0.00399
           Y           -0.00785   0.99991   0.01053
           Z            0.00408  -0.01050   0.99994
 This molecule is an asymmetric top.
 Rotational symmetry number  1.
 Rotational temperatures (Kelvin)      0.27813     0.02693     0.02557
 Rotational constants (GHZ):           5.79520     0.56122     0.53284
 Zero-point vibrational energy     414487.8 (Joules/Mol)
                                   99.06496 (Kcal/Mol)
 Warning -- explicit consideration of  12 degrees of freedom as
           vibrations may cause significant error
 Vibrational temperatures:     24.57    70.00   102.71   139.72   193.71
          (Kelvin)            332.76   406.43   467.39   519.25   567.65
                              711.60   800.09  1060.65  1122.27  1169.08
                             1250.78  1281.92  1389.27  1421.15  1449.47
                             1492.99  1501.74  1573.98  1615.09  1666.17
                             1678.74  1743.16  1746.76  1773.15  1809.85
                             1855.58  1894.01  1953.16  1970.46  2005.03
                             2040.37  2091.29  2144.50  2148.56  2205.04
                             3400.64  4279.65  4330.46  4334.96  4343.63
                             4392.53  4400.14  4405.41  4425.12  4508.37
                             5491.75

 Zero-point correction=                           0.157870 (Hartree/Particle)
 Thermal correction to Energy=                    0.167847
 Thermal correction to Enthalpy=                  0.168791
 Thermal correction to Gibbs Free Energy=         0.120182
 Sum of electronic and zero-point Energies=           -422.968193
 Sum of electronic and thermal Energies=              -422.958216
 Sum of electronic and thermal Enthalpies=            -422.957272
 Sum of electronic and thermal Free Energies=         -423.005881

                     E (Thermal)             CV                S
                      KCal/Mol        Cal/Mol-Kelvin    Cal/Mol-Kelvin
 Total                  105.325             34.097            102.307
 Electronic               0.000              0.000              0.000
 Translational            0.889              2.981             40.409
 Rotational               0.889              2.981             29.607
 Vibrational            103.548             28.136             32.291
 Vibration     1          0.593              1.986              6.948
 Vibration     2          0.595              1.978              4.871
 Vibration     3          0.598              1.968              4.115
 Vibration     4          0.603              1.951              3.512
 Vibration     5          0.613              1.919              2.879
 Vibration     6          0.653              1.793              1.869
 Vibration     7          0.682              1.706              1.519
 Vibration     8          0.709              1.626              1.286
 Vibration     9          0.735              1.553              1.118
 Vibration    10          0.761              1.482              0.983
 Vibration    11          0.850              1.262              0.672
 Vibration    12          0.912              1.126              0.532

 Optimization completed.
    -- Stationary point found.
 Normal termination of Gaussian 09 at Tue Jan 28 08:41:08 2020.
