 Gaussian 09, Revision D.01,
 Gaussian 09:  ES64L-G09RevD.01 24-Apr-2013

 -----------------------------
 # b3lyp 6-31G(2df,p) opt Freq
 -----------------------------

 -----
 titel
 -----
 Symbolic Z-matrix:
 Charge =  0 Multiplicity = 1

 SCF Done:  E(RB3LYP) =  -423.139250611     A.U. after   14 cycles
 Optimization completed.
    -- Stationary point found.
 Normal termination of Gaussian 09 at Mon Jan 27 22:01:44 2020.

 ----------------------------------------------------------------------
 #N Geom=AllCheck Guess=TCheck SCRF=Check GenChk RB3LYP/6-31G(2df,p) Fr
 eq
 ----------------------------------------------------------------------

 Structure from the checkpoint file:  "/scratch/puck/g09_d28beb20-822f-4310-9d79-1a0938afe293/Gau-175805.chk"
 -----
 titel
 -----
 Charge =  0 Multiplicity = 1

                         Standard orientation:
 ---------------------------------------------------------------------
 Center     Atomic      Atomic             Coordinates (Angstroms)
 Number     Number       Type             X           Y           Z
 ---------------------------------------------------------------------
      1          8           0        1.631788    1.503782   -0.002886
      2          6           0        0.531682    0.655358   -0.042075
      3          6           0       -0.750108    1.460213   -0.189892
      4          6           0       -1.958392    0.644443    0.290045
      5          6           0       -1.856028   -0.813889   -0.183996
      6          6           0       -0.422292   -1.319681   -0.038753
      7          6           0        0.694162   -0.654705   -0.876949
      8          8           0        1.695210   -1.117516    0.120554
      9          6           0        0.558789   -0.591347    0.920618
     10          1           0        2.397580    0.913648    0.062401
     11          1           0       -0.649264    2.386132    0.384624
     12          1           0       -0.862189    1.754922   -1.240854
     13          1           0       -1.971206    0.653008    1.387081
     14          1           0       -2.897142    1.102834   -0.035520
     15          1           0       -2.540755   -1.447671    0.389704
     16          1           0       -2.161325   -0.903612   -1.234954
     17          1           0       -0.317317   -2.405271   -0.001676
     18          1           0        0.943551   -0.781643   -1.932365
     19          1           0        0.655200   -0.644823    2.006233
 ---------------------------------------------------------------------

 SCF Done:  E(RB3LYP) =  -423.139250611     A.U. after    1 cycles

 The electronic state is 1-A.
 Alpha  occ. eigenvalues --  -19.13974 -19.13506 -10.24312 -10.24140 -10.23994
 Alpha  occ. eigenvalues --  -10.19818 -10.18873 -10.18785 -10.18349  -1.06839
 Alpha  occ. eigenvalues --   -1.01065  -0.83601  -0.74726  -0.73093  -0.65477
 Alpha  occ. eigenvalues --   -0.61542  -0.60722  -0.52900  -0.52097  -0.48186
 Alpha  occ. eigenvalues --   -0.46236  -0.44854  -0.43167  -0.40132  -0.39718
 Alpha  occ. eigenvalues --   -0.37758  -0.36575  -0.35472  -0.34274  -0.33385
 Alpha  occ. eigenvalues --   -0.30720  -0.30161  -0.25362  -0.24551
 Alpha virt. eigenvalues --    0.06495   0.10385   0.11415   0.12221   0.12815
 Alpha virt. eigenvalues --    0.13180   0.13660   0.14040   0.14628   0.15809
 Alpha virt. eigenvalues --    0.17142   0.18076   0.19539   0.20958   0.21840

 Mulliken charges:
               1
     1  O   -0.499511
     2  C    0.484947
     3  C   -0.284847
     4  C   -0.211003
     5  C   -0.243671
     6  C   -0.001441
     7  C   -0.027626
     8  O   -0.344838
     9  C   -0.049322
    10  H    0.284399
    11  H    0.115142
    12  H    0.106031
    13  H    0.104779
    14  H    0.097583
    15  H    0.103046
    16  H    0.103004
    17  H    0.085146
    18  H    0.088461
    19  H    0.089720
 Sum of Mulliken charges =   0.00000

 Dipole moment (field-independent basis, Debye):
    X=             -1.9435    Y=             -0.4792    Z=             -0.1218  Tot=              2.0054
 Quadrupole moment (field-independent basis, Debye-Ang):
   XX=            -54.0205   YY=            -57.3031   ZZ=            -50.1432
   XY=              0.3153   XZ=             -0.2498   YZ=              0.3367

  Exact polarizability:  79.309   0.668  74.387   0.002   0.047  67.863
 Approx polarizability: 111.942   0.154 108.558   0.644  -0.425 109.580

                      1                      2                      3
                      A                      A                      A
 Frequencies --    196.1711               211.1097               339.3979
 Red. masses --      2.5465                 2.0154                 3.6031
 Frc consts  --      0.0577                 0.0529                 0.2445
 IR Inten    --      0.0371                 0.3497                10.3420

                      4                      5                      6
                      A                      A                      A
 Frequencies --    357.8324               409.2532               420.8336
 Red. masses --      2.7788                 2.9967                 4.9872
 Frc consts  --      0.2096                 0.2957                 0.5204
 IR Inten    --      4.9055                 0.2963                 1.2762

                      7                      8                      9
                      A                      A                      A
 Frequencies --    485.3978               592.1254               605.5148
 Red. masses --      3.5600                 3.5443                 1.1957
 Frc consts  --      0.4942                 0.7322                 0.2583
 IR Inten    --      4.4936                 7.0367                65.2916

                     10                     11                     12
                      A                      A                      A
 Frequencies --    662.9802               692.7125               762.3743
 Red. masses --      3.0059                 2.5594                 2.6452
 Frc consts  --      0.7784                 0.7236                 0.9058
 IR Inten    --      2.4252                 5.2742                 0.0778

                     13                     14                     15
                      A                      A                      A
 Frequencies --    776.5790               827.5346               877.7655
 Red. masses --      5.2466                 2.4058                 2.8074
 Frc consts  --      1.8642                 0.9707                 1.2744
 IR Inten    --     25.0475                 2.7129                21.0533

                     16                     17                     18
                      A                      A                      A
 Frequencies --    887.8080               905.5926               917.2546
 Red. masses --      2.4781                 2.4263                 1.8467
 Frc consts  --      1.1508                 1.1724                 0.9154
 IR Inten    --      1.5363                15.2073                 7.1791

                     19                     20                     21
                      A                      A                      A
 Frequencies --    933.6615              1002.4523              1024.1801
 Red. masses --      2.2583                 1.8787                 1.1996
 Frc consts  --      1.1599                 1.1123                 0.7414
 IR Inten    --      7.6705                 1.1338                 0.1351

                     22                     23                     24
                      A                      A                      A
 Frequencies --   1076.1810              1098.4211              1123.3643
 Red. masses --      2.6963                 1.7393                 1.9128
 Frc consts  --      1.8399                 1.2364                 1.4222
 IR Inten    --     19.7607                 0.3367                 2.3735

                     25                     26                     27
                      A                      A                      A
 Frequencies --   1133.5153              1149.7989              1175.8520
 Red. masses --      2.3019                 1.2939                 1.5599
 Frc consts  --      1.7426                 1.0078                 1.2708
 IR Inten    --     55.0685                 3.5814                39.5361

                     28                     29                     30
                      A                      A                      A
 Frequencies --   1195.2140              1212.4282              1218.3047
 Red. masses --      1.8298                 2.2178                 1.5084
 Frc consts  --      1.5401                 1.9208                 1.3191
 IR Inten    --     35.7985                 5.4147                15.3172

                     31                     32                     33
                      A                      A                      A
 Frequencies --   1260.0666              1280.9642              1300.2041
 Red. masses --      1.4304                 1.4311                 1.5457
 Frc consts  --      1.3381                 1.3836                 1.5396
 IR Inten    --      5.8860                 0.8785                12.7388

                     34                     35                     36
                      A                      A                      A
 Frequencies --   1346.4719              1362.0225              1376.1428
 Red. masses --      1.5583                 1.4625                 1.6252
 Frc consts  --      1.6645                 1.5985                 1.8133
 IR Inten    --     19.8389                27.9417                18.0440

                     37                     38                     39
                      A                      A                      A
 Frequencies --   1391.1466              1431.5939              1487.3179
 Red. masses --      1.6213                 2.0363                 1.0879
 Frc consts  --      1.8487                 2.4588                 1.4179
 IR Inten    --      1.5519                72.4116                 0.5666

                     40                     41                     42
                      A                      A                      A
 Frequencies --   1490.1970              1505.9045              3021.3447
 Red. masses --      1.0769                 1.1037                 1.0675
 Frc consts  --      1.4090                 1.4747                 5.7416
 IR Inten    --      4.6359                 2.1469                24.6474

                     43                     44                     45
                      A                      A                      A
 Frequencies --   3027.2577              3033.0645              3066.7134
 Red. masses --      1.0667                 1.0625                 1.0953
 Frc consts  --      5.7598                 5.7589                 6.0693
 IR Inten    --     19.4904                25.2507                31.4746

                     46                     47                     48
                      A                      A                      A
 Frequencies --   3079.3816              3087.2847              3098.0039
 Red. masses --      1.0949                 1.1022                 1.0885
 Frc consts  --      6.1170                 6.1895                 6.1554
 IR Inten    --     31.5691                27.7215                47.3106

                     49                     50                     51
                      A                      A                      A
 Frequencies --   3101.9517              3113.0780              3727.0328
 Red. masses --      1.0879                 1.0947                 1.0634
 Frc consts  --      6.1673                 6.2508                 8.7033
 IR Inten    --     55.4785                17.8827                30.1734

 - Thermochemistry -
 -------------------
 Temperature   298.150 Kelvin.  Pressure   1.00000 Atm.
 Atom     1 has atomic number  8 and mass  15.99491

 Molecular mass:   126.06808 amu.
 Principal axes and moments of inertia in atomic units:
                           1         2         3
     Eigenvalues --   663.73918 942.635491358.74929
           X            1.00000  -0.00193  -0.00244
           Y            0.00193   0.99999   0.00370
           Z            0.00243  -0.00371   0.99999
 This molecule is an asymmetric top.
 Rotational symmetry number  1.
 Warning -- assumption of classical behavior for rotation
           may cause significant error
 Rotational temperatures (Kelvin)      0.13049     0.09188     0.06375
 Rotational constants (GHZ):           2.71905     1.91457     1.32824
 Zero-point vibrational energy     423829.5 (Joules/Mol)
                                  101.29768 (Kcal/Mol)
 Warning -- explicit consideration of   9 degrees of freedom as
           vibrations may cause significant error
 Vibrational temperatures:    282.25   303.74   488.32   514.84   588.82
          (Kelvin)            605.48   698.38   851.94   871.20   953.88
                              996.66  1096.89  1117.32  1190.64  1262.91
                             1277.36  1302.94  1319.72  1343.33  1442.30
                             1473.56  1548.38  1580.38  1616.27  1630.87
                             1654.30  1691.79  1719.64  1744.41  1752.87
                             1812.95  1843.02  1870.70  1937.27  1959.64
                             1979.96  2001.55  2059.74  2139.92  2144.06
                             2166.66  4347.04  4355.54  4363.90  4412.31
                             4430.54  4441.91  4457.33  4463.01  4479.02
                             5362.36

 Zero-point correction=                           0.161428 (Hartree/Particle)
 Thermal correction to Energy=                    0.168346
 Thermal correction to Enthalpy=                  0.169291
 Thermal correction to Gibbs Free Energy=         0.130578
 Sum of electronic and zero-point Energies=           -422.977822
 Sum of electronic and thermal Energies=              -422.970904
 Sum of electronic and thermal Enthalpies=            -422.969960
 Sum of electronic and thermal Free Energies=         -423.008672

                     E (Thermal)             CV                S
                      KCal/Mol        Cal/Mol-Kelvin    Cal/Mol-Kelvin
 Total                  105.639             29.394             81.477
 Electronic               0.000              0.000              0.000
 Translational            0.889              2.981             40.409
 Rotational               0.889              2.981             28.232
 Vibrational            103.862             23.432             12.836
 Vibration     1          0.636              1.845              2.169
 Vibration     2          0.643              1.824              2.034
 Vibration     3          0.719              1.597              1.215
 Vibration     4          0.733              1.559              1.132
 Vibration     5          0.774              1.450              0.929
 Vibration     6          0.783              1.425              0.889
 Vibration     7          0.841              1.282              0.696
 Vibration     8          0.950              1.049              0.463
 Vibration     9          0.964              1.020              0.440

 Optimization completed.
    -- Stationary point found.
 Normal termination of Gaussian 09 at Mon Jan 27 22:55:23 2020.
