 Gaussian 09, Revision D.01,
 Gaussian 09:  ES64L-G09RevD.01 24-Apr-2013

 -----------------------------
 # b3lyp 6-31G(2df,p) opt Freq
 -----------------------------

 -----
 titel
 -----
 Symbolic Z-matrix:
 Charge =  0 Multiplicity = 1

 SCF Done:  E(RB3LYP) =  -423.191223826     A.U. after   13 cycles
 Optimization completed.
    -- Stationary point found.
 Normal termination of Gaussian 09 at Mon Jan 27 22:07:07 2020.

 ----------------------------------------------------------------------
 #N Geom=AllCheck Guess=TCheck SCRF=Check GenChk RB3LYP/6-31G(2df,p) Fr
 eq
 ----------------------------------------------------------------------

 Structure from the checkpoint file:  "/scratch/puck/g09_4db08ee8-4693-4d71-ac42-36fcc1f5d1ff/Gau-116816.chk"
 -----
 titel
 -----
 Charge =  0 Multiplicity = 1

                         Standard orientation:
 ---------------------------------------------------------------------
 Center     Atomic      Atomic             Coordinates (Angstroms)
 Number     Number       Type             X           Y           Z
 ---------------------------------------------------------------------
      1          8           0        2.476689   -0.678376   -0.118163
      2          6           0        1.192328   -0.389719   -0.634879
      3          6           0        0.773088    1.074048   -0.543468
      4          6           0        0.019144    1.233553    0.768150
      5          6           0       -0.013591   -0.135653    1.445867
      6          6           0       -0.010624   -0.978841    0.152903
      7          6           0       -1.196138   -0.353467   -0.629945
      8          8           0       -2.470857   -0.501296   -0.026941
      9          6           0       -0.742042    1.094590   -0.533904
     10          1           0        2.579652   -0.190529    0.705315
     11          1           0        1.209888   -0.758765   -1.665799
     12          1           0        1.360693    1.870649   -0.981063
     13          1           0        0.027378    2.165005    1.318020
     14          1           0        0.852896   -0.334278    2.085847
     15          1           0       -0.923584   -0.290078    2.029871
     16          1           0       -0.015798   -2.063106    0.263596
     17          1           0       -1.220141   -0.709620   -1.670763
     18          1           0       -2.733627   -1.423528   -0.110424
     19          1           0       -1.317002    1.904560   -0.962116
 ---------------------------------------------------------------------

 SCF Done:  E(RB3LYP) =  -423.191223826     A.U. after    1 cycles

 The electronic state is 1-A.
 Alpha  occ. eigenvalues --  -19.13648 -19.13266 -10.23198 -10.22944 -10.18990
 Alpha  occ. eigenvalues --  -10.18724 -10.18692 -10.18102 -10.18074  -1.02132
 Alpha  occ. eigenvalues --   -1.01555  -0.90532  -0.75042  -0.71096  -0.68749
 Alpha  occ. eigenvalues --   -0.57617  -0.56033  -0.54518  -0.52939  -0.50686
 Alpha  occ. eigenvalues --   -0.48034  -0.45748  -0.43048  -0.39771  -0.38204
 Alpha  occ. eigenvalues --   -0.37269  -0.36776  -0.34277  -0.33184  -0.32722
 Alpha  occ. eigenvalues --   -0.28640  -0.27797  -0.26420  -0.25055
 Alpha virt. eigenvalues --    0.07409   0.07878   0.10488   0.13102   0.14347
 Alpha virt. eigenvalues --    0.14751   0.15586   0.16228   0.16978   0.17362
 Alpha virt. eigenvalues --    0.17898   0.19359   0.20918   0.21539   0.21942

 Mulliken charges:
               1
     1  O   -0.452980
     2  C    0.160814
     3  C   -0.121135
     4  C   -0.063818
     5  C   -0.231926
     6  C   -0.139670
     7  C    0.136128
     8  O   -0.445683
     9  C   -0.065920
    10  H    0.282320
    11  H    0.082156
    12  H    0.087380
    13  H    0.084568
    14  H    0.081146
    15  H    0.112882
    16  H    0.060159
    17  H    0.062497
    18  H    0.280941
    19  H    0.090140
 Sum of Mulliken charges =   0.00000

 Dipole moment (field-independent basis, Debye):
    X=             -0.4884    Y=             -0.0486    Z=              0.1966  Tot=              0.5287
 Quadrupole moment (field-independent basis, Debye-Ang):
   XX=            -58.7343   YY=            -49.2853   ZZ=            -51.2399
   XY=              6.4535   XZ=              3.5816   YZ=              0.3116

  Exact polarizability:  77.242   1.886  70.953   0.838   0.371  70.273
 Approx polarizability: 113.091   0.897 104.307   0.447   1.853 108.263

                      1                      2                      3
                      A                      A                      A
 Frequencies --    184.9786               221.7208               267.0290
 Red. masses --      4.2076                 2.5325                 3.1096
 Frc consts  --      0.0848                 0.0734                 0.1306
 IR Inten    --      6.4047                17.4143                 5.0899

                      4                      5                      6
                      A                      A                      A
 Frequencies --    288.7287               316.0888               353.7696
 Red. masses --      1.1023                 1.6157                 2.6851
 Frc consts  --      0.0541                 0.0951                 0.1980
 IR Inten    --     77.8477                92.5764                 0.8248

                      7                      8                      9
                      A                      A                      A
 Frequencies --    474.3867               502.6277               560.7042
 Red. masses --      6.0652                 2.2055                 4.8192
 Frc consts  --      0.8042                 0.3283                 0.8927
 IR Inten    --      4.9255                 0.9506                 6.0935

                     10                     11                     12
                      A                      A                      A
 Frequencies --    704.9214               730.5294               803.4899
 Red. masses --      3.1856                 5.0459                 3.3625
 Frc consts  --      0.9327                 1.5866                 1.2790
 IR Inten    --      0.5357                 5.3167                 8.0009

                     13                     14                     15
                      A                      A                      A
 Frequencies --    819.7075               832.2142               858.3148
 Red. masses --      1.7263                 1.9171                 2.3819
 Frc consts  --      0.6834                 0.7823                 1.0339
 IR Inten    --     10.3734                 5.5908                 0.7992

                     16                     17                     18
                      A                      A                      A
 Frequencies --    917.2499               919.8536               930.8130
 Red. masses --      2.2184                 1.9957                 4.5403
 Frc consts  --      1.0997                 0.9949                 2.3177
 IR Inten    --     12.1419                 4.5597                 3.5630

                     19                     20                     21
                      A                      A                      A
 Frequencies --    957.1218              1012.0880              1021.7957
 Red. masses --      1.6715                 1.5165                 2.9462
 Frc consts  --      0.9022                 0.9152                 1.8124
 IR Inten    --      3.2672                38.6406                 7.3180

                     22                     23                     24
                      A                      A                      A
 Frequencies --   1038.4197              1053.2614              1072.2259
 Red. masses --      1.4513                 1.7302                 1.2943
 Frc consts  --      0.9221                 1.1309                 0.8767
 IR Inten    --      1.4512                 7.0988                22.0268

                     25                     26                     27
                      A                      A                      A
 Frequencies --   1076.3054              1084.4349              1131.4184
 Red. masses --      1.3929                 2.2381                 4.3487
 Frc consts  --      0.9507                 1.5507                 3.2799
 IR Inten    --     25.9848                96.4306                24.6034

                     28                     29                     30
                      A                      A                      A
 Frequencies --   1154.2606              1197.3277              1222.4548
 Red. masses --      1.3730                 1.9933                 1.3223
 Frc consts  --      1.0778                 1.6836                 1.1643
 IR Inten    --     15.3781                 7.9935                54.6035

                     31                     32                     33
                      A                      A                      A
 Frequencies --   1227.0669              1257.9947              1284.3906
 Red. masses --      1.3868                 1.3795                 1.4981
 Frc consts  --      1.2303                 1.2863                 1.4561
 IR Inten    --     14.9010                 1.3553                 4.0012

                     34                     35                     36
                      A                      A                      A
 Frequencies --   1300.4251              1301.4021              1322.0353
 Red. masses --      1.6476                 1.6960                 1.6140
 Frc consts  --      1.6416                 1.6924                 1.6620
 IR Inten    --      3.1098                29.3153                 7.6077

                     37                     38                     39
                      A                      A                      A
 Frequencies --   1348.7319              1397.1682              1430.7438
 Red. masses --      1.6513                 2.2777                 1.5033
 Frc consts  --      1.7698                 2.6196                 1.8131
 IR Inten    --     11.8071                 6.9765                16.5888

                     40                     41                     42
                      A                      A                      A
 Frequencies --   1437.7699              1495.0406              2987.3822
 Red. masses --      1.2423                 1.1038                 1.0838
 Frc consts  --      1.5130                 1.4536                 5.6990
 IR Inten    --     59.0933                 5.3538                52.8510

                     43                     44                     45
                      A                      A                      A
 Frequencies --   3047.9923              3057.8291              3109.2553
 Red. masses --      1.0643                 1.0853                 1.0993
 Frc consts  --      5.8256                 5.9790                 6.2614
 IR Inten    --     39.9251                40.5200                14.8634

                     46                     47                     48
                      A                      A                      A
 Frequencies --   3121.2358              3197.5211              3202.1098
 Red. masses --      1.0894                 1.0907                 1.0905
 Frc consts  --      6.2531                 6.5703                 6.5878
 IR Inten    --     30.5035                 8.5174                 7.7524

                     49                     50                     51
                      A                      A                      A
 Frequencies --   3214.3346              3816.2358              3817.6578
 Red. masses --      1.0969                 1.0661                 1.0656
 Frc consts  --      6.6770                 9.1478                 9.1504
 IR Inten    --     16.6693                21.8511                10.5203

 - Thermochemistry -
 -------------------
 Temperature   298.150 Kelvin.  Pressure   1.00000 Atm.
 Atom     1 has atomic number  8 and mass  15.99491

 Molecular mass:   126.06808 amu.
 Principal axes and moments of inertia in atomic units:
                           1         2         3
     Eigenvalues --   571.355711192.346691280.87850
           X            0.99975   0.01979   0.00995
           Y           -0.01974   0.99979  -0.00541
           Z           -0.01005   0.00521   0.99994
 This molecule is an asymmetric top.
 Rotational symmetry number  1.
 Warning -- assumption of classical behavior for rotation
           may cause significant error
 Rotational temperatures (Kelvin)      0.15159     0.07264     0.06762
 Rotational constants (GHZ):           3.15870     1.51360     1.40899
 Zero-point vibrational energy     425168.2 (Joules/Mol)
                                  101.61763 (Kcal/Mol)
 Warning -- explicit consideration of   9 degrees of freedom as
           vibrations may cause significant error
 Vibrational temperatures:    266.14   319.01   384.19   415.42   454.78
          (Kelvin)            508.99   682.54   723.17   806.73  1014.22
                             1051.07  1156.04  1179.37  1197.37  1234.92
                             1319.72  1323.46  1339.23  1377.08  1456.17
                             1470.13  1494.05  1515.41  1542.69  1548.56
                             1560.26  1627.86  1660.72  1722.69  1758.84
                             1765.47  1809.97  1847.95  1871.02  1872.42
                             1902.11  1940.52  2010.21  2058.52  2068.63
                             2151.03  4298.17  4385.38  4399.53  4473.52
                             4490.76  4600.51  4607.12  4624.70  5490.71
                             5492.75

 Zero-point correction=                           0.161938 (Hartree/Particle)
 Thermal correction to Energy=                    0.169268
 Thermal correction to Enthalpy=                  0.170212
 Thermal correction to Gibbs Free Energy=         0.130702
 Sum of electronic and zero-point Energies=           -423.029286
 Sum of electronic and thermal Energies=              -423.021956
 Sum of electronic and thermal Enthalpies=            -423.021012
 Sum of electronic and thermal Free Energies=         -423.060522

                     E (Thermal)             CV                S
                      KCal/Mol        Cal/Mol-Kelvin    Cal/Mol-Kelvin
 Total                  106.217             30.396             83.156
 Electronic               0.000              0.000              0.000
 Translational            0.889              2.981             40.409
 Rotational               0.889              2.981             28.258
 Vibrational            104.440             24.434             14.489
 Vibration     1          0.631              1.860              2.278
 Vibration     2          0.648              1.808              1.945
 Vibration     3          0.672              1.734              1.615
 Vibration     4          0.685              1.695              1.481
 Vibration     5          0.703              1.643              1.330
 Vibration     6          0.730              1.568              1.149
 Vibration     7          0.831              1.307              0.725
 Vibration     8          0.858              1.244              0.652
 Vibration     9          0.916              1.116              0.522

 Normal termination of Gaussian 09 at Mon Jan 27 23:05:59 2020.
