 Gaussian 09, Revision D.01,
 Gaussian 09:  ES64L-G09RevD.01 24-Apr-2013

 -----------------------------
 # b3lyp 6-31G(2df,p) opt Freq
 -----------------------------

 -----
 titel
 -----
 Symbolic Z-matrix:
 Charge =  0 Multiplicity = 1

 SCF Done:  E(RB3LYP) =  -423.154221152     A.U. after   14 cycles
 Optimization completed.
    -- Stationary point found.
 Normal termination of Gaussian 09 at Tue Jan 28 08:13:39 2020.

 ----------------------------------------------------------------------
 #N Geom=AllCheck Guess=TCheck SCRF=Check GenChk RB3LYP/6-31G(2df,p) Fr
 eq
 ----------------------------------------------------------------------

 Structure from the checkpoint file:  "/scratch/puck/g09_adffbed4-5dd4-4dc5-90d3-199d43e1cb43/Gau-14374.chk"
 -----
 titel
 -----
 Charge =  0 Multiplicity = 1

                         Standard orientation:
 ---------------------------------------------------------------------
 Center     Atomic      Atomic             Coordinates (Angstroms)
 Number     Number       Type             X           Y           Z
 ---------------------------------------------------------------------
      1          6           0        0.262563    2.209955   -0.124026
      2          6           0        0.456237    0.760490   -0.517396
      3          8           0        1.773476    0.328366   -0.185042
      4          6           0        1.797045   -1.089620   -0.374900
      5          6           0        0.352146   -1.591212   -0.114280
      6          6           0       -0.410751   -0.284778    0.244060
      7          8           0       -0.348012   -0.038679    1.646201
      8          6           0       -1.808635   -0.285451   -0.163872
      9          6           0       -2.946666   -0.278178   -0.548683
     10          1           0        0.988239    2.841184   -0.643035
     11          1           0       -0.744851    2.534208   -0.399004
     12          1           0        0.384264    2.343276    0.952894
     13          1           0        0.276978    0.633544   -1.598047
     14          1           0        2.116339   -1.324818   -1.399560
     15          1           0        2.536272   -1.503156    0.315848
     16          1           0       -0.074838   -2.059491   -1.003198
     17          1           0        0.277362   -2.294739    0.716259
     18          1           0        0.582661    0.139267    1.836873
     19          1           0       -3.957783   -0.274007   -0.873728
 ---------------------------------------------------------------------

 SCF Done:  E(RB3LYP) =  -423.154221152     A.U. after    1 cycles

 The electronic state is 1-A.
 Alpha  occ. eigenvalues --  -19.14947 -19.14078 -10.26148 -10.23811 -10.23574
 Alpha  occ. eigenvalues --  -10.19085 -10.18390 -10.17912 -10.17673  -1.05505
 Alpha  occ. eigenvalues --   -1.01743  -0.79716  -0.77202  -0.73649  -0.68049
 Alpha  occ. eigenvalues --   -0.61965  -0.59274  -0.53410  -0.51611  -0.50006
 Alpha  occ. eigenvalues --   -0.47537  -0.46899  -0.43784  -0.41184  -0.38885
 Alpha  occ. eigenvalues --   -0.38161  -0.37082  -0.36428  -0.33596  -0.32939
 Alpha  occ. eigenvalues --   -0.28909  -0.27935  -0.27546  -0.24792
 Alpha virt. eigenvalues --    0.03661   0.04734   0.07992   0.10975   0.11558
 Alpha virt. eigenvalues --    0.12240   0.12736   0.13569   0.15462   0.16267
 Alpha virt. eigenvalues --    0.16938   0.18813   0.19315   0.20834   0.22513

 Mulliken charges:
               1
     1  C   -0.407860
     2  C    0.080795
     3  O   -0.277791
     4  C   -0.100339
     5  C   -0.294892
     6  C    0.176391
     7  O   -0.472506
     8  C    0.330066
     9  C   -0.432770
    10  H    0.125195
    11  H    0.133847
    12  H    0.124664
    13  H    0.072617
    14  H    0.103369
    15  H    0.114183
    16  H    0.118516
    17  H    0.124944
    18  H    0.285380
    19  H    0.196189
 Sum of Mulliken charges =   0.00000

 Dipole moment (field-independent basis, Debye):
    X=              0.4771    Y=             -0.6839    Z=             -1.2323  Tot=              1.4880
 Quadrupole moment (field-independent basis, Debye-Ang):
   XX=            -51.2187   YY=            -51.3130   ZZ=            -53.8185
   XY=             -2.3896   XZ=              4.3217   YZ=              0.3133

  Exact polarizability:  94.443  -2.617  72.404   6.328   0.474  63.876
 Approx polarizability: 140.397  -1.706  96.023  14.518   0.979  99.836

                      1                      2                      3
                      A                      A                      A
 Frequencies --     90.3434               131.2727               164.3352
 Red. masses --      2.3675                 3.4088                 2.1195
 Frc consts  --      0.0114                 0.0346                 0.0337
 IR Inten    --      0.5944                 0.1711                 1.4733

                      4                      5                      6
                      A                      A                      A
 Frequencies --    191.1434               210.5941               264.2887
 Red. masses --      2.1881                 1.6653                 3.4063
 Frc consts  --      0.0471                 0.0435                 0.1402
 IR Inten    --      3.9990                 5.5142                 2.9253

                      7                      8                      9
                      A                      A                      A
 Frequencies --    327.7386               385.6266               426.0450
 Red. masses --      3.1283                 3.3220                 1.1190
 Frc consts  --      0.1980                 0.2911                 0.1197
 IR Inten    --      8.1099                 0.8940                85.4128

                     10                     11                     12
                      A                      A                      A
 Frequencies --    480.9019               519.4152               568.1546
 Red. masses --      4.2752                 5.4336                 5.5792
 Frc consts  --      0.5825                 0.8637                 1.0611
 IR Inten    --      1.5181                 4.1348                 6.0534

                     13                     14                     15
                      A                      A                      A
 Frequencies --    585.0405               625.7878               673.1076
 Red. masses --      3.8877                 1.2329                 1.2674
 Frc consts  --      0.7840                 0.2845                 0.3383
 IR Inten    --      2.0179                39.1392                34.8000

                     16                     17                     18
                      A                      A                      A
 Frequencies --    712.2697               753.0761               813.4782
 Red. masses --      5.0156                 2.9310                 1.4109
 Frc consts  --      1.4992                 0.9794                 0.5501
 IR Inten    --     15.7000                 4.0485                 3.3093

                     19                     20                     21
                      A                      A                      A
 Frequencies --    879.2700               945.9816               969.8212
 Red. masses --      2.2488                 2.4201                 2.8659
 Frc consts  --      1.0243                 1.2760                 1.5882
 IR Inten    --     12.6158                 5.3713                 4.7580

                     22                     23                     24
                      A                      A                      A
 Frequencies --   1008.0591              1020.9399              1062.8081
 Red. masses --      4.3926                 1.6316                 2.9079
 Frc consts  --      2.6299                 1.0020                 1.9352
 IR Inten    --     36.6964                13.3173                69.8866

                     25                     26                     27
                      A                      A                      A
 Frequencies --   1094.2014              1125.9695              1157.9532
 Red. masses --      3.3520                 2.3205                 2.2617
 Frc consts  --      2.3646                 1.7333                 1.7868
 IR Inten    --     73.3580                28.7731                16.7742

                     28                     29                     30
                      A                      A                      A
 Frequencies --   1179.1462              1238.3054              1259.1311
 Red. masses --      2.4803                 1.3936                 1.1712
 Frc consts  --      2.0319                 1.2591                 1.0940
 IR Inten    --     33.8310                10.2777                11.6822

                     31                     32                     33
                      A                      A                      A
 Frequencies --   1279.1095              1319.7567              1377.9915
 Red. masses --      1.3600                 1.2633                 1.3129
 Frc consts  --      1.3110                 1.2965                 1.4688
 IR Inten    --      8.5404                40.5320                15.5819

                     34                     35                     36
                      A                      A                      A
 Frequencies --   1387.6262              1408.9799              1419.4590
 Red. masses --      1.3390                 1.5152                 1.4895
 Frc consts  --      1.5190                 1.7722                 1.7682
 IR Inten    --      1.1444                27.5058                25.9434

                     37                     38                     39
                      A                      A                      A
 Frequencies --   1485.4113              1489.5487              1491.6778
 Red. masses --      1.0750                 1.0680                 1.0506
 Frc consts  --      1.3975                 1.3962                 1.3773
 IR Inten    --      4.2945                 8.2714                 1.3137

                     40                     41                     42
                      A                      A                      A
 Frequencies --   1524.4328              2243.6358              2967.1427
 Red. masses --      1.0955                 5.9307                 1.0830
 Frc consts  --      1.4999                17.5897                 5.6179
 IR Inten    --      1.3286                 0.7280                37.5428

                     43                     44                     45
                      A                      A                      A
 Frequencies --   3008.3246              3055.3425              3082.2909
 Red. masses --      1.0695                 1.0349                 1.0603
 Frc consts  --      5.7029                 5.6922                 5.9348
 IR Inten    --     67.7125                13.0552                14.5610

                     46                     47                     48
                      A                      A                      A
 Frequencies --   3089.3896              3128.6306              3136.0586
 Red. masses --      1.0960                 1.1019                 1.1065
 Frc consts  --      6.1632                 6.3550                 6.4117
 IR Inten    --     24.2518                13.5928                 9.2740

                     49                     50                     51
                      A                      A                      A
 Frequencies --   3138.2423              3501.4884              3764.3195
 Red. masses --      1.1017                 1.1628                 1.0651
 Frc consts  --      6.3928                 8.3997                 8.8923
 IR Inten    --     21.4958                67.6708                22.0706

 - Thermochemistry -
 -------------------
 Temperature   298.150 Kelvin.  Pressure   1.00000 Atm.
 Atom     1 has atomic number  6 and mass  12.00000

 Molecular mass:   126.06808 amu.
 Principal axes and moments of inertia in atomic units:
                           1         2         3
     Eigenvalues --   766.030741199.621621497.38639
           X            0.99943  -0.03213   0.01044
           Y            0.03206   0.99946   0.00738
           Z           -0.01067  -0.00704   0.99992
 This molecule is an asymmetric top.
 Rotational symmetry number  1.
 Warning -- assumption of classical behavior for rotation
           may cause significant error
 Rotational temperatures (Kelvin)      0.11307     0.07220     0.05784
 Rotational constants (GHZ):           2.35596     1.50443     1.20526
 Zero-point vibrational energy     413687.0 (Joules/Mol)
                                   98.87356 (Kcal/Mol)
 Warning -- explicit consideration of  13 degrees of freedom as
           vibrations may cause significant error
 Vibrational temperatures:    129.98   188.87   236.44   275.01   303.00
          (Kelvin)            380.25   471.54   554.83   612.98   691.91
                              747.32   817.45   841.74   900.37   968.45
                             1024.80  1083.51  1170.41  1265.07  1361.05
                             1395.35  1450.37  1468.90  1529.14  1574.31
                             1620.02  1666.03  1696.53  1781.64  1811.61
                             1840.35  1898.83  1982.62  1996.48  2027.21
                             2042.28  2137.17  2143.13  2146.19  2193.32
                             3228.09  4269.05  4328.30  4395.95  4434.72
                             4444.94  4501.40  4512.08  4515.23  5037.85
                             5416.01

 Zero-point correction=                           0.157565 (Hartree/Particle)
 Thermal correction to Energy=                    0.166798
 Thermal correction to Enthalpy=                  0.167742
 Thermal correction to Gibbs Free Energy=         0.123976
 Sum of electronic and zero-point Energies=           -422.996656
 Sum of electronic and thermal Energies=              -422.987423
 Sum of electronic and thermal Enthalpies=            -422.986479
 Sum of electronic and thermal Free Energies=         -423.030245

                     E (Thermal)             CV                S
                      KCal/Mol        Cal/Mol-Kelvin    Cal/Mol-Kelvin
 Total                  104.667             35.160             92.114
 Electronic               0.000              0.000              0.000
 Translational            0.889              2.981             40.409
 Rotational               0.889              2.981             28.711
 Vibrational            102.890             29.198             22.995
 Vibration     1          0.602              1.956              3.653
 Vibration     2          0.612              1.922              2.927
 Vibration     3          0.623              1.886              2.499
 Vibration     4          0.634              1.852              2.217
 Vibration     5          0.643              1.825              2.039
 Vibration     6          0.671              1.738              1.633
 Vibration     7          0.711              1.620              1.271
 Vibration     8          0.754              1.501              1.017
 Vibration     9          0.788              1.414              0.872
 Vibration    10          0.837              1.292              0.708
 Vibration    11          0.874              1.207              0.611
 Vibration    12          0.924              1.100              0.508
 Vibration    13          0.942              1.064              0.476

 Optimization completed.
    -- Stationary point found.
 Normal termination of Gaussian 09 at Tue Jan 28 08:57:03 2020.
