 Gaussian 09, Revision D.01,
 Gaussian 09:  ES64L-G09RevD.01 24-Apr-2013

 -----------------------------
 # b3lyp 6-31G(2df,p) opt Freq
 -----------------------------

 -----
 titel
 -----
 Symbolic Z-matrix:
 Charge =  0 Multiplicity = 1

 SCF Done:  E(RB3LYP) =  -423.203785394     A.U. after   15 cycles
 Optimization completed.
    -- Stationary point found.
 Normal termination of Gaussian 09 at Mon Jan 27 13:15:29 2020.

 ----------------------------------------------------------------------
 #N Geom=AllCheck Guess=TCheck SCRF=Check GenChk RB3LYP/6-31G(2df,p) Fr
 eq
 ----------------------------------------------------------------------

 Structure from the checkpoint file:  "/scratch/puck/g09_93492f2f-b338-4c88-8aaf-9bc541e3db81/Gau-169469.chk"
 -----
 titel
 -----
 Charge =  0 Multiplicity = 1

                         Standard orientation:
 ---------------------------------------------------------------------
 Center     Atomic      Atomic             Coordinates (Angstroms)
 Number     Number       Type             X           Y           Z
 ---------------------------------------------------------------------
      1          8           0       -3.164991   -0.431797    0.148569
      2          6           0       -2.363196    0.461669   -0.004272
      3          6           0       -0.895040    0.288139    0.013748
      4          6           0       -0.149707    1.380413   -0.220835
      5          6           0        1.349896    1.467834   -0.228678
      6          6           0        2.060654    0.380761    0.589422
      7          8           0        2.112843   -0.899418   -0.002603
      8          6           0        0.909045   -1.428699   -0.539637
      9          6           0       -0.369672   -1.110110    0.239841
     10          1           0       -2.697563    1.509488   -0.177499
     11          1           0       -0.679714    2.312695   -0.417119
     12          1           0        1.725307    1.459500   -1.262411
     13          1           0        1.642060    2.444520    0.178342
     14          1           0        3.107177    0.666515    0.734904
     15          1           0        1.596072    0.334835    1.587178
     16          1           0        0.780300   -1.094254   -1.581241
     17          1           0        1.063635   -2.512160   -0.564122
     18          1           0       -1.155883   -1.805580   -0.072110
     19          1           0       -0.216089   -1.305881    1.308807
 ---------------------------------------------------------------------

 SCF Done:  E(RB3LYP) =  -423.203785394     A.U. after    1 cycles

 The electronic state is 1-A.
 Alpha  occ. eigenvalues --  -19.13952 -19.13394 -10.26536 -10.23671 -10.23212
 Alpha  occ. eigenvalues --  -10.21463 -10.20455 -10.20257 -10.19155  -1.03991
 Alpha  occ. eigenvalues --   -1.03216  -0.83457  -0.78768  -0.71972  -0.68863
 Alpha  occ. eigenvalues --   -0.60850  -0.58120  -0.53979  -0.50743  -0.50342
 Alpha  occ. eigenvalues --   -0.46341  -0.43922  -0.43425  -0.42451  -0.41976
 Alpha  occ. eigenvalues --   -0.40779  -0.40055  -0.37324  -0.36602  -0.34885
 Alpha  occ. eigenvalues --   -0.30587  -0.26805  -0.25501  -0.25174
 Alpha virt. eigenvalues --   -0.05453   0.05524   0.08036   0.10689   0.11342
 Alpha virt. eigenvalues --    0.11613   0.13306   0.14864   0.16025   0.16243
 Alpha virt. eigenvalues --    0.17372   0.18782   0.19303   0.21399   0.21460

 Mulliken charges:
               1
     1  O   -0.277742
     2  C    0.095518
     3  C    0.211055
     4  C   -0.114714
     5  C   -0.286722
     6  C   -0.061417
     7  O   -0.255936
     8  C   -0.063904
     9  C   -0.337191
    10  H    0.069230
    11  H    0.098824
    12  H    0.133641
    13  H    0.117104
    14  H    0.111362
    15  H    0.094961
    16  H    0.091585
    17  H    0.112722
    18  H    0.134658
    19  H    0.126967
 Sum of Mulliken charges =   0.00000

 Dipole moment (field-independent basis, Debye):
    X=              1.8669    Y=              2.2517    Z=             -0.2682  Tot=              2.9372
 Quadrupole moment (field-independent basis, Debye-Ang):
   XX=            -65.9084   YY=            -49.6533   ZZ=            -52.3712
   XY=             -0.0764   XZ=              1.3068   YZ=              0.2412

  Exact polarizability:  98.198  10.020  85.874  -0.850  -2.430  56.598
 Approx polarizability: 143.266  29.717 135.079  -5.601  -7.255  88.986

                      1                      2                      3
                      A                      A                      A
 Frequencies --     71.7623               125.3916               211.6906
 Red. masses --      3.9081                 3.2040                 5.3390
 Frc consts  --      0.0119                 0.0297                 0.1410
 IR Inten    --      4.9432                 0.8611                 8.3246

                      4                      5                      6
                      A                      A                      A
 Frequencies --    224.8253               263.2811               321.0228
 Red. masses --      2.1096                 2.3289                 3.3821
 Frc consts  --      0.0628                 0.0951                 0.2054
 IR Inten    --      6.6703                 2.6868                 0.4991

                      7                      8                      9
                      A                      A                      A
 Frequencies --    338.6830               399.0063               461.3625
 Red. masses --      2.3341                 3.0248                 2.2006
 Frc consts  --      0.1577                 0.2837                 0.2760
 IR Inten    --      5.1073                 1.7010                 4.3123

                     10                     11                     12
                      A                      A                      A
 Frequencies --    531.2588               589.1947               689.9319
 Red. masses --      4.4926                 2.1513                 2.7246
 Frc consts  --      0.7471                 0.4400                 0.7641
 IR Inten    --      1.4600                 2.9609                13.8021

                     13                     14                     15
                      A                      A                      A
 Frequencies --    748.9604               822.4005               857.7387
 Red. masses --      3.0409                 2.8562                 1.4853
 Frc consts  --      1.0050                 1.1382                 0.6439
 IR Inten    --      8.8719                 0.6210                 7.1584

                     16                     17                     18
                      A                      A                      A
 Frequencies --    888.5696               943.3265               988.8785
 Red. masses --      2.2880                 2.3960                 2.1731
 Frc consts  --      1.0644                 1.2562                 1.2520
 IR Inten    --      7.8350                19.2571                 6.4197

                     19                     20                     21
                      A                      A                      A
 Frequencies --   1021.0829              1036.9361              1064.4848
 Red. masses --      1.8192                 1.8580                 1.8384
 Frc consts  --      1.1175                 1.1770                 1.2273
 IR Inten    --     13.9926                 1.9185                 5.6819

                     22                     23                     24
                      A                      A                      A
 Frequencies --   1076.1149              1093.9406              1143.9392
 Red. masses --      2.4976                 2.4524                 2.5337
 Frc consts  --      1.7041                 1.7292                 1.9535
 IR Inten    --      1.1581                 0.9646               109.7375

                     25                     26                     27
                      A                      A                      A
 Frequencies --   1189.6242              1224.0028              1231.2395
 Red. masses --      2.8428                 1.2018                 1.3417
 Frc consts  --      2.3704                 1.0608                 1.1984
 IR Inten    --     37.1447                 3.2238                30.6407

                     28                     29                     30
                      A                      A                      A
 Frequencies --   1304.7554              1318.2677              1341.5672
 Red. masses --      1.1919                 1.2729                 1.2283
 Frc consts  --      1.1955                 1.3033                 1.3025
 IR Inten    --     36.8940                15.9963                 1.8827

                     31                     32                     33
                      A                      A                      A
 Frequencies --   1373.0777              1394.6469              1408.5293
 Red. masses --      1.5257                 1.7418                 1.3064
 Frc consts  --      1.6948                 1.9961                 1.5270
 IR Inten    --      2.3123                 4.2586                 6.1652

                     34                     35                     36
                      A                      A                      A
 Frequencies --   1429.8884              1435.0200              1455.5575
 Red. masses --      1.2903                 1.2609                 1.0917
 Frc consts  --      1.5543                 1.5298                 1.3627
 IR Inten    --     12.7021                 4.2032                 6.3465

                     37                     38                     39
                      A                      A                      A
 Frequencies --   1471.7804              1508.9744              1511.5992
 Red. masses --      1.0878                 1.0799                 1.0942
 Frc consts  --      1.3883                 1.4488                 1.4731
 IR Inten    --      8.8003                 4.8624                 0.9444

                     40                     41                     42
                      A                      A                      A
 Frequencies --   1704.8150              1790.6709              2874.8417
 Red. masses --      6.9098                10.6610                 1.0830
 Frc consts  --     11.8323                20.1409                 5.2734
 IR Inten    --     49.1242               228.9943               109.4574

                     43                     44                     45
                      A                      A                      A
 Frequencies --   2974.1209              2981.9724              3010.8747
 Red. masses --      1.0701                 1.0727                 1.0627
 Frc consts  --      5.5771                 5.6201                 5.6760
 IR Inten    --     89.8362                 0.9934                16.4367

                     46                     47                     48
                      A                      A                      A
 Frequencies --   3033.8883              3045.8286              3071.3558
 Red. masses --      1.0658                 1.0970                 1.0945
 Frc consts  --      5.7800                 5.9960                 6.0828
 IR Inten    --     16.0607                19.9109                35.1473

                     49                     50                     51
                      A                      A                      A
 Frequencies --   3075.4058              3081.9700              3125.9643
 Red. masses --      1.0916                 1.0923                 1.0874
 Frc consts  --      6.0828                 6.1130                 6.2605
 IR Inten    --     39.1932                11.7832                16.8414

 - Thermochemistry -
 -------------------
 Temperature   298.150 Kelvin.  Pressure   1.00000 Atm.
 Atom     1 has atomic number  8 and mass  15.99491

 Molecular mass:   126.06808 amu.
 Principal axes and moments of inertia in atomic units:
                           1         2         3
     Eigenvalues --   562.694581575.196371999.22166
           X            0.99996   0.00846   0.00406
           Y           -0.00845   0.99996  -0.00037
           Z           -0.00406   0.00033   0.99999
 This molecule is an asymmetric top.
 Rotational symmetry number  1.
 Warning -- assumption of classical behavior for rotation
           may cause significant error
 Rotational temperatures (Kelvin)      0.15393     0.05499     0.04332
 Rotational constants (GHZ):           3.20732     1.14572     0.90272
 Zero-point vibrational energy     420391.8 (Joules/Mol)
                                  100.47605 (Kcal/Mol)
 Warning -- explicit consideration of  11 degrees of freedom as
           vibrations may cause significant error
 Vibrational temperatures:    103.25   180.41   304.58   323.47   378.80
          (Kelvin)            461.88   487.29   574.08   663.80   764.36
                              847.72   992.66  1077.59  1183.25  1234.09
                             1278.45  1357.23  1422.77  1469.11  1491.92
                             1531.55  1548.29  1573.93  1645.87  1711.60
                             1761.06  1771.48  1877.25  1896.69  1930.21
                             1975.55  2006.58  2026.56  2057.29  2064.67
                             2094.22  2117.56  2171.07  2174.85  2452.85
                             2576.37  4136.25  4279.09  4290.39  4331.97
                             4365.08  4382.26  4418.99  4424.82  4434.26
                             4497.56

 Zero-point correction=                           0.160119 (Hartree/Particle)
 Thermal correction to Energy=                    0.168458
 Thermal correction to Enthalpy=                  0.169402
 Thermal correction to Gibbs Free Energy=         0.126910
 Sum of electronic and zero-point Energies=           -423.043667
 Sum of electronic and thermal Energies=              -423.035327
 Sum of electronic and thermal Enthalpies=            -423.034383
 Sum of electronic and thermal Free Energies=         -423.076876

                     E (Thermal)             CV                S
                      KCal/Mol        Cal/Mol-Kelvin    Cal/Mol-Kelvin
 Total                  105.709             31.340             89.433
 Electronic               0.000              0.000              0.000
 Translational            0.889              2.981             40.409
 Rotational               0.889              2.981             28.962
 Vibrational            103.931             25.379             20.062
 Vibration     1          0.598              1.967              4.104
 Vibration     2          0.610              1.928              3.016
 Vibration     3          0.643              1.823              2.029
 Vibration     4          0.649              1.803              1.920
 Vibration     5          0.670              1.740              1.640
 Vibration     6          0.706              1.633              1.305
 Vibration     7          0.719              1.598              1.218
 Vibration     8          0.765              1.472              0.966
 Vibration     9          0.819              1.336              0.762
 Vibration    10          0.886              1.181              0.584
 Vibration    11          0.946              1.055              0.469

 Normal termination of Gaussian 09 at Mon Jan 27 13:57:34 2020.
