 Gaussian 09, Revision D.01,
 Gaussian 09:  ES64L-G09RevD.01 24-Apr-2013

 -----------------------------
 # b3lyp 6-31G(2df,p) opt Freq
 -----------------------------

 -----
 titel
 -----
 Symbolic Z-matrix:
 Charge =  0 Multiplicity = 1

 SCF Done:  E(RB3LYP) =  -423.184867919     A.U. after   13 cycles
 Optimization completed.
    -- Stationary point found.
 Normal termination of Gaussian 09 at Tue Jan 28 10:21:56 2020.

 ----------------------------------------------------------------------
 #N Geom=AllCheck Guess=TCheck SCRF=Check GenChk RB3LYP/6-31G(2df,p) Fr
 eq
 ----------------------------------------------------------------------

 Structure from the checkpoint file:  "/scratch/puck/g09_a45bb55f-338b-4ea0-849d-c6cd10e72e23/Gau-1093.chk"
 -----
 titel
 -----
 Charge =  0 Multiplicity = 1

                         Standard orientation:
 ---------------------------------------------------------------------
 Center     Atomic      Atomic             Coordinates (Angstroms)
 Number     Number       Type             X           Y           Z
 ---------------------------------------------------------------------
      1          6           0        2.822693   -0.483907    0.029993
      2          6           0        1.871691    0.695193   -0.210798
      3          6           0        0.427877    0.322999   -0.074547
      4          8           0       -0.037438   -0.702991   -0.946413
      5          6           0       -1.369580   -0.803221   -0.461200
      6          6           0       -1.903885    0.639583   -0.595519
      7          6           0       -0.760134    1.243380    0.204801
      8          6           0       -0.381493    0.135987    1.187740
      9          8           0       -1.229361   -0.972304    0.945950
     10          1           0        2.709228   -0.880064    1.044081
     11          1           0        2.613532   -1.296594   -0.670107
     12          1           0        3.864194   -0.175756   -0.100395
     13          1           0        2.082494    1.504272    0.498619
     14          1           0        2.038182    1.112228   -1.212044
     15          1           0       -1.897582   -1.639523   -0.910733
     16          1           0       -1.933700    0.969231   -1.636086
     17          1           0       -2.882641    0.761528   -0.126706
     18          1           0       -0.654699    2.296160    0.425702
     19          1           0       -0.047622    0.250794    2.208547
 ---------------------------------------------------------------------

 SCF Done:  E(RB3LYP) =  -423.184867919     A.U. after    1 cycles

 The electronic state is 1-A.
 Alpha  occ. eigenvalues --  -19.14818 -19.14747 -10.27771 -10.23588 -10.23217
 Alpha  occ. eigenvalues --  -10.19129 -10.19115 -10.18765 -10.17270  -1.10618
 Alpha  occ. eigenvalues --   -0.99623  -0.84169  -0.77907  -0.74041  -0.64017
 Alpha  occ. eigenvalues --   -0.61866  -0.58260  -0.55967  -0.52652  -0.47332
 Alpha  occ. eigenvalues --   -0.46774  -0.43700  -0.43057  -0.42192  -0.40087
 Alpha  occ. eigenvalues --   -0.38812  -0.37194  -0.36346  -0.35522  -0.34705
 Alpha  occ. eigenvalues --   -0.31182  -0.30228  -0.25590  -0.23531
 Alpha virt. eigenvalues --    0.09312   0.10337   0.12143   0.12920   0.13450
 Alpha virt. eigenvalues --    0.14260   0.15066   0.15733   0.16304   0.16640
 Alpha virt. eigenvalues --    0.18201   0.18933   0.19373   0.19822   0.21995

 Mulliken charges:
               1
     1  C   -0.375283
     2  C   -0.305436
     3  C    0.443835
     4  O   -0.289239
     5  C    0.143857
     6  C   -0.239261
     7  C   -0.229467
     8  C   -0.004206
     9  O   -0.252912
    10  H    0.118576
    11  H    0.138447
    12  H    0.109490
    13  H    0.102992
    14  H    0.110229
    15  H    0.098038
    16  H    0.111795
    17  H    0.112757
    18  H    0.095444
    19  H    0.110344
 Sum of Mulliken charges =   0.00000

 Dipole moment (field-independent basis, Debye):
    X=              0.1077    Y=              1.6808    Z=              0.0120  Tot=              1.6843
 Quadrupole moment (field-independent basis, Debye-Ang):
   XX=            -50.6441   YY=            -53.2433   ZZ=            -53.2748
   XY=              0.6400   XZ=              3.1368   YZ=              1.7203

  Exact polarizability:  84.386   0.299  68.467   2.743   0.797  66.672
 Approx polarizability: 108.894   2.096 104.914   0.302   0.989 106.218

                      1                      2                      3
                      A                      A                      A
 Frequencies --     86.0302               145.9828               198.8808
 Red. masses --      2.3729                 3.2095                 1.2316
 Frc consts  --      0.0103                 0.0403                 0.0287
 IR Inten    --      0.1357                 1.0174                 0.3221

                      4                      5                      6
                      A                      A                      A
 Frequencies --    300.8813               356.5509               444.0302
 Red. masses --      1.8727                 2.9142                 2.0972
 Frc consts  --      0.0999                 0.2183                 0.2436
 IR Inten    --      0.8854                 0.5747                 0.5822

                      7                      8                      9
                      A                      A                      A
 Frequencies --    574.6825               600.1494               612.3346
 Red. masses --      4.4361                 3.4623                 5.8377
 Frc consts  --      0.8632                 0.7347                 1.2896
 IR Inten    --      6.4259                 3.2933                 7.0031

                     10                     11                     12
                      A                      A                      A
 Frequencies --    731.9595               742.2941               781.8567
 Red. masses --      3.6376                 4.5108                 1.4134
 Frc consts  --      1.1483                 1.4644                 0.5090
 IR Inten    --     14.0497                 2.4213                 0.7148

                     13                     14                     15
                      A                      A                      A
 Frequencies --    832.1342               857.7300               879.4830
 Red. masses --      3.2013                 2.4454                 2.1368
 Frc consts  --      1.3061                 1.0600                 0.9738
 IR Inten    --      1.7989                56.2337                 6.0157

                     16                     17                     18
                      A                      A                      A
 Frequencies --    893.5189               927.6533               952.6167
 Red. masses --      2.6251                 2.4253                 2.3989
 Frc consts  --      1.2348                 1.2297                 1.2826
 IR Inten    --     15.3727                28.6741                16.9792

                     19                     20                     21
                      A                      A                      A
 Frequencies --    973.1490               981.6105              1013.3040
 Red. masses --      1.4992                 2.4323                 1.7839
 Frc consts  --      0.8365                 1.3808                 1.0792
 IR Inten    --      2.0678                15.5774                13.0195

                     22                     23                     24
                      A                      A                      A
 Frequencies --   1035.1758              1037.0481              1064.5486
 Red. masses --      2.3780                 2.6907                 1.8394
 Frc consts  --      1.5014                 1.7050                 1.2282
 IR Inten    --     17.6073                 5.8969                 3.2311

                     25                     26                     27
                      A                      A                      A
 Frequencies --   1087.0732              1106.9294              1153.0641
 Red. masses --      5.1143                 1.9964                 1.2256
 Frc consts  --      3.5609                 1.4412                 0.9601
 IR Inten    --     98.4783                 3.4760                 1.3115

                     28                     29                     30
                      A                      A                      A
 Frequencies --   1175.2890              1206.8256              1231.8241
 Red. masses --      1.8655                 2.2503                 1.4027
 Frc consts  --      1.5182                 1.9310                 1.2540
 IR Inten    --      5.8075                19.3961                 4.0187

                     31                     32                     33
                      A                      A                      A
 Frequencies --   1286.0676              1289.5253              1321.3229
 Red. masses --      1.5448                 1.3515                 1.6751
 Frc consts  --      1.5054                 1.3241                 1.7231
 IR Inten    --     12.7000                 0.8880                 7.4419

                     34                     35                     36
                      A                      A                      A
 Frequencies --   1346.5745              1361.7226              1409.3574
 Red. masses --      1.4678                 1.4790                 1.2473
 Frc consts  --      1.5681                 1.6158                 1.4597
 IR Inten    --     11.2358                 4.3894                 1.8640

                     37                     38                     39
                      A                      A                      A
 Frequencies --   1443.8012              1476.9560              1478.1837
 Red. masses --      3.6455                 1.0738                 1.1443
 Frc consts  --      4.4773                 1.3801                 1.4731
 IR Inten    --      2.1679                 1.2506                 2.3889

                     40                     41                     42
                      A                      A                      A
 Frequencies --   1495.6275              1509.4006              3026.8075
 Red. masses --      1.0410                 1.0957                 1.0611
 Frc consts  --      1.3720                 1.4707                 5.7274
 IR Inten    --      5.1485                 3.3455                24.8188

                     43                     44                     45
                      A                      A                      A
 Frequencies --   3043.0432              3062.2268              3075.2713
 Red. masses --      1.0358                 1.0998                 1.0573
 Frc consts  --      5.6514                 6.0762                 5.8915
 IR Inten    --     25.1317                12.9898                22.4738

                     46                     47                     48
                      A                      A                      A
 Frequencies --   3110.3393              3126.3564              3133.2470
 Red. masses --      1.1019                 1.1015                 1.1088
 Frc consts  --      6.2808                 6.3431                 6.4134
 IR Inten    --     34.4101                20.5975                14.3551

                     49                     50                     51
                      A                      A                      A
 Frequencies --   3177.3157              3217.4819              3231.2942
 Red. masses --      1.0934                 1.0921                 1.0964
 Frc consts  --      6.5036                 6.6609                 6.7448
 IR Inten    --     24.7768                 3.5722                 5.6860

 - Thermochemistry -
 -------------------
 Temperature   298.150 Kelvin.  Pressure   1.00000 Atm.
 Atom     1 has atomic number  6 and mass  12.00000

 Molecular mass:   126.06808 amu.
 Principal axes and moments of inertia in atomic units:
                           1         2         3
     Eigenvalues --   518.517991278.468291330.40172
           X            0.99971  -0.01661   0.01725
           Y            0.01584   0.99892   0.04362
           Z           -0.01796  -0.04334   0.99890
 This molecule is an asymmetric top.
 Rotational symmetry number  1.
 Warning -- assumption of classical behavior for rotation
           may cause significant error
 Rotational temperatures (Kelvin)      0.16704     0.06775     0.06510
 Rotational constants (GHZ):           3.48058     1.41164     1.35654
 Zero-point vibrational energy     422320.8 (Joules/Mol)
                                  100.93711 (Kcal/Mol)
 Warning -- explicit consideration of   9 degrees of freedom as
           vibrations may cause significant error
 Vibrational temperatures:    123.78   210.04   286.14   432.90   513.00
          (Kelvin)            638.86   826.84   863.48   881.01  1053.13
                             1067.99  1124.92  1197.25  1234.08  1265.38
                             1285.57  1334.68  1370.60  1400.14  1412.32
                             1457.92  1489.39  1492.08  1531.65  1564.05
                             1592.62  1659.00  1690.98  1736.35  1772.32
                             1850.36  1855.34  1901.09  1937.42  1959.21
                             2027.75  2077.31  2125.01  2126.77  2151.87
                             2171.69  4354.90  4378.25  4405.86  4424.62
                             4475.08  4498.12  4508.04  4571.44  4629.23
                             4649.11

 Zero-point correction=                           0.160854 (Hartree/Particle)
 Thermal correction to Energy=                    0.168225
 Thermal correction to Enthalpy=                  0.169169
 Thermal correction to Gibbs Free Energy=         0.128927
 Sum of electronic and zero-point Energies=           -423.024014
 Sum of electronic and thermal Energies=              -423.016643
 Sum of electronic and thermal Enthalpies=            -423.015699
 Sum of electronic and thermal Free Energies=         -423.055941

                     E (Thermal)             CV                S
                      KCal/Mol        Cal/Mol-Kelvin    Cal/Mol-Kelvin
 Total                  105.563             29.461             84.697
 Electronic               0.000              0.000              0.000
 Translational            0.889              2.981             40.409
 Rotational               0.889              2.981             28.269
 Vibrational            103.785             23.499             16.020
 Vibration     1          0.601              1.959              3.748
 Vibration     2          0.617              1.907              2.724
 Vibration     3          0.637              1.841              2.143
 Vibration     4          0.693              1.672              1.412
 Vibration     5          0.732              1.562              1.137
 Vibration     6          0.804              1.374              0.814
 Vibration     7          0.931              1.086              0.495
 Vibration     8          0.958              1.031              0.449
 Vibration     9          0.972              1.006              0.429

 Optimization completed.
    -- Stationary point found.
 Normal termination of Gaussian 09 at Tue Jan 28 12:24:16 2020.
