 Gaussian 09, Revision D.01,
 Gaussian 09:  ES64L-G09RevD.01 24-Apr-2013

 -----------------------------
 # b3lyp 6-31G(2df,p) opt Freq
 -----------------------------

 -----
 titel
 -----
 Symbolic Z-matrix:
 Charge =  0 Multiplicity = 1

 SCF Done:  E(RB3LYP) =  -423.215856946     A.U. after   14 cycles
 Optimization completed.
    -- Stationary point found.
 Normal termination of Gaussian 09 at Mon Jan 27 18:32:19 2020.

 ----------------------------------------------------------------------
 #N Geom=AllCheck Guess=TCheck SCRF=Check GenChk RB3LYP/6-31G(2df,p) Fr
 eq
 ----------------------------------------------------------------------

 Structure from the checkpoint file:  "/scratch/puck/g09_6c4ff954-8d96-47e2-85e8-e09ef79ec7e0/Gau-53396.chk"
 -----
 titel
 -----
 Charge =  0 Multiplicity = 1

                         Standard orientation:
 ---------------------------------------------------------------------
 Center     Atomic      Atomic             Coordinates (Angstroms)
 Number     Number       Type             X           Y           Z
 ---------------------------------------------------------------------
      1          6           0       -2.245482   -0.432379    0.034216
      2          6           0       -0.742552   -0.349331   -0.021100
      3          6           0       -0.012388   -1.016340   -1.206145
      4          6           0        1.423681   -0.378839   -1.148165
      5          6           0        1.355847    0.556716    0.086181
      6          6           0        1.168962   -0.323930    1.329942
      7          8           0       -0.165571   -0.873255    1.194266
      8          6           0       -0.090634    1.047304   -0.052832
      9          8           0       -0.566759    2.140288   -0.165201
     10          1           0       -2.620771    0.083537    0.921518
     11          1           0       -2.680250    0.042149   -0.849849
     12          1           0       -2.577307   -1.473963    0.071729
     13          1           0        0.002928   -2.100084   -1.067965
     14          1           0       -0.511555   -0.799187   -2.155338
     15          1           0        2.208929   -1.130725   -1.032834
     16          1           0        1.641362    0.191794   -2.054725
     17          1           0        2.126524    1.320824    0.160293
     18          1           0        1.895748   -1.144223    1.381683
     19          1           0        1.228421    0.254412    2.260384
 ---------------------------------------------------------------------

 SCF Done:  E(RB3LYP) =  -423.215856946     A.U. after    1 cycles

 The electronic state is 1-A.
 Alpha  occ. eigenvalues --  -19.14445 -19.14417 -10.26849 -10.24080 -10.23858
 Alpha  occ. eigenvalues --  -10.20164 -10.20026 -10.19212 -10.17894  -1.05887
 Alpha  occ. eigenvalues --   -1.03478  -0.83404  -0.78359  -0.71220  -0.66976
 Alpha  occ. eigenvalues --   -0.64417  -0.56363  -0.53628  -0.50199  -0.48499
 Alpha  occ. eigenvalues --   -0.46557  -0.44680  -0.42487  -0.40910  -0.39422
 Alpha  occ. eigenvalues --   -0.38823  -0.38136  -0.37220  -0.36895  -0.35954
 Alpha  occ. eigenvalues --   -0.34118  -0.32431  -0.27022  -0.22582
 Alpha virt. eigenvalues --   -0.01986   0.07929   0.09691   0.11068   0.13095
 Alpha virt. eigenvalues --    0.14268   0.15031   0.15839   0.16248   0.16342
 Alpha virt. eigenvalues --    0.17123   0.18026   0.20013   0.20818   0.21729

 Mulliken charges:
               1
     1  C   -0.471625
     2  C    0.304544
     3  C   -0.254296
     4  C   -0.234149
     5  C   -0.157756
     6  C   -0.077859
     7  O   -0.320661
     8  C    0.399676
     9  O   -0.326816
    10  H    0.134432
    11  H    0.127994
    12  H    0.124575
    13  H    0.114784
    14  H    0.109475
    15  H    0.109759
    16  H    0.113938
    17  H    0.090243
    18  H    0.102960
    19  H    0.110782
 Sum of Mulliken charges =   0.00000

 Dipole moment (field-independent basis, Debye):
    X=              1.5646    Y=             -1.5641    Z=             -0.8406  Tot=              2.3667
 Quadrupole moment (field-independent basis, Debye-Ang):
   XX=            -49.9638   YY=            -59.6785   ZZ=            -52.3543
   XY=              1.8594   XZ=              1.3751   YZ=              2.3183

  Exact polarizability:  80.649  -1.140  72.533   2.346   1.246  69.444
 Approx polarizability: 109.530  -5.802 115.417   3.364  -2.003 102.007

                      1                      2                      3
                      A                      A                      A
 Frequencies --    129.0932               143.5801               170.9022
 Red. masses --      2.7139                 2.1246                 1.2985
 Frc consts  --      0.0266                 0.0258                 0.0223
 IR Inten    --      3.8885                 0.5252                 0.7529

                      4                      5                      6
                      A                      A                      A
 Frequencies --    227.4586               301.7714               329.4032
 Red. masses --      3.1187                 2.2113                 2.5314
 Frc consts  --      0.0951                 0.1186                 0.1618
 IR Inten    --      3.5114                 2.0590                 1.1728

                      7                      8                      9
                      A                      A                      A
 Frequencies --    392.4172               492.6957               556.4798
 Red. masses --      3.0973                 3.2959                 5.6867
 Frc consts  --      0.2810                 0.4714                 1.0375
 IR Inten    --      1.4292                 5.2021                 1.0894

                     10                     11                     12
                      A                      A                      A
 Frequencies --    593.1632               669.7724               749.3511
 Red. masses --      4.2759                 4.4710                 2.8108
 Frc consts  --      0.8864                 1.1817                 0.9299
 IR Inten    --      2.9036                 1.4541                 5.3157

                     13                     14                     15
                      A                      A                      A
 Frequencies --    788.4111               827.2079               856.4551
 Red. masses --      3.1356                 3.4659                 1.7099
 Frc consts  --      1.1483                 1.3973                 0.7390
 IR Inten    --     11.5057                 2.6795                 2.4601

                     16                     17                     18
                      A                      A                      A
 Frequencies --    867.4839               888.8160               934.0464
 Red. masses --      2.7214                 2.2477                 2.6276
 Frc consts  --      1.2066                 1.0462                 1.3507
 IR Inten    --     11.2607                 1.0116                 4.3257

                     19                     20                     21
                      A                      A                      A
 Frequencies --    954.1744               978.6544              1022.9828
 Red. masses --      3.5872                 1.7004                 2.1074
 Frc consts  --      1.9243                 0.9596                 1.2994
 IR Inten    --     23.8079                 3.6206                 5.5859

                     22                     23                     24
                      A                      A                      A
 Frequencies --   1055.3763              1082.1041              1130.1970
 Red. masses --      1.5829                 2.6051                 1.4722
 Frc consts  --      1.0387                 1.7973                 1.1080
 IR Inten    --     19.7590                58.4701                 7.7256

                     25                     26                     27
                      A                      A                      A
 Frequencies --   1156.7126              1171.2460              1204.7803
 Red. masses --      1.8954                 1.6293                 1.5723
 Frc consts  --      1.4942                 1.3169                 1.3446
 IR Inten    --     18.4646                 9.1023                 7.3008

                     28                     29                     30
                      A                      A                      A
 Frequencies --   1221.0435              1256.0199              1265.1031
 Red. masses --      1.4808                 1.5780                 1.7489
 Frc consts  --      1.3008                 1.4667                 1.6492
 IR Inten    --      5.4767                 4.6310                 1.6523

                     31                     32                     33
                      A                      A                      A
 Frequencies --   1275.3912              1325.3297              1357.1473
 Red. masses --      1.3902                 1.3975                 2.2412
 Frc consts  --      1.3323                 1.4462                 2.4321
 IR Inten    --      4.9084                 1.1820                 3.5300

                     34                     35                     36
                      A                      A                      A
 Frequencies --   1379.2432              1416.8831              1472.8120
 Red. masses --      1.4032                 1.4453                 1.0837
 Frc consts  --      1.5728                 1.7095                 1.3850
 IR Inten    --      2.7648                 7.3663                 0.3118

                     37                     38                     39
                      A                      A                      A
 Frequencies --   1478.8638              1492.7557              1499.0867
 Red. masses --      1.0544                 1.0486                 1.0919
 Frc consts  --      1.3587                 1.3766                 1.4457
 IR Inten    --      4.2424                 2.6563                 2.0675

                     40                     41                     42
                      A                      A                      A
 Frequencies --   1533.4374              1889.0312              3011.6769
 Red. masses --      1.0927                12.5015                 1.0559
 Frc consts  --      1.5138                26.2839                 5.6429
 IR Inten    --      0.4750               223.5504                75.8533

                     43                     44                     45
                      A                      A                      A
 Frequencies --   3047.5890              3049.9167              3052.8640
 Red. masses --      1.0374                 1.1099                 1.0577
 Frc consts  --      5.6771                 6.0827                 5.8078
 IR Inten    --      6.3788                32.6715                36.3348

                     46                     47                     48
                      A                      A                      A
 Frequencies --   3062.4766              3095.3376              3115.0138
 Red. masses --      1.0603                 1.1066                 1.1057
 Frc consts  --      5.8588                 6.2468                 6.3214
 IR Inten    --     31.1877                 2.0594                19.0160

                     49                     50                     51
                      A                      A                      A
 Frequencies --   3120.8679              3128.4790              3146.3319
 Red. masses --      1.1018                 1.1016                 1.0894
 Frc consts  --      6.3228                 6.3526                 6.3542
 IR Inten    --     19.9273                13.6631                14.5549

 - Thermochemistry -
 -------------------
 Temperature   298.150 Kelvin.  Pressure   1.00000 Atm.
 Atom     1 has atomic number  6 and mass  12.00000

 Molecular mass:   126.06808 amu.
 Principal axes and moments of inertia in atomic units:
                           1         2         3
     Eigenvalues --   823.29097 969.354521098.06711
           X            0.99805   0.06070   0.01459
           Y           -0.06194   0.99197   0.11028
           Z           -0.00777  -0.11097   0.99379
 This molecule is an asymmetric top.
 Rotational symmetry number  1.
 Warning -- assumption of classical behavior for rotation
           may cause significant error
 Rotational temperatures (Kelvin)      0.10520     0.08935     0.07888
 Rotational constants (GHZ):           2.19211     1.86180     1.64356
 Zero-point vibrational energy     420890.7 (Joules/Mol)
                                  100.59530 (Kcal/Mol)
 Warning -- explicit consideration of  10 degrees of freedom as
           vibrations may cause significant error
 Vibrational temperatures:    185.74   206.58   245.89   327.26   434.18
          (Kelvin)            473.94   564.60   708.88   800.65   853.43
                              963.65  1078.15  1134.35  1190.17  1232.25
                             1248.11  1278.81  1343.88  1372.84  1408.06
                             1471.84  1518.45  1556.90  1626.10  1664.25
                             1685.16  1733.41  1756.81  1807.13  1820.20
                             1835.00  1906.85  1952.63  1984.42  2038.58
                             2119.05  2127.75  2147.74  2156.85  2206.27
                             2717.89  4333.13  4384.80  4388.14  4392.38
                             4406.22  4453.49  4481.80  4490.23  4501.18
                             4526.86

 Zero-point correction=                           0.160309 (Hartree/Particle)
 Thermal correction to Energy=                    0.168268
 Thermal correction to Enthalpy=                  0.169212
 Thermal correction to Gibbs Free Energy=         0.128092
 Sum of electronic and zero-point Energies=           -423.055548
 Sum of electronic and thermal Energies=              -423.047589
 Sum of electronic and thermal Enthalpies=            -423.046645
 Sum of electronic and thermal Free Energies=         -423.087765

                     E (Thermal)             CV                S
                      KCal/Mol        Cal/Mol-Kelvin    Cal/Mol-Kelvin
 Total                  105.590             30.945             86.544
 Electronic               0.000              0.000              0.000
 Translational            0.889              2.981             40.409
 Rotational               0.889              2.981             28.262
 Vibrational            103.812             24.983             17.873
 Vibration     1          0.612              1.924              2.960
 Vibration     2          0.616              1.910              2.756
 Vibration     3          0.626              1.878              2.426
 Vibration     4          0.651              1.799              1.899
 Vibration     5          0.694              1.670              1.407
 Vibration     6          0.712              1.617              1.263
 Vibration     7          0.760              1.486              0.991
 Vibration     8          0.848              1.266              0.677
 Vibration     9          0.912              1.126              0.531
 Vibration    10          0.951              1.046              0.462

 Optimization completed.
    -- Stationary point found.
 Normal termination of Gaussian 09 at Mon Jan 27 19:17:17 2020.
