 Gaussian 09, Revision D.01,
 Gaussian 09:  ES64L-G09RevD.01 24-Apr-2013

 -----------------------------
 # b3lyp 6-31G(2df,p) opt Freq
 -----------------------------

 -----
 titel
 -----
 Symbolic Z-matrix:
 Charge =  0 Multiplicity = 1

 SCF Done:  E(RB3LYP) =  -423.180921926     A.U. after   14 cycles
 Optimization completed.
    -- Stationary point found.
 Normal termination of Gaussian 09 at Tue Jan 28 02:23:12 2020.

 ----------------------------------------------------------------------
 #N Geom=AllCheck Guess=TCheck SCRF=Check GenChk RB3LYP/6-31G(2df,p) Fr
 eq
 ----------------------------------------------------------------------

 Structure from the checkpoint file:  "/scratch/puck/g09_2221872e-9b7e-4291-972e-38b34f936c1a/Gau-86228.chk"
 -----
 titel
 -----
 Charge =  0 Multiplicity = 1

                         Standard orientation:
 ---------------------------------------------------------------------
 Center     Atomic      Atomic             Coordinates (Angstroms)
 Number     Number       Type             X           Y           Z
 ---------------------------------------------------------------------
      1          6           0        1.586216    1.700217    0.397686
      2          6           0        0.620023    0.590661    0.050425
      3          6           0       -0.542268    0.912177   -0.958612
      4          6           0       -1.589508    0.498578    0.099012
      5          8           0       -2.561946   -0.389469   -0.404993
      6          6           0       -0.467343   -0.064923    1.008575
      7          6           0        0.022846   -1.482734    0.602128
      8          6           0        1.167064   -0.819358   -0.188083
      9          8           0        2.174839   -1.230656   -0.688256
     10          1           0        2.231819    1.421560    1.236857
     11          1           0        2.233921    1.919318   -0.458131
     12          1           0        1.057842    2.621617    0.665110
     13          1           0       -0.582325    1.956222   -1.276184
     14          1           0       -0.562439    0.277541   -1.847696
     15          1           0       -2.061341    1.376884    0.560673
     16          1           0       -3.184103   -0.594355    0.300924
     17          1           0       -0.509581    0.142392    2.078298
     18          1           0        0.379130   -2.113957    1.420792
     19          1           0       -0.688247   -2.053935   -0.001442
 ---------------------------------------------------------------------

 SCF Done:  E(RB3LYP) =  -423.180921926     A.U. after    1 cycles

 The electronic state is 1-A.
 Alpha  occ. eigenvalues --  -19.14742 -19.13042 -10.26100 -10.24066 -10.19988
 Alpha  occ. eigenvalues --  -10.19279 -10.19108 -10.18713 -10.18304  -1.03931
 Alpha  occ. eigenvalues --   -1.02947  -0.87695  -0.75053  -0.73280  -0.65226
 Alpha  occ. eigenvalues --   -0.62099  -0.57237  -0.51858  -0.50126  -0.48095
 Alpha  occ. eigenvalues --   -0.46167  -0.44743  -0.42525  -0.41064  -0.39825
 Alpha  occ. eigenvalues --   -0.39780  -0.38864  -0.36177  -0.34336  -0.33001
 Alpha  occ. eigenvalues --   -0.31618  -0.29250  -0.26884  -0.23362
 Alpha virt. eigenvalues --   -0.01261   0.06422   0.08812   0.10526   0.11194
 Alpha virt. eigenvalues --    0.12731   0.14143   0.15008   0.15352   0.16766
 Alpha virt. eigenvalues --    0.18022   0.18587   0.19410   0.20133   0.22667

 Mulliken charges:
               1
     1  C   -0.497347
     2  C    0.224862
     3  C   -0.307574
     4  C    0.143780
     5  O   -0.425030
     6  C   -0.140200
     7  C   -0.366745
     8  C    0.374316
     9  O   -0.310274
    10  H    0.123231
    11  H    0.137581
    12  H    0.115161
    13  H    0.112449
    14  H    0.124195
    15  H    0.071061
    16  H    0.284415
    17  H    0.067555
    18  H    0.128029
    19  H    0.140535
 Sum of Mulliken charges =   0.00000

 Dipole moment (field-independent basis, Debye):
    X=             -2.4644    Y=              1.5594    Z=              2.3363  Tot=              3.7368
 Quadrupole moment (field-independent basis, Debye-Ang):
   XX=            -56.7604   YY=            -52.8465   ZZ=            -52.5984
   XY=              3.8884   XZ=             -1.3113   YZ=             -2.5928

  Exact polarizability:  83.444   0.450  77.374  -3.208  -2.050  66.425
 Approx polarizability: 120.017  -3.202 109.480  -8.370  -0.405 103.548

                      1                      2                      3
                      A                      A                      A
 Frequencies --     65.9327               140.9975               183.4715
 Red. masses --      4.8981                 2.8077                 1.1185
 Frc consts  --      0.0125                 0.0329                 0.0222
 IR Inten    --      1.7727                 2.7505                 0.5098

                      4                      5                      6
                      A                      A                      A
 Frequencies --    232.2137               255.2509               270.1534
 Red. masses --      2.8316                 2.6444                 2.8286
 Frc consts  --      0.0900                 0.1015                 0.1216
 IR Inten    --      0.5761                 2.5883                 5.1095

                      7                      8                      9
                      A                      A                      A
 Frequencies --    301.4522               400.6961               432.8002
 Red. masses --      1.1620                 3.2814                 2.9707
 Frc consts  --      0.0622                 0.3104                 0.3279
 IR Inten    --    114.8735                11.3921                 0.2205

                     10                     11                     12
                      A                      A                      A
 Frequencies --    494.5081               570.4584               586.0907
 Red. masses --      2.3343                 2.7792                 3.2779
 Frc consts  --      0.3363                 0.5329                 0.6634
 IR Inten    --      0.7544                 3.4856                 0.2860

                     13                     14                     15
                      A                      A                      A
 Frequencies --    661.4618               751.6083               770.8243
 Red. masses --      3.4767                 3.1306                 2.4015
 Frc consts  --      0.8962                 1.0420                 0.8407
 IR Inten    --      0.9980                 0.7393                 1.0724

                     16                     17                     18
                      A                      A                      A
 Frequencies --    830.7109               866.9534               914.4765
 Red. masses --      2.5004                 2.0885                 1.8619
 Frc consts  --      1.0166                 0.9249                 0.9174
 IR Inten    --      2.8702                 2.6797                 2.3810

                     19                     20                     21
                      A                      A                      A
 Frequencies --    946.8763               986.4252              1025.1134
 Red. masses --      3.0112                 2.3911                 2.5808
 Frc consts  --      1.5907                 1.3708                 1.5979
 IR Inten    --      1.9904                16.3459                50.2063

                     22                     23                     24
                      A                      A                      A
 Frequencies --   1033.3102              1042.8725              1103.1520
 Red. masses --      1.3000                 2.3687                 1.8042
 Frc consts  --      0.8178                 1.5178                 1.2936
 IR Inten    --     12.3742                25.2646                47.3471

                     25                     26                     27
                      A                      A                      A
 Frequencies --   1114.9720              1141.4374              1173.5624
 Red. masses --      2.1066                 1.6180                 1.7991
 Frc consts  --      1.5430                 1.2421                 1.4599
 IR Inten    --     28.6960                 2.0609                 6.7834

                     28                     29                     30
                      A                      A                      A
 Frequencies --   1190.5623              1222.4909              1241.1103
 Red. masses --      2.3458                 1.6764                 1.4774
 Frc consts  --      1.9590                 1.4761                 1.3408
 IR Inten    --      4.0640                 2.9147                 1.2166

                     31                     32                     33
                      A                      A                      A
 Frequencies --   1252.0985              1290.0530              1324.4911
 Red. masses --      1.2472                 1.6901                 2.8331
 Frc consts  --      1.1520                 1.6572                 2.9283
 IR Inten    --     48.5332                23.4162                 4.5999

                     34                     35                     36
                      A                      A                      A
 Frequencies --   1336.1456              1408.4778              1421.7731
 Red. masses --      1.4480                 1.2484                 1.4155
 Frc consts  --      1.5231                 1.4591                 1.6859
 IR Inten    --     23.6726                 0.7808                 6.0631

                     37                     38                     39
                      A                      A                      A
 Frequencies --   1436.4698              1482.7358              1488.2985
 Red. masses --      1.1101                 1.1033                 1.0518
 Frc consts  --      1.3496                 1.4292                 1.3726
 IR Inten    --      9.1180                 6.6597                 4.3304

                     40                     41                     42
                      A                      A                      A
 Frequencies --   1491.1291              1879.6167              2999.8638
 Red. masses --      1.0532                12.7001                 1.0855
 Frc consts  --      1.3798                26.4359                 5.7554
 IR Inten    --      2.6020               283.1586                47.9915

                     43                     44                     45
                      A                      A                      A
 Frequencies --   3028.8648              3062.2079              3067.9706
 Red. masses --      1.0350                 1.0584                 1.0587
 Frc consts  --      5.5943                 5.8475                 5.8714
 IR Inten    --     25.0081                10.9322                20.6756

                     46                     47                     48
                      A                      A                      A
 Frequencies --   3097.0112              3100.4214              3103.0253
 Red. masses --      1.1013                 1.1010                 1.0914
 Frc consts  --      6.2237                 6.2357                 6.1914
 IR Inten    --     16.5301                14.2454                25.8534

                     49                     50                     51
                      A                      A                      A
 Frequencies --   3118.2004              3123.1143              3811.1469
 Red. masses --      1.1037                 1.1081                 1.0661
 Frc consts  --      6.3226                 6.3679                 9.1231
 IR Inten    --     10.4918                14.1777                25.2674

 - Thermochemistry -
 -------------------
 Temperature   298.150 Kelvin.  Pressure   1.00000 Atm.
 Atom     1 has atomic number  6 and mass  12.00000

 Molecular mass:   126.06808 amu.
 Principal axes and moments of inertia in atomic units:
                           1         2         3
     Eigenvalues --   693.702501250.342271556.91190
           X            0.99852   0.05416   0.00544
           Y           -0.05400   0.99818  -0.02694
           Z           -0.00689   0.02661   0.99962
 This molecule is an asymmetric top.
 Rotational symmetry number  1.
 Warning -- assumption of classical behavior for rotation
           may cause significant error
 Rotational temperatures (Kelvin)      0.12486     0.06927     0.05563
 Rotational constants (GHZ):           2.60161     1.44340     1.15918
 Zero-point vibrational energy     414356.9 (Joules/Mol)
                                   99.03367 (Kcal/Mol)
 Warning -- explicit consideration of  12 degrees of freedom as
           vibrations may cause significant error
 Vibrational temperatures:     94.86   202.86   263.97   334.10   367.25
          (Kelvin)            388.69   433.72   576.51   622.70   711.49
                              820.76   843.25   951.69  1081.40  1109.04
                             1195.21  1247.35  1315.73  1362.34  1419.24
                             1474.91  1486.70  1500.46  1587.19  1604.19
                             1642.27  1688.49  1712.95  1758.89  1785.68
                             1801.49  1856.10  1905.64  1922.41  2026.48
                             2045.61  2066.76  2133.32  2141.33  2145.40
                             2704.35  4316.13  4357.86  4405.83  4414.12
                             4455.90  4460.81  4464.56  4486.39  4493.46
                             5483.38

 Zero-point correction=                           0.157820 (Hartree/Particle)
 Thermal correction to Energy=                    0.166620
 Thermal correction to Enthalpy=                  0.167564
 Thermal correction to Gibbs Free Energy=         0.124431
 Sum of electronic and zero-point Energies=           -423.023102
 Sum of electronic and thermal Energies=              -423.014302
 Sum of electronic and thermal Enthalpies=            -423.013358
 Sum of electronic and thermal Free Energies=         -423.056490

                     E (Thermal)             CV                S
                      KCal/Mol        Cal/Mol-Kelvin    Cal/Mol-Kelvin
 Total                  104.555             33.500             90.780
 Electronic               0.000              0.000              0.000
 Translational            0.889              2.981             40.409
 Rotational               0.889              2.981             28.692
 Vibrational            102.778             27.539             21.679
 Vibration     1          0.597              1.971              4.271
 Vibration     2          0.615              1.912              2.790
 Vibration     3          0.631              1.862              2.293
 Vibration     4          0.653              1.792              1.862
 Vibration     5          0.666              1.754              1.694
 Vibration     6          0.674              1.728              1.595
 Vibration     7          0.693              1.671              1.409
 Vibration     8          0.767              1.469              0.960
 Vibration     9          0.794              1.399              0.850
 Vibration    10          0.850              1.262              0.672
 Vibration    11          0.927              1.095              0.503
 Vibration    12          0.943              1.061              0.474

 Normal termination of Gaussian 09 at Tue Jan 28 03:07:18 2020.
