 Gaussian 09, Revision D.01,
 Gaussian 09:  ES64L-G09RevD.01 24-Apr-2013

 -----------------------------
 # b3lyp 6-31G(2df,p) opt Freq
 -----------------------------

 -----
 titel
 -----
 Symbolic Z-matrix:
 Charge =  0 Multiplicity = 1

 SCF Done:  E(RB3LYP) =  -423.097866454     A.U. after   13 cycles
 Optimization completed.
    -- Stationary point found.
 Normal termination of Gaussian 09 at Tue Jan 28 14:02:42 2020.

 ----------------------------------------------------------------------
 #N Geom=AllCheck Guess=TCheck SCRF=Check GenChk RB3LYP/6-31G(2df,p) Fr
 eq
 ----------------------------------------------------------------------

 Structure from the checkpoint file:  "/scratch/puck/g09_2ad6280a-4ff1-427a-9419-945ce01bc0ae/Gau-15455.chk"
 -----
 titel
 -----
 Charge =  0 Multiplicity = 1

                         Standard orientation:
 ---------------------------------------------------------------------
 Center     Atomic      Atomic             Coordinates (Angstroms)
 Number     Number       Type             X           Y           Z
 ---------------------------------------------------------------------
      1          8           0       -2.632583   -0.026938   -0.676300
      2          6           0       -1.897458   -0.841787    0.251920
      3          6           0       -0.440514   -0.757587   -0.137097
      4          6           0        0.530795   -0.546218    1.017368
      5          6           0        2.012188   -0.404241    0.564534
      6          6           0        2.242387   -0.511628   -0.921832
      7          6           0        1.637050    0.744263   -0.352469
      8          6           0        0.152335    0.603105    0.091882
      9          8           0       -0.627138    1.723076    0.293244
     10          1           0       -3.561922   -0.045889   -0.425999
     11          1           0       -2.041157   -0.470287    1.275572
     12          1           0       -2.250020   -1.881470    0.213472
     13          1           0       -0.187529   -1.364439   -1.001532
     14          1           0        0.244483   -0.762195    2.039284
     15          1           0        2.828491   -0.446225    1.273909
     16          1           0        3.283073   -0.406557   -1.217175
     17          1           0        1.690861   -1.196661   -1.555949
     18          1           0        2.104672    1.716921   -0.433679
     19          1           0       -1.453886    1.572258   -0.189290
 ---------------------------------------------------------------------

 SCF Done:  E(RB3LYP) =  -423.097866454     A.U. after    1 cycles

 The electronic state is 1-A.
 Alpha  occ. eigenvalues --  -19.15301 -19.13098 -10.23835 -10.23384 -10.18918
 Alpha  occ. eigenvalues --  -10.18786 -10.18521 -10.18482 -10.18211  -1.03357
 Alpha  occ. eigenvalues --   -1.01585  -0.90504  -0.80349  -0.70274  -0.62390
 Alpha  occ. eigenvalues --   -0.61646  -0.55502  -0.52976  -0.51835  -0.51176
 Alpha  occ. eigenvalues --   -0.50124  -0.45273  -0.43605  -0.40619  -0.39988
 Alpha  occ. eigenvalues --   -0.37409  -0.35690  -0.34951  -0.33775  -0.30285
 Alpha  occ. eigenvalues --   -0.28731  -0.27421  -0.26231  -0.19799
 Alpha virt. eigenvalues --    0.05403   0.09534   0.09673   0.11042   0.12207
 Alpha virt. eigenvalues --    0.14345   0.14879   0.15732   0.16478   0.17425
 Alpha virt. eigenvalues --    0.19273   0.20170   0.21718   0.22604   0.23336

 Mulliken charges:
               1
     1  O   -0.422750
     2  C   -0.146305
     3  C   -0.100615
     4  C   -0.167998
     5  C   -0.059275
     6  C   -0.307607
     7  C   -0.116843
     8  C    0.430563
     9  O   -0.476933
    10  H    0.292729
    11  H    0.103809
    12  H    0.101022
    13  H    0.082409
    14  H    0.087568
    15  H    0.090129
    16  H    0.109596
    17  H    0.114480
    18  H    0.094917
    19  H    0.291103
 Sum of Mulliken charges =   0.00000

 Dipole moment (field-independent basis, Debye):
    X=             -1.4344    Y=             -1.5749    Z=              0.3574  Tot=              2.1600
 Quadrupole moment (field-independent basis, Debye-Ang):
   XX=            -41.6177   YY=            -56.1816   ZZ=            -53.9403
   XY=              1.7780   XZ=             -1.5317   YZ=             -1.1662

  Exact polarizability:  91.287   0.592  67.930  -1.248  -1.014  65.626
 Approx polarizability: 115.945  -2.115 108.379   2.043  -2.993 104.654

                      1                      2                      3
                      A                      A                      A
 Frequencies --    120.5117               173.6110               218.5616
 Red. masses --      3.9042                 4.5862                 2.9304
 Frc consts  --      0.0334                 0.0814                 0.0825
 IR Inten    --      4.6419                 3.6397                 2.5501

                      4                      5                      6
                      A                      A                      A
 Frequencies --    255.7766               327.5170               356.6725
 Red. masses --      2.9443                 1.7045                 2.6603
 Frc consts  --      0.1135                 0.1077                 0.1994
 IR Inten    --     14.6945                47.0617                25.0408

                      7                      8                      9
                      A                      A                      A
 Frequencies --    377.0283               426.4524               462.2733
 Red. masses --      2.1895                 3.1543                 3.0702
 Frc consts  --      0.1834                 0.3380                 0.3866
 IR Inten    --     30.7387                 7.4222                 0.1024

                     10                     11                     12
                      A                      A                      A
 Frequencies --    527.5629               564.0194               686.1330
 Red. masses --      1.0903                 2.9017                 4.1459
 Frc consts  --      0.1788                 0.5439                 1.1500
 IR Inten    --     70.2044                 6.2546                 2.6281

                     13                     14                     15
                      A                      A                      A
 Frequencies --    706.9003               761.3118               818.9592
 Red. masses --      2.5762                 1.5176                 3.1060
 Frc consts  --      0.7585                 0.5182                 1.2274
 IR Inten    --     10.2525                15.0420                 2.2971

                     16                     17                     18
                      A                      A                      A
 Frequencies --    854.5036               882.5674               912.9368
 Red. masses --      2.1803                 1.8119                 1.6463
 Frc consts  --      0.9380                 0.8315                 0.8084
 IR Inten    --      9.8241                 5.7413                 3.8189

                     19                     20                     21
                      A                      A                      A
 Frequencies --    933.2329               965.8920               990.6799
 Red. masses --      2.8253                 1.8701                 1.6871
 Frc consts  --      1.4497                 1.0279                 0.9756
 IR Inten    --      2.8619                 4.2141                 3.6691

                     22                     23                     24
                      A                      A                      A
 Frequencies --   1020.5698              1033.5784              1051.7448
 Red. masses --      3.3009                 1.9583                 1.3511
 Frc consts  --      2.0256                 1.2326                 0.8806
 IR Inten    --     71.5680                 1.0823                 5.6551

                     25                     26                     27
                      A                      A                      A
 Frequencies --   1064.4974              1077.5956              1095.1998
 Red. masses --      1.4509                 1.7079                 1.6147
 Frc consts  --      0.9687                 1.1685                 1.1411
 IR Inten    --      2.6744                 1.7756                 2.0285

                     28                     29                     30
                      A                      A                      A
 Frequencies --   1116.4076              1152.7854              1180.5978
 Red. masses --      2.1444                 1.7996                 1.8028
 Frc consts  --      1.5747                 1.4091                 1.4805
 IR Inten    --     20.4821                58.5188                 3.1516

                     31                     32                     33
                      A                      A                      A
 Frequencies --   1230.4989              1244.6580              1258.7623
 Red. masses --      1.5064                 1.1574                 1.7856
 Frc consts  --      1.3439                 1.0564                 1.6669
 IR Inten    --     17.8515                20.0425                 7.8524

                     34                     35                     36
                      A                      A                      A
 Frequencies --   1275.3223              1306.0685              1342.0440
 Red. masses --      1.3138                 2.1291                 1.7150
 Frc consts  --      1.2590                 2.1399                 1.8199
 IR Inten    --     11.1998                89.5029                41.1728

                     37                     38                     39
                      A                      A                      A
 Frequencies --   1416.0637              1445.0001              1458.8902
 Red. masses --      1.4636                 2.9733                 1.5371
 Frc consts  --      1.7292                 3.6578                 1.9275
 IR Inten    --     40.9062                28.1096                32.1634

                     40                     41                     42
                      A                      A                      A
 Frequencies --   1495.3540              1516.6253              2999.7564
 Red. masses --      1.1994                 1.0866                 1.0555
 Frc consts  --      1.5801                 1.4725                 5.5963
 IR Inten    --      1.6281                 1.7157                50.8885

                     43                     44                     45
                      A                      A                      A
 Frequencies --   3037.1788              3120.4615              3140.3839
 Red. masses --      1.1076                 1.0611                 1.0819
 Frc consts  --      6.0198                 6.0873                 6.2862
 IR Inten    --     34.4835                 7.4461                32.7655

                     46                     47                     48
                      A                      A                      A
 Frequencies --   3182.4463              3192.1625              3196.3935
 Red. masses --      1.0908                 1.0909                 1.1078
 Frc consts  --      6.5088                 6.5494                 6.6685
 IR Inten    --      7.6975                19.8760                 0.9519

                     49                     50                     51
                      A                      A                      A
 Frequencies --   3205.7392              3704.8089              3818.7730
 Red. masses --      1.1014                 1.0660                 1.0662
 Frc consts  --      6.6691                 8.6203                 9.1611
 IR Inten    --     26.4259               145.1656                22.8377

 - Thermochemistry -
 -------------------
 Temperature   298.150 Kelvin.  Pressure   1.00000 Atm.
 Atom     1 has atomic number  8 and mass  15.99491

 Molecular mass:   126.06808 amu.
 Principal axes and moments of inertia in atomic units:
                           1         2         3
     Eigenvalues --   523.245281459.112581621.62768
           X            0.99986   0.00783  -0.01469
           Y           -0.00797   0.99992  -0.00984
           Z            0.01461   0.00995   0.99984
 This molecule is an asymmetric top.
 Rotational symmetry number  1.
 Warning -- assumption of classical behavior for rotation
           may cause significant error
 Rotational temperatures (Kelvin)      0.16553     0.05936     0.05341
 Rotational constants (GHZ):           3.44913     1.23688     1.11292
 Zero-point vibrational energy     416919.3 (Joules/Mol)
                                   99.64611 (Kcal/Mol)
 Warning -- explicit consideration of  11 degrees of freedom as
           vibrations may cause significant error
 Vibrational temperatures:    173.39   249.79   314.46   368.00   471.22
          (Kelvin)            513.17   542.46   613.57   665.11   759.04
                              811.50   987.19  1017.07  1095.36  1178.30
                             1229.44  1269.82  1313.51  1342.71  1389.70
                             1425.37  1468.37  1487.09  1513.22  1531.57
                             1550.42  1575.75  1606.26  1658.60  1698.61
                             1770.41  1790.78  1811.08  1834.90  1879.14
                             1930.90  2037.40  2079.03  2099.01  2151.48
                             2182.08  4315.97  4369.82  4489.64  4518.31
                             4578.82  4592.80  4598.89  4612.34  5330.39
                             5494.36

 Zero-point correction=                           0.158796 (Hartree/Particle)
 Thermal correction to Energy=                    0.166971
 Thermal correction to Enthalpy=                  0.167915
 Thermal correction to Gibbs Free Energy=         0.126557
 Sum of electronic and zero-point Energies=           -422.939070
 Sum of electronic and thermal Energies=              -422.930896
 Sum of electronic and thermal Enthalpies=            -422.929951
 Sum of electronic and thermal Free Energies=         -422.971310

                     E (Thermal)             CV                S
                      KCal/Mol        Cal/Mol-Kelvin    Cal/Mol-Kelvin
 Total                  104.776             32.951             87.046
 Electronic               0.000              0.000              0.000
 Translational            0.889              2.981             40.409
 Rotational               0.889              2.981             28.606
 Vibrational            102.998             26.990             18.031
 Vibration     1          0.609              1.932              3.092
 Vibration     2          0.627              1.875              2.396
 Vibration     3          0.646              1.813              1.971
 Vibration     4          0.666              1.753              1.690
 Vibration     5          0.711              1.621              1.272
 Vibration     6          0.732              1.562              1.137
 Vibration     7          0.748              1.519              1.051
 Vibration     8          0.788              1.413              0.870
 Vibration     9          0.820              1.334              0.760
 Vibration    10          0.883              1.189              0.593
 Vibration    11          0.920              1.109              0.516

 Normal termination of Gaussian 09 at Tue Jan 28 15:29:28 2020.
