 Gaussian 09, Revision D.01,
 Gaussian 09:  ES64L-G09RevD.01 24-Apr-2013

 -----------------------------
 # b3lyp 6-31G(2df,p) opt Freq
 -----------------------------

 -----
 titel
 -----
 Symbolic Z-matrix:
 Charge =  0 Multiplicity = 1

 SCF Done:  E(RB3LYP) =  -423.155078638     A.U. after   13 cycles
 Optimization completed.
    -- Stationary point found.
 Normal termination of Gaussian 09 at Mon Jan 27 18:09:31 2020.

 ----------------------------------------------------------------------
 #N Geom=AllCheck Guess=TCheck SCRF=Check GenChk RB3LYP/6-31G(2df,p) Fr
 eq
 ----------------------------------------------------------------------

 Structure from the checkpoint file:  "/scratch/puck/g09_8a15b2b6-bd3b-4e85-9f9a-d92f235e7cc7/Gau-181742.chk"
 -----
 titel
 -----
 Charge =  0 Multiplicity = 1

                         Standard orientation:
 ---------------------------------------------------------------------
 Center     Atomic      Atomic             Coordinates (Angstroms)
 Number     Number       Type             X           Y           Z
 ---------------------------------------------------------------------
      1          8           0       -1.927950   -0.413874   -0.784927
      2          6           0       -0.694523   -0.510536   -0.132293
      3          6           0       -0.556853   -0.646724    1.408686
      4          6           0        0.770914    0.087277    1.161611
      5          6           0        1.552803   -0.608176   -0.041891
      6          6           0        1.425319    0.719654   -0.845916
      7          6           0        0.126727    0.847239   -0.044120
      8          8           0       -0.640239    1.993358    0.061611
      9          6           0        0.408540   -1.452921   -0.648908
     10          1           0       -2.540171   -1.048161   -0.399128
     11          1           0       -1.257040    0.005305    1.937553
     12          1           0       -0.563724   -1.651961    1.842403
     13          1           0        1.355101    0.574691    1.939107
     14          1           0        2.519778   -1.081656    0.114220
     15          1           0        2.150331    1.474555   -0.528418
     16          1           0        1.397603    0.660386   -1.939129
     17          1           0       -1.497044    1.788130   -0.337110
     18          1           0        0.455596   -1.504652   -1.739948
     19          1           0        0.327519   -2.467377   -0.246035
 ---------------------------------------------------------------------

 SCF Done:  E(RB3LYP) =  -423.155078638     A.U. after    1 cycles

 The electronic state is 1-A.
 Alpha  occ. eigenvalues --  -19.15399 -19.13537 -10.23807 -10.22849 -10.19260
 Alpha  occ. eigenvalues --  -10.18439 -10.18062 -10.17821 -10.17318  -1.04263
 Alpha  occ. eigenvalues --   -1.01702  -0.90242  -0.74984  -0.71155  -0.65002
 Alpha  occ. eigenvalues --   -0.60797  -0.57068  -0.53655  -0.52641  -0.48514
 Alpha  occ. eigenvalues --   -0.46673  -0.44229  -0.43069  -0.41006  -0.38454
 Alpha  occ. eigenvalues --   -0.36709  -0.35665  -0.34798  -0.33901  -0.31484
 Alpha  occ. eigenvalues --   -0.30612  -0.28306  -0.25971  -0.24092
 Alpha virt. eigenvalues --    0.06336   0.10729   0.11416   0.12237   0.12770
 Alpha virt. eigenvalues --    0.14400   0.14915   0.15397   0.16692   0.17425
 Alpha virt. eigenvalues --    0.18969   0.19181   0.20904   0.21459   0.22675

 Mulliken charges:
               1
     1  O   -0.500836
     2  C    0.320111
     3  C   -0.320463
     4  C   -0.085278
     5  C   -0.047084
     6  C   -0.304016
     7  C    0.420034
     8  O   -0.500489
     9  C   -0.266642
    10  H    0.287527
    11  H    0.106559
    12  H    0.084806
    13  H    0.075328
    14  H    0.068105
    15  H    0.100776
    16  H    0.088991
    17  H    0.287885
    18  H    0.099710
    19  H    0.084976
 Sum of Mulliken charges =   0.00000

 Dipole moment (field-independent basis, Debye):
    X=             -0.6322    Y=             -2.0654    Z=              0.4063  Tot=              2.1978
 Quadrupole moment (field-independent basis, Debye-Ang):
   XX=            -48.1150   YY=            -55.3512   ZZ=            -54.1082
   XY=              2.1060   XZ=             -0.8885   YZ=             -0.9419

  Exact polarizability:  77.753   1.731  73.227  -2.190  -1.055  70.704
 Approx polarizability: 112.693   0.689 109.327   0.435  -1.726 106.361

                      1                      2                      3
                      A                      A                      A
 Frequencies --    144.9051               213.7223               235.0202
 Red. masses --      1.0978                 4.8768                 4.4800
 Frc consts  --      0.0136                 0.1312                 0.1458
 IR Inten    --     67.0269                14.5328                 0.5021

                      4                      5                      6
                      A                      A                      A
 Frequencies --    343.2033               375.8684               398.2562
 Red. masses --      2.8779                 1.3526                 2.4790
 Frc consts  --      0.1997                 0.1126                 0.2317
 IR Inten    --     14.6397                45.8129                 3.7027

                      7                      8                      9
                      A                      A                      A
 Frequencies --    458.5472               470.4011               513.3979
 Red. masses --      1.8515                 1.8784                 2.6985
 Frc consts  --      0.2294                 0.2449                 0.4191
 IR Inten    --      8.4944                 4.1785                16.6391

                     10                     11                     12
                      A                      A                      A
 Frequencies --    585.6535               642.8531               687.5484
 Red. masses --      4.4991                 3.9156                 4.2001
 Frc consts  --      0.9092                 0.9534                 1.1698
 IR Inten    --      3.2454                 3.1919                 2.6866

                     13                     14                     15
                      A                      A                      A
 Frequencies --    715.5617               806.2047               855.8972
 Red. masses --      3.3751                 2.9747                 2.9335
 Frc consts  --      1.0182                 1.1392                 1.2661
 IR Inten    --     10.0995                 2.6753                 4.5732

                     16                     17                     18
                      A                      A                      A
 Frequencies --    877.2357               902.0060               927.4806
 Red. masses --      2.4117                 2.1370                 1.9400
 Frc consts  --      1.0935                 1.0244                 0.9833
 IR Inten    --      5.7935                 0.3782                 3.2572

                     19                     20                     21
                      A                      A                      A
 Frequencies --    960.1426               967.9415               988.8766
 Red. masses --      1.8160                 1.9341                 1.2461
 Frc consts  --      0.9864                 1.0676                 0.7179
 IR Inten    --      2.7378                 1.5510                 4.8419

                     22                     23                     24
                      A                      A                      A
 Frequencies --   1030.7124              1056.5377              1091.8996
 Red. masses --      1.3472                 1.6643                 1.6302
 Frc consts  --      0.8432                 1.0946                 1.1451
 IR Inten    --      6.7179                 7.5869                32.3972

                     25                     26                     27
                      A                      A                      A
 Frequencies --   1109.1635              1119.4405              1129.0183
 Red. masses --      2.0325                 1.7520                 1.5391
 Frc consts  --      1.4732                 1.2935                 1.1559
 IR Inten    --     13.8489                30.7399                19.9514

                     28                     29                     30
                      A                      A                      A
 Frequencies --   1161.9182              1191.7693              1209.4976
 Red. masses --      1.8612                 1.6995                 1.6070
 Frc consts  --      1.4804                 1.4222                 1.3851
 IR Inten    --      3.3851                12.8573                14.6334

                     31                     32                     33
                      A                      A                      A
 Frequencies --   1229.1512              1250.2385              1263.2332
 Red. masses --      1.5920                 1.7707                 2.2417
 Frc consts  --      1.4171                 1.6307                 2.1077
 IR Inten    --      4.3604                10.5516                50.4506

                     34                     35                     36
                      A                      A                      A
 Frequencies --   1281.5881              1305.4478              1324.2963
 Red. masses --      1.8612                 1.9371                 2.1937
 Frc consts  --      1.8011                 1.9450                 2.2667
 IR Inten    --     86.3104                89.7512                90.5699

                     37                     38                     39
                      A                      A                      A
 Frequencies --   1361.5848              1396.5021              1483.9021
 Red. masses --      2.1454                 1.6733                 1.1221
 Frc consts  --      2.3434                 1.9227                 1.4557
 IR Inten    --     27.3318                10.8902                 2.2549

                     40                     41                     42
                      A                      A                      A
 Frequencies --   1497.1763              1518.1412              3041.1301
 Red. masses --      1.1486                 1.1406                 1.0584
 Frc consts  --      1.5170                 1.5488                 5.7675
 IR Inten    --      1.3888                 6.2611                44.0591

                     43                     44                     45
                      A                      A                      A
 Frequencies --   3042.1197              3049.6668              3099.1527
 Red. masses --      1.0589                 1.0590                 1.1056
 Frc consts  --      5.7737                 5.8029                 6.2567
 IR Inten    --     38.4045                38.4341                15.2316

                     46                     47                     48
                      A                      A                      A
 Frequencies --   3104.3245              3110.1645              3132.9461
 Red. masses --      1.1065                 1.1063                 1.0902
 Frc consts  --      6.2823                 6.3053                 6.3048
 IR Inten    --     34.2788                22.9878                27.0390

                     49                     50                     51
                      A                      A                      A
 Frequencies --   3143.6235              3747.6326              3823.1482
 Red. masses --      1.0914                 1.0657                 1.0663
 Frc consts  --      6.3549                 8.8186                 9.1825
 IR Inten    --     38.6022                48.1915                35.8725

 - Thermochemistry -
 -------------------
 Temperature   298.150 Kelvin.  Pressure   1.00000 Atm.
 Atom     1 has atomic number  8 and mass  15.99491

 Molecular mass:   126.06808 amu.
 Principal axes and moments of inertia in atomic units:
                           1         2         3
     Eigenvalues --   788.19698 879.630251081.55959
           X            0.99742   0.05535  -0.04562
           Y           -0.05631   0.99821  -0.02003
           Z            0.04443   0.02255   0.99876
 This molecule is an asymmetric top.
 Rotational symmetry number  1.
 Warning -- assumption of classical behavior for rotation
           may cause significant error
 Rotational temperatures (Kelvin)      0.10989     0.09847     0.08008
 Rotational constants (GHZ):           2.28971     2.05170     1.66865
 Zero-point vibrational energy     420941.1 (Joules/Mol)
                                  100.60733 (Kcal/Mol)
 Warning -- explicit consideration of  10 degrees of freedom as
           vibrations may cause significant error
 Vibrational temperatures:    208.49   307.50   338.14   493.79   540.79
          (Kelvin)            573.00   659.75   676.80   738.66   842.62
                              924.92   989.23  1029.53  1159.95  1231.44
                             1262.14  1297.78  1334.44  1381.43  1392.65
                             1422.77  1482.96  1520.12  1571.00  1595.84
                             1610.62  1624.40  1671.74  1714.69  1740.20
                             1768.47  1798.81  1817.51  1843.92  1878.25
                             1905.36  1959.01  2009.25  2135.00  2154.10
                             2184.26  4375.50  4376.93  4387.78  4458.98
                             4466.42  4474.83  4507.60  4522.97  5392.00
                             5500.65

 Zero-point correction=                           0.160328 (Hartree/Particle)
 Thermal correction to Energy=                    0.167863
 Thermal correction to Enthalpy=                  0.168807
 Thermal correction to Gibbs Free Energy=         0.128986
 Sum of electronic and zero-point Energies=           -422.994751
 Sum of electronic and thermal Energies=              -422.987216
 Sum of electronic and thermal Enthalpies=            -422.986272
 Sum of electronic and thermal Free Energies=         -423.026092

                     E (Thermal)             CV                S
                      KCal/Mol        Cal/Mol-Kelvin    Cal/Mol-Kelvin
 Total                  105.335             31.324             83.809
 Electronic               0.000              0.000              0.000
 Translational            0.889              2.981             40.409
 Rotational               0.889              2.981             28.108
 Vibrational            103.558             25.363             15.293
 Vibration     1          0.616              1.908              2.738
 Vibration     2          0.644              1.820              2.012
 Vibration     3          0.655              1.787              1.840
 Vibration     4          0.722              1.589              1.197
 Vibration     5          0.747              1.522              1.056
 Vibration     6          0.765              1.474              0.969
 Vibration     7          0.817              1.342              0.770
 Vibration     8          0.827              1.316              0.736
 Vibration     9          0.868              1.220              0.625
 Vibration    10          0.943              1.062              0.475

 Optimization completed.
    -- Stationary point found.
 Normal termination of Gaussian 09 at Mon Jan 27 18:57:36 2020.
