 Gaussian 09, Revision D.01,
 Gaussian 09:  ES64L-G09RevD.01 24-Apr-2013

 -----------------------------
 # b3lyp 6-31G(2df,p) opt Freq
 -----------------------------

 -----
 titel
 -----
 Symbolic Z-matrix:
 Charge =  0 Multiplicity = 1

 SCF Done:  E(RB3LYP) =  -423.159604099     A.U. after   14 cycles
 Optimization completed.
    -- Stationary point found.
 Normal termination of Gaussian 09 at Tue Jan 28 00:01:24 2020.

 ----------------------------------------------------------------------
 #N Geom=AllCheck Guess=TCheck SCRF=Check GenChk RB3LYP/6-31G(2df,p) Fr
 eq
 ----------------------------------------------------------------------

 Structure from the checkpoint file:  "/scratch/puck/g09_d89dec41-d14c-42de-a586-ba8b30f2bc51/Gau-2004.chk"
 -----
 titel
 -----
 Charge =  0 Multiplicity = 1

                         Standard orientation:
 ---------------------------------------------------------------------
 Center     Atomic      Atomic             Coordinates (Angstroms)
 Number     Number       Type             X           Y           Z
 ---------------------------------------------------------------------
      1          8           0        1.107517    2.302709   -0.242687
      2          6           0        0.627636    0.990753   -0.354893
      3          6           0        1.439707   -0.173057    0.297960
      4          6           0        1.558168   -1.445744   -0.569369
      5          6           0        0.137116   -1.882554   -0.096798
      6          6           0        0.113658   -0.715830    0.940004
      7          6           0       -0.616121    0.579104    0.523942
      8          6           0       -1.962097    0.572332   -0.138204
      9          8           0       -2.667029   -0.396180   -0.284166
     10          1           0        1.336651    2.464524    0.679039
     11          1           0        0.461039    0.834075   -1.425531
     12          1           0        2.303034    0.161575    0.878154
     13          1           0        1.704636   -1.287544   -1.642367
     14          1           0        2.340994   -2.120866   -0.213928
     15          1           0       -0.647747   -1.824299   -0.851041
     16          1           0        0.094528   -2.875991    0.353670
     17          1           0        0.034124   -1.010124    1.986210
     18          1           0       -0.664931    1.286675    1.363760
     19          1           0       -2.274633    1.569715   -0.528990
 ---------------------------------------------------------------------

 SCF Done:  E(RB3LYP) =  -423.159604099     A.U. after    1 cycles

 The electronic state is 1-A.
 Alpha  occ. eigenvalues --  -19.15136 -19.13819 -10.26892 -10.24664 -10.19837
 Alpha  occ. eigenvalues --  -10.19285 -10.19158 -10.18455 -10.18092  -1.04415
 Alpha  occ. eigenvalues --   -1.03515  -0.87503  -0.76463  -0.68985  -0.65668
 Alpha  occ. eigenvalues --   -0.62529  -0.56429  -0.54084  -0.51577  -0.48993
 Alpha  occ. eigenvalues --   -0.46740  -0.44487  -0.44110  -0.41984  -0.40462
 Alpha  occ. eigenvalues --   -0.39308  -0.36623  -0.35855  -0.34561  -0.31698
 Alpha  occ. eigenvalues --   -0.30222  -0.28441  -0.27236  -0.24146
 Alpha virt. eigenvalues --   -0.02209   0.06767   0.07399   0.09687   0.10201
 Alpha virt. eigenvalues --    0.12042   0.13226   0.14456   0.15305   0.17308
 Alpha virt. eigenvalues --    0.17761   0.18520   0.19797   0.21646   0.22382

 Mulliken charges:
               1
     1  O   -0.427944
     2  C    0.123428
     3  C   -0.066206
     4  C   -0.229697
     5  C   -0.231306
     6  C   -0.045209
     7  C   -0.121584
     8  C    0.133034
     9  O   -0.250321
    10  H    0.280287
    11  H    0.098821
    12  H    0.061664
    13  H    0.099170
    14  H    0.103490
    15  H    0.124872
    16  H    0.106307
    17  H    0.071651
    18  H    0.088339
    19  H    0.081203
 Sum of Mulliken charges =   0.00000

 Dipole moment (field-independent basis, Debye):
    X=              2.0177    Y=              0.6361    Z=              1.6695  Tot=              2.6950
 Quadrupole moment (field-independent basis, Debye-Ang):
   XX=            -60.0355   YY=            -54.2080   ZZ=            -50.7155
   XY=             -4.3973   XZ=              1.0721   YZ=              3.3514

  Exact polarizability:  81.167   0.177  81.875   1.620   1.191  64.354
 Approx polarizability: 115.537   9.456 118.465   3.119   2.073 100.363

                      1                      2                      3
                      A                      A                      A
 Frequencies --     79.6861                85.6813               160.4636
 Red. masses --      2.7292                 4.0453                 4.3624
 Frc consts  --      0.0102                 0.0175                 0.0662
 IR Inten    --      0.2154                 5.8065                 4.4829

                      4                      5                      6
                      A                      A                      A
 Frequencies --    234.1436               257.3308               295.2369
 Red. masses --      2.7130                 2.4551                 1.4352
 Frc consts  --      0.0876                 0.0958                 0.0737
 IR Inten    --      2.4233                 0.9960                50.3871

                      7                      8                      9
                      A                      A                      A
 Frequencies --    349.1802               384.6001               432.6664
 Red. masses --      2.8327                 2.3926                 4.3176
 Frc consts  --      0.2035                 0.2085                 0.4762
 IR Inten    --     17.6146                40.0286                 4.3636

                     10                     11                     12
                      A                      A                      A
 Frequencies --    593.6523               712.0374               732.1441
 Red. masses --      4.1124                 1.7259                 2.1210
 Frc consts  --      0.8539                 0.5155                 0.6699
 IR Inten    --      6.5797                10.8840                10.4126

                     13                     14                     15
                      A                      A                      A
 Frequencies --    791.4171               819.5936               848.1657
 Red. masses --      2.4244                 2.3472                 1.9027
 Frc consts  --      0.8947                 0.9290                 0.8065
 IR Inten    --      6.1582                 2.4697                 0.6608

                     16                     17                     18
                      A                      A                      A
 Frequencies --    871.9818               902.7406               949.5171
 Red. masses --      2.2682                 2.3180                 2.5666
 Frc consts  --      1.0161                 1.1130                 1.3634
 IR Inten    --     16.9030                12.1115                 4.2670

                     19                     20                     21
                      A                      A                      A
 Frequencies --    975.2066              1000.8435              1016.0459
 Red. masses --      2.6450                 2.4768                 1.6572
 Frc consts  --      1.4821                 1.4618                 1.0080
 IR Inten    --      9.8875                 3.9443                 4.3723

                     22                     23                     24
                      A                      A                      A
 Frequencies --   1059.6094              1081.6032              1127.3578
 Red. masses --      1.7735                 1.4108                 2.1191
 Frc consts  --      1.1732                 0.9724                 1.5868
 IR Inten    --      1.2352                 2.0716                94.4005

                     25                     26                     27
                      A                      A                      A
 Frequencies --   1134.0613              1136.9880              1182.8156
 Red. masses --      1.9369                 2.4791                 1.5400
 Frc consts  --      1.4677                 1.8883                 1.2694
 IR Inten    --     36.7619                38.9417                21.9267

                     28                     29                     30
                      A                      A                      A
 Frequencies --   1202.4607              1219.4566              1240.0466
 Red. masses --      1.3613                 1.3555                 1.4086
 Frc consts  --      1.1597                 1.1876                 1.2762
 IR Inten    --      2.0482                 0.4634                 6.2425

                     31                     32                     33
                      A                      A                      A
 Frequencies --   1252.6513              1274.9932              1287.6678
 Red. masses --      1.3296                 1.4310                 1.4437
 Frc consts  --      1.2293                 1.3706                 1.4104
 IR Inten    --      0.4206                 1.5161                 3.7552

                     34                     35                     36
                      A                      A                      A
 Frequencies --   1311.3066              1327.1723              1353.9806
 Red. masses --      1.7123                 1.5623                 1.8298
 Frc consts  --      1.7347                 1.6213                 1.9764
 IR Inten    --     10.7533                 2.7903                10.4183

                     37                     38                     39
                      A                      A                      A
 Frequencies --   1421.8666              1435.9462              1480.7755
 Red. masses --      1.2056                 1.2091                 1.0861
 Frc consts  --      1.4360                 1.4689                 1.4032
 IR Inten    --      8.5572                69.5153                 0.4767

                     40                     41                     42
                      A                      A                      A
 Frequencies --   1500.7977              1815.8243              2852.8445
 Red. masses --      1.1058                10.3315                 1.0816
 Frc consts  --      1.4675                20.0706                 5.1863
 IR Inten    --      4.8281               159.2821               131.3409

                     43                     44                     45
                      A                      A                      A
 Frequencies --   3015.9682              3048.4494              3060.6015
 Red. masses --      1.0827                 1.0594                 1.0861
 Frc consts  --      5.8022                 5.8003                 5.9942
 IR Inten    --     15.0979                38.2824                25.0032

                     46                     47                     48
                      A                      A                      A
 Frequencies --   3077.8971              3082.6783              3098.9252
 Red. masses --      1.0890                 1.0651                 1.1040
 Frc consts  --      6.0781                 5.9632                 6.2467
 IR Inten    --     37.0688                27.6806                18.3910

                     49                     50                     51
                      A                      A                      A
 Frequencies --   3107.8090              3142.3041              3801.2120
 Red. masses --      1.0892                 1.1043                 1.0658
 Frc consts  --      6.1984                 6.4247                 9.0738
 IR Inten    --     29.0970                22.4772                18.2462

 - Thermochemistry -
 -------------------
 Temperature   298.150 Kelvin.  Pressure   1.00000 Atm.
 Atom     1 has atomic number  8 and mass  15.99491

 Molecular mass:   126.06808 amu.
 Principal axes and moments of inertia in atomic units:
                           1         2         3
     Eigenvalues --   879.196761077.579171700.08277
           X            0.99261  -0.12132  -0.00067
           Y            0.12131   0.99250   0.01494
           Z           -0.00115  -0.01491   0.99989
 This molecule is an asymmetric top.
 Rotational symmetry number  1.
 Warning -- assumption of classical behavior for rotation
           may cause significant error
 Rotational temperatures (Kelvin)      0.09851     0.08038     0.05095
 Rotational constants (GHZ):           2.05272     1.67481     1.06156
 Zero-point vibrational energy     416470.3 (Joules/Mol)
                                   99.53880 (Kcal/Mol)
 Warning -- explicit consideration of  10 degrees of freedom as
           vibrations may cause significant error
 Vibrational temperatures:    114.65   123.28   230.87   336.88   370.24
          (Kelvin)            424.78   502.39   553.35   622.51   854.13
                             1024.46  1053.39  1138.67  1179.21  1220.32
                             1254.59  1298.84  1366.14  1403.10  1439.99
                             1461.86  1524.54  1556.18  1622.01  1631.66
                             1635.87  1701.81  1730.07  1754.52  1784.15
                             1802.28  1834.43  1852.66  1886.68  1909.50
                             1948.07  2045.75  2066.00  2130.50  2159.31
                             2612.56  4104.60  4339.30  4386.03  4403.52
                             4428.40  4435.28  4458.66  4471.44  4521.07
                             5469.09

 Zero-point correction=                           0.158625 (Hartree/Particle)
 Thermal correction to Energy=                    0.167137
 Thermal correction to Enthalpy=                  0.168081
 Thermal correction to Gibbs Free Energy=         0.125097
 Sum of electronic and zero-point Energies=           -423.000979
 Sum of electronic and thermal Energies=              -422.992468
 Sum of electronic and thermal Enthalpies=            -422.991523
 Sum of electronic and thermal Free Energies=         -423.034507

                     E (Thermal)             CV                S
                      KCal/Mol        Cal/Mol-Kelvin    Cal/Mol-Kelvin
 Total                  104.880             31.993             90.467
 Electronic               0.000              0.000              0.000
 Translational            0.889              2.981             40.409
 Rotational               0.889              2.981             28.867
 Vibrational            103.102             26.031             21.191
 Vibration     1          0.600              1.963              3.899
 Vibration     2          0.601              1.959              3.756
 Vibration     3          0.622              1.891              2.544
 Vibration     4          0.654              1.789              1.847
 Vibration     5          0.667              1.750              1.680
 Vibration     6          0.689              1.683              1.444
 Vibration     7          0.726              1.577              1.170
 Vibration     8          0.754              1.503              1.021
 Vibration     9          0.794              1.399              0.850
 Vibration    10          0.951              1.045              0.461

 Normal termination of Gaussian 09 at Tue Jan 28 00:42:38 2020.
