 Gaussian 09, Revision D.01,
 Gaussian 09:  ES64L-G09RevD.01 24-Apr-2013

 -----------------------------
 # b3lyp 6-31G(2df,p) opt Freq
 -----------------------------

 -----
 titel
 -----
 Symbolic Z-matrix:
 Charge =  0 Multiplicity = 1

 SCF Done:  E(RB3LYP) =  -423.168653650     A.U. after   14 cycles
 Optimization completed.
    -- Stationary point found.
 Normal termination of Gaussian 09 at Tue Jan 28 02:02:47 2020.

 ----------------------------------------------------------------------
 #N Geom=AllCheck Guess=TCheck SCRF=Check GenChk RB3LYP/6-31G(2df,p) Fr
 eq
 ----------------------------------------------------------------------

 Structure from the checkpoint file:  "/scratch/puck/g09_f7a33f4e-1669-4c09-b9ad-23cd8b852d5a/Gau-111330.chk"
 -----
 titel
 -----
 Charge =  0 Multiplicity = 1

                         Standard orientation:
 ---------------------------------------------------------------------
 Center     Atomic      Atomic             Coordinates (Angstroms)
 Number     Number       Type             X           Y           Z
 ---------------------------------------------------------------------
      1          8           0        2.383431    0.833672   -0.840884
      2          6           0        1.727582   -0.333168   -0.446871
      3          6           0        1.721665   -0.626698    1.017505
      4          6           0        0.421130   -0.240499    0.328825
      5          6           0       -0.635180   -1.310144    0.132509
      6          8           0       -1.661003   -0.862630   -0.738386
      7          6           0       -2.371393    0.243963   -0.213543
      8          6           0       -1.473133    1.309647    0.354722
      9          6           0       -0.176248    1.092633    0.576406
     10          1           0        1.874679    1.229047   -1.557439
     11          1           0        1.826427   -1.175486   -1.133719
     12          1           0        1.845359   -1.654110    1.344952
     13          1           0        2.178446    0.116218    1.662547
     14          1           0       -0.213275   -2.210864   -0.324835
     15          1           0       -1.060125   -1.594941    1.110355
     16          1           0       -2.960712    0.645026   -1.046789
     17          1           0       -3.095681   -0.088676    0.554008
     18          1           0       -1.929997    2.270176    0.576273
     19          1           0        0.468918    1.880880    0.951492
 ---------------------------------------------------------------------

 SCF Done:  E(RB3LYP) =  -423.168653650     A.U. after    1 cycles

 The electronic state is 1-A.
 Alpha  occ. eigenvalues --  -19.14446 -19.13796 -10.23646 -10.23100 -10.22859
 Alpha  occ. eigenvalues --  -10.19660 -10.18756 -10.18430 -10.18155  -1.03422
 Alpha  occ. eigenvalues --   -1.02923  -0.86012  -0.78242  -0.72771  -0.64573
 Alpha  occ. eigenvalues --   -0.60513  -0.59805  -0.53743  -0.51147  -0.50703
 Alpha  occ. eigenvalues --   -0.47209  -0.46726  -0.42728  -0.42045  -0.40105
 Alpha  occ. eigenvalues --   -0.38863  -0.38677  -0.37308  -0.34208  -0.30817
 Alpha  occ. eigenvalues --   -0.29054  -0.27622  -0.25055  -0.22723
 Alpha virt. eigenvalues --    0.01653   0.08724   0.09511   0.10578   0.11963
 Alpha virt. eigenvalues --    0.13197   0.13888   0.15429   0.16261   0.16779
 Alpha virt. eigenvalues --    0.17816   0.18725   0.19727   0.21298   0.24550

 Mulliken charges:
               1
     1  O   -0.416304
     2  C    0.066828
     3  C   -0.358728
     4  C    0.264040
     5  C   -0.167654
     6  O   -0.248481
     7  C   -0.124332
     8  C   -0.103787
     9  C   -0.125174
    10  H    0.290495
    11  H    0.087732
    12  H    0.113887
    13  H    0.124923
    14  H    0.101870
    15  H    0.089392
    16  H    0.116221
    17  H    0.097103
    18  H    0.093114
    19  H    0.098855
 Sum of Mulliken charges =   0.00000

 Dipole moment (field-independent basis, Debye):
    X=             -0.7155    Y=              0.2792    Z=              0.3248  Tot=              0.8339
 Quadrupole moment (field-independent basis, Debye-Ang):
   XX=            -56.9588   YY=            -50.6256   ZZ=            -52.0618
   XY=             -4.1253   XZ=             -1.0455   YZ=             -2.0359

  Exact polarizability:  98.470  -7.601  75.047   3.362  -0.759  62.768
 Approx polarizability: 142.034 -11.037 107.398   6.317  -0.821  97.306

                      1                      2                      3
                      A                      A                      A
 Frequencies --     84.9317               159.8846               205.2321
 Red. masses --      3.3235                 3.8212                 2.9699
 Frc consts  --      0.0141                 0.0576                 0.0737
 IR Inten    --      2.8379                 0.4576                 7.7321

                      4                      5                      6
                      A                      A                      A
 Frequencies --    258.3210               314.2871               332.2353
 Red. masses --      2.4318                 1.2385                 2.4225
 Frc consts  --      0.0956                 0.0721                 0.1575
 IR Inten    --     11.3138               119.6850                 1.8100

                      7                      8                      9
                      A                      A                      A
 Frequencies --    398.7498               441.9666               462.3212
 Red. masses --      3.0976                 2.4868                 3.0046
 Frc consts  --      0.2902                 0.2862                 0.3784
 IR Inten    --      6.6344                 3.5994                 5.4707

                     10                     11                     12
                      A                      A                      A
 Frequencies --    529.2176               547.5232               686.4384
 Red. masses --      5.5140                 2.2634                 4.1948
 Frc consts  --      0.9099                 0.3998                 1.1646
 IR Inten    --      5.1941                 2.7521                 4.6793

                     13                     14                     15
                      A                      A                      A
 Frequencies --    748.6338               799.0195               855.2260
 Red. masses --      1.6485                 2.9420                 1.9786
 Frc consts  --      0.5444                 1.1066                 0.8526
 IR Inten    --     16.8231                14.7176                 5.9049

                     16                     17                     18
                      A                      A                      A
 Frequencies --    892.2860               919.3061               935.5875
 Red. masses --      2.3823                 2.1439                 2.6702
 Frc consts  --      1.1175                 1.0675                 1.3771
 IR Inten    --     20.1824                 9.7211                14.1250

                     19                     20                     21
                      A                      A                      A
 Frequencies --    981.5414               989.6421              1006.3849
 Red. masses --      1.4548                 1.9336                 2.3147
 Frc consts  --      0.8258                 1.1158                 1.3813
 IR Inten    --      7.3000                 8.8312                18.3554

                     22                     23                     24
                      A                      A                      A
 Frequencies --   1025.9707              1049.0710              1067.5909
 Red. masses --      1.8707                 1.2871                 1.9670
 Frc consts  --      1.1602                 0.8346                 1.3209
 IR Inten    --      2.3084                 1.4190                10.2585

                     25                     26                     27
                      A                      A                      A
 Frequencies --   1118.6619              1122.3777              1178.7841
 Red. masses --      1.6849                 2.6018                 2.0759
 Frc consts  --      1.2423                 1.9311                 1.6995
 IR Inten    --     13.7543                78.7908                24.8469

                     28                     29                     30
                      A                      A                      A
 Frequencies --   1201.0185              1240.0908              1284.2746
 Red. masses --      1.7945                 1.2005                 1.6361
 Frc consts  --      1.5251                 1.0877                 1.5899
 IR Inten    --     41.7577                24.9115                16.1819

                     31                     32                     33
                      A                      A                      A
 Frequencies --   1298.2485              1323.3881              1326.5756
 Red. masses --      1.2829                 1.6586                 1.4024
 Frc consts  --      1.2740                 1.7114                 1.4541
 IR Inten    --     63.9668                23.0745                 4.5125

                     34                     35                     36
                      A                      A                      A
 Frequencies --   1365.7388              1409.1875              1423.2468
 Red. masses --      1.2889                 1.5124                 1.5664
 Frc consts  --      1.4165                 1.7695                 1.8695
 IR Inten    --      0.2165                 9.9367                 2.9995

                     37                     38                     39
                      A                      A                      A
 Frequencies --   1436.6919              1481.0087              1486.5092
 Red. masses --      1.5079                 1.4725                 1.1041
 Frc consts  --      1.8338                 1.9030                 1.4375
 IR Inten    --     11.4820                10.7730                 1.1525

                     40                     41                     42
                      A                      A                      A
 Frequencies --   1498.8767              1710.2076              2926.6065
 Red. masses --      1.1149                 6.9423                 1.0730
 Frc consts  --      1.4758                11.9633                 5.4149
 IR Inten    --      5.3381                 5.2626                67.9393

                     43                     44                     45
                      A                      A                      A
 Frequencies --   2958.9336              3049.3350              3071.3760
 Red. masses --      1.0701                 1.0863                 1.0926
 Frc consts  --      5.5201                 5.9515                 6.0727
 IR Inten    --     66.4166                32.9115                15.6443

                     46                     47                     48
                      A                      A                      A
 Frequencies --   3084.5333              3128.5373              3161.1282
 Red. masses --      1.0873                 1.0550                 1.0843
 Frc consts  --      6.0949                 6.0838                 6.3837
 IR Inten    --     45.4269                11.6210                 4.1792

                     49                     50                     51
                      A                      A                      A
 Frequencies --   3183.9633              3218.9459              3798.1871
 Red. masses --      1.0974                 1.1166                 1.0661
 Frc consts  --      6.5549                 6.8169                 9.0612
 IR Inten    --     17.5626                 5.7144                20.2231

 - Thermochemistry -
 -------------------
 Temperature   298.150 Kelvin.  Pressure   1.00000 Atm.
 Atom     1 has atomic number  8 and mass  15.99491

 Molecular mass:   126.06808 amu.
 Principal axes and moments of inertia in atomic units:
                           1         2         3
     Eigenvalues --   581.844311431.360381622.58518
           X            0.99973  -0.02325   0.00285
           Y            0.02331   0.99943  -0.02437
           Z           -0.00229   0.02443   0.99970
 This molecule is an asymmetric top.
 Rotational symmetry number  1.
 Warning -- assumption of classical behavior for rotation
           may cause significant error
 Rotational temperatures (Kelvin)      0.14886     0.06051     0.05338
 Rotational constants (GHZ):           3.10176     1.26086     1.11226
 Zero-point vibrational energy     419756.5 (Joules/Mol)
                                  100.32420 (Kcal/Mol)
 Warning -- explicit consideration of  11 degrees of freedom as
           vibrations may cause significant error
 Vibrational temperatures:    122.20   230.04   295.28   371.67   452.19
          (Kelvin)            478.01   573.71   635.89   665.18   761.43
                              787.76   987.63  1077.12  1149.61  1230.48
                             1283.80  1322.67  1346.10  1412.22  1423.87
                             1447.96  1476.14  1509.38  1536.02  1609.50
                             1614.85  1696.01  1728.00  1784.21  1847.78
                             1867.89  1904.06  1908.64  1964.99  2027.50
                             2047.73  2067.08  2130.84  2138.75  2156.55
                             2460.60  4210.73  4257.24  4387.31  4419.02
                             4437.95  4501.26  4548.15  4581.01  4631.34
                             5464.74

 Zero-point correction=                           0.159877 (Hartree/Particle)
 Thermal correction to Energy=                    0.168040
 Thermal correction to Enthalpy=                  0.168984
 Thermal correction to Gibbs Free Energy=         0.127277
 Sum of electronic and zero-point Energies=           -423.008777
 Sum of electronic and thermal Energies=              -423.000614
 Sum of electronic and thermal Enthalpies=            -422.999670
 Sum of electronic and thermal Free Energies=         -423.041377

                     E (Thermal)             CV                S
                      KCal/Mol        Cal/Mol-Kelvin    Cal/Mol-Kelvin
 Total                  105.447             31.947             87.779
 Electronic               0.000              0.000              0.000
 Translational            0.889              2.981             40.409
 Rotational               0.889              2.981             28.693
 Vibrational            103.669             25.986             18.678
 Vibration     1          0.601              1.960              3.774
 Vibration     2          0.622              1.891              2.551
 Vibration     3          0.640              1.832              2.086
 Vibration     4          0.667              1.749              1.673
 Vibration     5          0.702              1.646              1.340
 Vibration     6          0.714              1.611              1.249
 Vibration     7          0.765              1.473              0.967
 Vibration     8          0.802              1.379              0.820
 Vibration     9          0.820              1.334              0.759
 Vibration    10          0.884              1.185              0.589
 Vibration    11          0.903              1.145              0.549

 Optimization completed.
    -- Stationary point found.
 Normal termination of Gaussian 09 at Tue Jan 28 02:45:32 2020.
