 Gaussian 09, Revision D.01,
 Gaussian 09:  ES64L-G09RevD.01 24-Apr-2013

 -----------------------------
 # b3lyp 6-31G(2df,p) opt Freq
 -----------------------------

 -----
 titel
 -----
 Symbolic Z-matrix:
 Charge =  0 Multiplicity = 1

 SCF Done:  E(RB3LYP) =  -423.176276312     A.U. after   14 cycles
 Optimization completed.
    -- Stationary point found.
 Normal termination of Gaussian 09 at Mon Jan 27 22:08:31 2020.

 ----------------------------------------------------------------------
 #N Geom=AllCheck Guess=TCheck SCRF=Check GenChk RB3LYP/6-31G(2df,p) Fr
 eq
 ----------------------------------------------------------------------

 Structure from the checkpoint file:  "/scratch/puck/g09_90a71fda-2266-416d-af92-c8399d8fe485/Gau-51346.chk"
 -----
 titel
 -----
 Charge =  0 Multiplicity = 1

                         Standard orientation:
 ---------------------------------------------------------------------
 Center     Atomic      Atomic             Coordinates (Angstroms)
 Number     Number       Type             X           Y           Z
 ---------------------------------------------------------------------
      1          8           0       -0.705414    1.896121   -0.223222
      2          6           0       -0.630528    0.573749   -0.661790
      3          6           0       -1.638502   -0.419354   -0.089864
      4          8           0       -2.694497   -0.229176    0.449469
      5          6           0       -0.604103   -1.546450   -0.071154
      6          6           0        0.469187   -0.418698   -0.117421
      7          6           0        1.194920    0.048695    1.170683
      8          6           0        2.442299    0.363417    0.299413
      9          6           0        1.833458   -0.504643   -0.836726
     10          1           0       -1.455200    1.948104    0.383714
     11          1           0       -0.616236    0.542357   -1.761532
     12          1           0       -0.623265   -2.208894    0.796936
     13          1           0       -0.622020   -2.146921   -0.986905
     14          1           0        0.741927    0.885111    1.707213
     15          1           0        1.366410   -0.777191    1.867045
     16          1           0        2.483908    1.420418    0.026451
     17          1           0        3.415534    0.061639    0.691415
     18          1           0        1.877500   -0.115712   -1.858437
     19          1           0        2.230350   -1.524764   -0.834721
 ---------------------------------------------------------------------

 SCF Done:  E(RB3LYP) =  -423.176276312     A.U. after    1 cycles

 The electronic state is 1-A.
 Alpha  occ. eigenvalues --  -19.15098 -19.14667 -10.27431 -10.23988 -10.20661
 Alpha  occ. eigenvalues --  -10.19720 -10.18699 -10.18503 -10.18473  -1.05882
 Alpha  occ. eigenvalues --   -1.03031  -0.87085  -0.80215  -0.67372  -0.66615
 Alpha  occ. eigenvalues --   -0.62629  -0.56630  -0.53455  -0.49725  -0.48565
 Alpha  occ. eigenvalues --   -0.47856  -0.45730  -0.43268  -0.42960  -0.39016
 Alpha  occ. eigenvalues --   -0.38658  -0.37512  -0.36763  -0.34226  -0.33285
 Alpha  occ. eigenvalues --   -0.30937  -0.30145  -0.27168  -0.24869
 Alpha virt. eigenvalues --   -0.02692   0.07486   0.08889   0.09699   0.10904
 Alpha virt. eigenvalues --    0.12992   0.13693   0.15330   0.15595   0.17389
 Alpha virt. eigenvalues --    0.18116   0.19172   0.20401   0.20765   0.22454

 Mulliken charges:
               1
     1  O   -0.429097
     2  C    0.009194
     3  C    0.340225
     4  O   -0.310065
     5  C   -0.422777
     6  C    0.293913
     7  C   -0.265523
     8  C   -0.202872
     9  C   -0.300309
    10  H    0.298508
    11  H    0.102601
    12  H    0.130644
    13  H    0.129378
    14  H    0.107120
    15  H    0.099318
    16  H    0.118923
    17  H    0.098914
    18  H    0.099209
    19  H    0.102697
 Sum of Mulliken charges =   0.00000

 Dipole moment (field-independent basis, Debye):
    X=              1.8060    Y=             -1.2328    Z=             -0.4477  Tot=              2.2320
 Quadrupole moment (field-independent basis, Debye-Ang):
   XX=            -59.8967   YY=            -53.4377   ZZ=            -51.4826
   XY=             -1.8054   XZ=              1.6700   YZ=              1.8622

  Exact polarizability:  86.631  -0.803  73.326  -2.678   0.967  67.649
 Approx polarizability: 120.445  -3.229 109.000  -8.300   1.401 103.481

                      1                      2                      3
                      A                      A                      A
 Frequencies --     76.7132                92.1078               172.4941
 Red. masses --      5.6148                 2.3309                 3.8617
 Frc consts  --      0.0195                 0.0117                 0.0677
 IR Inten    --      1.0236                 0.2102                13.4448

                      4                      5                      6
                      A                      A                      A
 Frequencies --    224.2303               242.7293               289.1119
 Red. masses --      2.8156                 2.1255                 1.3588
 Frc consts  --      0.0834                 0.0738                 0.0669
 IR Inten    --      2.9020                31.0146                33.2959

                      7                      8                      9
                      A                      A                      A
 Frequencies --    336.5703               384.5582               490.4109
 Red. masses --      2.4387                 2.7374                 4.5860
 Frc consts  --      0.1628                 0.2385                 0.6498
 IR Inten    --      1.6310                 5.6198                 2.6246

                     10                     11                     12
                      A                      A                      A
 Frequencies --    520.0144               628.0971               687.5909
 Red. masses --      2.6764                 2.8667                 1.7522
 Frc consts  --      0.4264                 0.6663                 0.4881
 IR Inten    --      0.6224                 1.1648                 6.6632

                     13                     14                     15
                      A                      A                      A
 Frequencies --    750.8630               759.4684               795.7006
 Red. masses --      2.1851                 2.4838                 1.4520
 Frc consts  --      0.7259                 0.8441                 0.5416
 IR Inten    --      7.4042                 1.0289                 1.9969

                     16                     17                     18
                      A                      A                      A
 Frequencies --    847.1328               868.8018               880.6692
 Red. masses --      2.8149                 2.2930                 2.3766
 Frc consts  --      1.1902                 1.0198                 1.0860
 IR Inten    --     14.7622                 6.1834                 2.2386

                     19                     20                     21
                      A                      A                      A
 Frequencies --    939.5139               959.6678              1010.5849
 Red. masses --      2.5070                 2.8805                 1.5047
 Frc consts  --      1.3038                 1.5630                 0.9054
 IR Inten    --      1.4435                 2.0578                 1.3636

                     22                     23                     24
                      A                      A                      A
 Frequencies --   1054.6964              1086.5389              1106.0998
 Red. masses --      1.7237                 1.8489                 2.1887
 Frc consts  --      1.1297                 1.2860                 1.5777
 IR Inten    --     37.7294                50.0614                14.0722

                     25                     26                     27
                      A                      A                      A
 Frequencies --   1139.6452              1161.2022              1189.5052
 Red. masses --      1.7619                 2.5458                 1.6936
 Frc consts  --      1.3482                 2.0225                 1.4119
 IR Inten    --      0.6690                57.0287                 1.2911

                     28                     29                     30
                      A                      A                      A
 Frequencies --   1207.0805              1216.9099              1242.6437
 Red. masses --      1.6146                 1.7636                 1.6809
 Frc consts  --      1.3861                 1.5387                 1.5293
 IR Inten    --      5.7317                 5.0976                 6.9463

                     31                     32                     33
                      A                      A                      A
 Frequencies --   1256.2537              1272.2345              1282.4135
 Red. masses --      1.2420                 1.3676                 1.5675
 Frc consts  --      1.1548                 1.3042                 1.5189
 IR Inten    --      0.5864                 1.5703                 0.0969

                     34                     35                     36
                      A                      A                      A
 Frequencies --   1298.7240              1337.1652              1403.3082
 Red. masses --      2.0275                 1.6336                 1.2947
 Frc consts  --      2.0149                 1.7209                 1.5022
 IR Inten    --      2.2498                 9.1089                38.2736

                     37                     38                     39
                      A                      A                      A
 Frequencies --   1442.2658              1467.4250              1479.7132
 Red. masses --      1.1157                 1.0911                 1.0849
 Frc consts  --      1.3674                 1.3843                 1.3996
 IR Inten    --     15.2917                 2.3410                 2.1595

                     40                     41                     42
                      A                      A                      A
 Frequencies --   1502.1525              1869.3682              2999.4060
 Red. masses --      1.1351                12.5263                 1.0819
 Frc consts  --      1.5091                25.7907                 5.7348
 IR Inten    --      0.1872               270.3005                22.5980

                     43                     44                     45
                      A                      A                      A
 Frequencies --   3044.2405              3054.3799              3058.0972
 Red. masses --      1.0575                 1.0607                 1.0590
 Frc consts  --      5.7740                 5.8300                 5.8351
 IR Inten    --     41.6276                10.1204                20.6993

                     46                     47                     48
                      A                      A                      A
 Frequencies --   3069.9778              3092.1004              3112.3431
 Red. masses --      1.0600                 1.1073                 1.1064
 Frc consts  --      5.8862                 6.2378                 6.3145
 IR Inten    --     37.2512                15.5906                 8.5474

                     49                     50                     51
                      A                      A                      A
 Frequencies --   3120.2415              3128.8734              3766.3619
 Red. masses --      1.1041                 1.1081                 1.0661
 Frc consts  --      6.3331                 6.3918                 8.9105
 IR Inten    --      5.8275                39.8132                39.0820

 - Thermochemistry -
 -------------------
 Temperature   298.150 Kelvin.  Pressure   1.00000 Atm.
 Atom     1 has atomic number  8 and mass  15.99491

 Molecular mass:   126.06808 amu.
 Principal axes and moments of inertia in atomic units:
                           1         2         3
     Eigenvalues --   610.141281358.153181600.54879
           X            0.99998  -0.00434   0.00541
           Y            0.00420   0.99966   0.02589
           Z           -0.00552  -0.02587   0.99965
 This molecule is an asymmetric top.
 Rotational symmetry number  1.
 Warning -- assumption of classical behavior for rotation
           may cause significant error
 Rotational temperatures (Kelvin)      0.14196     0.06377     0.05412
 Rotational constants (GHZ):           2.95791     1.32882     1.12758
 Zero-point vibrational energy     415214.2 (Joules/Mol)
                                   99.23858 (Kcal/Mol)
 Warning -- explicit consideration of  10 degrees of freedom as
           vibrations may cause significant error
 Vibrational temperatures:    110.37   132.52   248.18   322.62   349.23
          (Kelvin)            415.97   484.25   553.29   705.59   748.18
                              903.69   989.29  1080.32  1092.70  1144.83
                             1218.83  1250.01  1267.08  1351.75  1380.75
                             1454.00  1517.47  1563.29  1591.43  1639.69
                             1670.71  1711.43  1736.72  1750.86  1787.88
                             1807.47  1830.46  1845.10  1868.57  1923.88
                             2019.04  2075.10  2111.29  2128.97  2161.26
                             2689.60  4315.47  4379.98  4394.57  4399.91
                             4417.01  4448.84  4477.96  4489.33  4501.75
                             5418.95

 Zero-point correction=                           0.158147 (Hartree/Particle)
 Thermal correction to Energy=                    0.166822
 Thermal correction to Enthalpy=                  0.167766
 Thermal correction to Gibbs Free Energy=         0.124665
 Sum of electronic and zero-point Energies=           -423.018130
 Sum of electronic and thermal Energies=              -423.009454
 Sum of electronic and thermal Enthalpies=            -423.008510
 Sum of electronic and thermal Free Energies=         -423.051611

                     E (Thermal)             CV                S
                      KCal/Mol        Cal/Mol-Kelvin    Cal/Mol-Kelvin
 Total                  104.682             32.814             90.714
 Electronic               0.000              0.000              0.000
 Translational            0.889              2.981             40.409
 Rotational               0.889              2.981             28.674
 Vibrational            102.905             26.852             21.631
 Vibration     1          0.599              1.965              3.973
 Vibration     2          0.602              1.955              3.615
 Vibration     3          0.626              1.876              2.408
 Vibration     4          0.649              1.804              1.925
 Vibration     5          0.659              1.775              1.783
 Vibration     6          0.686              1.694              1.479
 Vibration     7          0.717              1.602              1.228
 Vibration     8          0.753              1.503              1.021
 Vibration     9          0.846              1.271              0.683
 Vibration    10          0.875              1.206              0.610

 Optimization completed.
    -- Stationary point found.
 Normal termination of Gaussian 09 at Mon Jan 27 23:51:19 2020.
