 Gaussian 09, Revision D.01,
 Gaussian 09:  ES64L-G09RevD.01 24-Apr-2013

 -----------------------------
 # b3lyp 6-31G(2df,p) opt Freq
 -----------------------------

 -----
 titel
 -----
 Symbolic Z-matrix:
 Charge =  0 Multiplicity = 1

 SCF Done:  E(RB3LYP) =  -423.102013068     A.U. after   13 cycles
 Optimization completed.
    -- Stationary point found.
 Normal termination of Gaussian 09 at Tue Jan 28 14:12:35 2020.

 ----------------------------------------------------------------------
 #N Geom=AllCheck Guess=TCheck SCRF=Check GenChk RB3LYP/6-31G(2df,p) Fr
 eq
 ----------------------------------------------------------------------

 Structure from the checkpoint file:  "/scratch/puck/g09_f847459d-53a1-4b5c-a6ca-dc69fef3c9e3/Gau-44176.chk"
 -----
 titel
 -----
 Charge =  0 Multiplicity = 1

                         Standard orientation:
 ---------------------------------------------------------------------
 Center     Atomic      Atomic             Coordinates (Angstroms)
 Number     Number       Type             X           Y           Z
 ---------------------------------------------------------------------
      1          6           0       -3.471805   -0.093200   -0.009502
      2          6           0       -2.050765    0.030774   -0.528059
      3          8           0       -1.168958    0.061298    0.595084
      4          6           0        0.155729    0.139874    0.261310
      5          6           0        0.956396    1.345911   -0.244881
      6          6           0        2.189329    0.466097    0.092593
      7          8           0        2.136037   -0.613516   -0.886556
      8          6           0        1.000361   -1.087517   -0.163528
      9          6           0        1.312393   -0.360531    1.106714
     10          1           0       -3.590122   -1.011391    0.572860
     11          1           0       -3.721544    0.755038    0.634039
     12          1           0       -4.179242   -0.116640   -0.843673
     13          1           0       -1.790094   -0.816325   -1.179179
     14          1           0       -1.930659    0.949572   -1.120773
     15          1           0        0.862588    1.668281   -1.286368
     16          1           0        0.863598    2.192663    0.440049
     17          1           0        3.185026    0.875966    0.243165
     18          1           0        0.605144   -2.075531   -0.359037
     19          1           0        1.408845   -0.652329    2.142817
 ---------------------------------------------------------------------

 SCF Done:  E(RB3LYP) =  -423.102013068     A.U. after    1 cycles

 The electronic state is 1-A.
 Alpha  occ. eigenvalues --  -19.15263 -19.13368 -10.24599 -10.24191 -10.23571
 Alpha  occ. eigenvalues --  -10.23284 -10.19166 -10.18588 -10.17924  -1.06504
 Alpha  occ. eigenvalues --   -1.04116  -0.85366  -0.75750  -0.72818  -0.64496
 Alpha  occ. eigenvalues --   -0.62539  -0.55737  -0.54213  -0.54082  -0.48181
 Alpha  occ. eigenvalues --   -0.46392  -0.45133  -0.44089  -0.41943  -0.39620
 Alpha  occ. eigenvalues --   -0.38976  -0.38030  -0.36505  -0.34973  -0.32755
 Alpha  occ. eigenvalues --   -0.30211  -0.27841  -0.25818  -0.21564
 Alpha virt. eigenvalues --    0.07944   0.09982   0.10249   0.11536   0.12742
 Alpha virt. eigenvalues --    0.13706   0.14233   0.15337   0.16094   0.16432
 Alpha virt. eigenvalues --    0.17340   0.17681   0.19124   0.19780   0.20377

 Mulliken charges:
               1
     1  C   -0.388068
     2  C   -0.062138
     3  O   -0.291331
     4  C    0.388982
     5  C   -0.309186
     6  C    0.067759
     7  O   -0.292825
     8  C    0.017308
     9  C   -0.218915
    10  H    0.127481
    11  H    0.129068
    12  H    0.117623
    13  H    0.096787
    14  H    0.099721
    15  H    0.100921
    16  H    0.108353
    17  H    0.091355
    18  H    0.110474
    19  H    0.106632
 Sum of Mulliken charges =   0.00000

 Dipole moment (field-independent basis, Debye):
    X=             -1.0299    Y=              0.5190    Z=              0.3729  Tot=              1.2121
 Quadrupole moment (field-independent basis, Debye-Ang):
   XX=            -52.6333   YY=            -51.0645   ZZ=            -54.2963
   XY=              3.0677   XZ=              5.5532   YZ=             -0.8784

  Exact polarizability:  88.859   1.973  70.843   3.105  -0.868  66.042
 Approx polarizability: 112.245   0.886 105.722   1.584   1.648 104.905

                      1                      2                      3
                      A                      A                      A
 Frequencies --     62.2303                80.8258               132.1308
 Red. masses --      2.3102                 2.4054                 3.7772
 Frc consts  --      0.0053                 0.0093                 0.0389
 IR Inten    --      0.0242                 2.3470                 1.4526

                      4                      5                      6
                      A                      A                      A
 Frequencies --    243.8221               324.7052               365.9655
 Red. masses --      1.1431                 3.1128                 4.3467
 Frc consts  --      0.0400                 0.1934                 0.3430
 IR Inten    --      0.0795                 1.7639                 7.8741

                      7                      8                      9
                      A                      A                      A
 Frequencies --    371.9132               467.8772               526.3942
 Red. masses --      3.1977                 2.2654                 3.9117
 Frc consts  --      0.2606                 0.2922                 0.6386
 IR Inten    --      0.7468                 0.8643                 3.3858

                     10                     11                     12
                      A                      A                      A
 Frequencies --    670.4225               753.7488               773.7533
 Red. masses --      3.5414                 5.0604                 2.1148
 Frc consts  --      0.9378                 1.6939                 0.7460
 IR Inten    --      8.8852                 5.8127                 4.6162

                     13                     14                     15
                      A                      A                      A
 Frequencies --    806.1472               817.5460               822.5373
 Red. masses --      3.1084                 1.1242                 1.3368
 Frc consts  --      1.1902                 0.4427                 0.5329
 IR Inten    --     16.1506                 0.8941                 6.8908

                     16                     17                     18
                      A                      A                      A
 Frequencies --    884.2565               915.5467               930.6997
 Red. masses --      2.0304                 2.9414                 2.3615
 Frc consts  --      0.9354                 1.4527                 1.2052
 IR Inten    --      1.4708                29.9217                23.2249

                     19                     20                     21
                      A                      A                      A
 Frequencies --    955.6522               977.8288              1021.5596
 Red. masses --      1.7258                 2.7784                 3.7143
 Frc consts  --      0.9286                 1.5652                 2.2838
 IR Inten    --     16.5963                 7.9620                13.2918

                     22                     23                     24
                      A                      A                      A
 Frequencies --   1035.7309              1057.2948              1071.4412
 Red. masses --      2.4914                 2.1019                 3.7046
 Frc consts  --      1.5747                 1.3844                 2.5057
 IR Inten    --     16.5496                 5.7532                71.6802

                     25                     26                     27
                      A                      A                      A
 Frequencies --   1121.3570              1132.9541              1146.3571
 Red. masses --      1.5914                 1.7846                 2.1663
 Frc consts  --      1.1790                 1.3496                 1.6773
 IR Inten    --      4.1135                17.1971                 3.7356

                     28                     29                     30
                      A                      A                      A
 Frequencies --   1160.5367              1185.3257              1194.5032
 Red. masses --      1.8269                 1.5381                 1.3808
 Frc consts  --      1.4497                 1.2732                 1.1608
 IR Inten    --      6.7283                 4.3507                 8.1521

                     31                     32                     33
                      A                      A                      A
 Frequencies --   1236.8386              1288.6994              1295.1706
 Red. masses --      1.9091                 1.4960                 1.2314
 Frc consts  --      1.7207                 1.4638                 1.2170
 IR Inten    --      4.6751                23.6032                12.3439

                     34                     35                     36
                      A                      A                      A
 Frequencies --   1312.8976              1385.8303              1407.2338
 Red. masses --      3.0095                 1.6874                 1.4365
 Frc consts  --      3.0563                 1.9094                 1.6760
 IR Inten    --    122.8953                86.8770                39.0657

                     37                     38                     39
                      A                      A                      A
 Frequencies --   1440.0675              1483.8197              1490.8050
 Red. masses --      1.7327                 1.0402                 1.2514
 Frc consts  --      2.1171                 1.3494                 1.6386
 IR Inten    --      4.4373                 4.3489                13.5393

                     40                     41                     42
                      A                      A                      A
 Frequencies --   1499.8340              1526.6646              2989.4209
 Red. masses --      1.0471                 1.0975                 1.0554
 Frc consts  --      1.3878                 1.5071                 5.5570
 IR Inten    --      2.0698                 0.8267                34.5671

                     43                     44                     45
                      A                      A                      A
 Frequencies --   3021.8228              3045.8382              3050.6314
 Red. masses --      1.1063                 1.0347                 1.0570
 Frc consts  --      5.9520                 5.6558                 5.7957
 IR Inten    --     30.9539                17.5118                36.3145

                     46                     47                     48
                      A                      A                      A
 Frequencies --   3116.6804              3120.8559              3122.8149
 Red. masses --      1.1080                 1.1015                 1.1028
 Frc consts  --      6.3411                 6.3209                 6.3365
 IR Inten    --     17.5985                24.7458                25.2795

                     49                     50                     51
                      A                      A                      A
 Frequencies --   3151.1481              3206.6640              3220.5603
 Red. masses --      1.0931                 1.0905                 1.1027
 Frc consts  --      6.3952                 6.6065                 6.7388
 IR Inten    --     34.4993                10.7107                 5.6982

 - Thermochemistry -
 -------------------
 Temperature   298.150 Kelvin.  Pressure   1.00000 Atm.
 Atom     1 has atomic number  6 and mass  12.00000

 Molecular mass:   126.06808 amu.
 Principal axes and moments of inertia in atomic units:
                           1         2         3
     Eigenvalues --   399.189841804.843911855.83715
           X            0.99981   0.01376   0.01380
           Y           -0.01206   0.99317  -0.11607
           Z           -0.01530   0.11588   0.99315
 This molecule is an asymmetric top.
 Rotational symmetry number  1.
 Rotational temperatures (Kelvin)      0.21697     0.04799     0.04667
 Rotational constants (GHZ):           4.52101     0.99994     0.97247
 Zero-point vibrational energy     415255.9 (Joules/Mol)
                                   99.24854 (Kcal/Mol)
 Warning -- explicit consideration of   9 degrees of freedom as
           vibrations may cause significant error
 Vibrational temperatures:     89.54   116.29   190.11   350.81   467.18
          (Kelvin)            526.54   535.10   673.17   757.36   964.59
                             1084.48  1113.26  1159.86  1176.26  1183.45
                             1272.25  1317.27  1339.07  1374.97  1406.88
                             1469.79  1490.18  1521.21  1541.56  1613.38
                             1630.07  1649.35  1669.75  1705.42  1718.62
                             1779.53  1854.15  1863.46  1888.96  1993.90
                             2024.69  2071.93  2134.88  2144.93  2157.92
                             2196.53  4301.10  4347.72  4382.28  4389.17
                             4484.20  4490.21  4493.03  4533.79  4613.67
                             4633.66

 Zero-point correction=                           0.158163 (Hartree/Particle)
 Thermal correction to Energy=                    0.166372
 Thermal correction to Enthalpy=                  0.167317
 Thermal correction to Gibbs Free Energy=         0.124707
 Sum of electronic and zero-point Energies=           -422.943850
 Sum of electronic and thermal Energies=              -422.935641
 Sum of electronic and thermal Enthalpies=            -422.934697
 Sum of electronic and thermal Free Energies=         -422.977306

                     E (Thermal)             CV                S
                      KCal/Mol        Cal/Mol-Kelvin    Cal/Mol-Kelvin
 Total                  104.400             31.248             89.680
 Electronic               0.000              0.000              0.000
 Translational            0.889              2.981             40.409
 Rotational               0.889              2.981             28.682
 Vibrational            102.623             25.286             20.589
 Vibration     1          0.597              1.972              4.385
 Vibration     2          0.600              1.962              3.871
 Vibration     3          0.612              1.921              2.915
 Vibration     4          0.659              1.773              1.775
 Vibration     5          0.709              1.626              1.286
 Vibration     6          0.739              1.542              1.097
 Vibration     7          0.744              1.530              1.072
 Vibration     8          0.825              1.321              0.744
 Vibration     9          0.881              1.192              0.595

 Normal termination of Gaussian 09 at Tue Jan 28 14:57:55 2020.
