 Gaussian 09, Revision D.01,
 Gaussian 09:  ES64L-G09RevD.01 24-Apr-2013

 -----------------------------
 # b3lyp 6-31G(2df,p) opt Freq
 -----------------------------

 -----
 titel
 -----
 Symbolic Z-matrix:
 Charge =  0 Multiplicity = 1

 SCF Done:  E(RB3LYP) =  -423.204236934     A.U. after   14 cycles
 Optimization completed.
    -- Stationary point found.
 Normal termination of Gaussian 09 at Mon Jan 27 22:01:12 2020.

 ----------------------------------------------------------------------
 #N Geom=AllCheck Guess=TCheck SCRF=Check GenChk RB3LYP/6-31G(2df,p) Fr
 eq
 ----------------------------------------------------------------------

 Structure from the checkpoint file:  "/scratch/puck/g09_c63e7ceb-044e-4aa0-bd88-e52f5c5240f8/Gau-45695.chk"
 -----
 titel
 -----
 Charge =  0 Multiplicity = 1

                         Standard orientation:
 ---------------------------------------------------------------------
 Center     Atomic      Atomic             Coordinates (Angstroms)
 Number     Number       Type             X           Y           Z
 ---------------------------------------------------------------------
      1          6           0        0.987613    1.761044    0.843363
      2          6           0        0.296792    0.585693    0.168133
      3          6           0       -0.702344    0.991614   -0.942127
      4          8           0       -1.703672   -0.012888   -0.976343
      5          6           0       -1.926709   -0.404102    0.374313
      6          6           0       -0.534879   -0.467796    1.000475
      7          6           0        0.372170   -1.622566    0.473986
      8          6           0        1.219912   -0.573374   -0.255373
      9          8           0        2.248530   -0.607899   -0.867453
     10          1           0        1.632944    1.430249    1.662802
     11          1           0        1.617790    2.297118    0.126118
     12          1           0        0.255568    2.467413    1.249436
     13          1           0       -1.139400    1.972605   -0.689742
     14          1           0       -0.250503    1.056297   -1.935523
     15          1           0       -2.553993    0.337096    0.896912
     16          1           0       -2.456810   -1.360476    0.360369
     17          1           0       -0.531502   -0.338456    2.083112
     18          1           0        0.918193   -2.197931    1.226789
     19          1           0       -0.126482   -2.320693   -0.206519
 ---------------------------------------------------------------------

 SCF Done:  E(RB3LYP) =  -423.204236934     A.U. after    1 cycles

 The electronic state is 1-A.
 Alpha  occ. eigenvalues --  -19.14660 -19.13717 -10.26630 -10.23616 -10.23421
 Alpha  occ. eigenvalues --  -10.20258 -10.20052 -10.19277 -10.18982  -1.04868
 Alpha  occ. eigenvalues --   -1.04224  -0.85317  -0.76571  -0.71859  -0.67518
 Alpha  occ. eigenvalues --   -0.61751  -0.58789  -0.51742  -0.50171  -0.48969
 Alpha  occ. eigenvalues --   -0.45905  -0.45222  -0.43039  -0.42121  -0.41592
 Alpha  occ. eigenvalues --   -0.40509  -0.39536  -0.37318  -0.34242  -0.33785
 Alpha  occ. eigenvalues --   -0.32923  -0.30823  -0.26796  -0.23638
 Alpha virt. eigenvalues --   -0.02205   0.08111   0.10448   0.11056   0.11764
 Alpha virt. eigenvalues --    0.12328   0.13830   0.14338   0.16006   0.16548
 Alpha virt. eigenvalues --    0.17356   0.17890   0.18628   0.19887   0.22312

 Mulliken charges:
               1
     1  C   -0.476929
     2  C    0.174493
     3  C   -0.131007
     4  O   -0.251022
     5  C   -0.098972
     6  C   -0.086100
     7  C   -0.362156
     8  C    0.385427
     9  O   -0.305061
    10  H    0.123677
    11  H    0.139464
    12  H    0.119250
    13  H    0.090686
    14  H    0.126993
    15  H    0.090894
    16  H    0.113587
    17  H    0.079097
    18  H    0.129750
    19  H    0.137928
 Sum of Mulliken charges =   0.00000

 Dipole moment (field-independent basis, Debye):
    X=             -1.5100    Y=              0.6304    Z=              2.4579  Tot=              2.9528
 Quadrupole moment (field-independent basis, Debye-Ang):
   XX=            -60.9248   YY=            -50.1151   ZZ=            -53.6397
   XY=              1.8490   XZ=              0.7328   YZ=             -1.9129

  Exact polarizability:  78.737   0.793  78.499  -4.305  -2.284  67.365
 Approx polarizability: 115.342   0.487 109.745 -10.013  -2.421 104.910

                      1                      2                      3
                      A                      A                      A
 Frequencies --     53.2082               171.5539               177.8240
 Red. masses --      3.8818                 1.7872                 1.3985
 Frc consts  --      0.0065                 0.0310                 0.0261
 IR Inten    --      4.1944                 1.0856                 0.1007

                      4                      5                      6
                      A                      A                      A
 Frequencies --    219.0160               269.5035               285.9856
 Red. masses --      3.2647                 2.7814                 2.7493
 Frc consts  --      0.0923                 0.1190                 0.1325
 IR Inten    --      3.8367                 1.3014                 4.8441

                      7                      8                      9
                      A                      A                      A
 Frequencies --    364.7022               478.9699               495.5480
 Red. masses --      1.8626                 3.7640                 2.0108
 Frc consts  --      0.1460                 0.5088                 0.2909
 IR Inten    --      0.8869                 2.0947                 1.0323

                     10                     11                     12
                      A                      A                      A
 Frequencies --    574.8146               630.6469               711.8719
 Red. masses --      3.2667                 4.4228                 4.1070
 Frc consts  --      0.6359                 1.0364                 1.2263
 IR Inten    --      0.8164                 3.5363                 3.4399

                     13                     14                     15
                      A                      A                      A
 Frequencies --    732.8059               790.3010               855.7142
 Red. masses --      3.3507                 2.3410                 2.5881
 Frc consts  --      1.0601                 0.8615                 1.1166
 IR Inten    --      1.4985                 3.0328                 1.2878

                     16                     17                     18
                      A                      A                      A
 Frequencies --    897.9276               943.7341               952.9332
 Red. masses --      2.6765                 2.8428                 2.0435
 Frc consts  --      1.2715                 1.4918                 1.0933
 IR Inten    --      9.4023                26.6600                 5.7934

                     19                     20                     21
                      A                      A                      A
 Frequencies --    989.6130              1017.7115              1048.0960
 Red. masses --      1.4074                 1.9799                 1.8198
 Frc consts  --      0.8121                 1.2082                 1.1778
 IR Inten    --      3.9812                 7.2431                 2.8878

                     22                     23                     24
                      A                      A                      A
 Frequencies --   1058.9187              1093.7942              1138.8363
 Red. masses --      3.8913                 3.2455                 2.0531
 Frc consts  --      2.5708                 2.2877                 1.5689
 IR Inten    --     63.5630                42.4673                31.9535

                     25                     26                     27
                      A                      A                      A
 Frequencies --   1157.8551              1167.6671              1198.6858
 Red. masses --      1.8314                 2.0772                 1.7838
 Frc consts  --      1.4466                 1.6687                 1.5101
 IR Inten    --      1.2895                 1.1921                10.2829

                     28                     29                     30
                      A                      A                      A
 Frequencies --   1217.1878              1232.0115              1267.3343
 Red. masses --      1.5481                 1.5434                 2.1301
 Frc consts  --      1.3514                 1.3803                 2.0157
 IR Inten    --      6.4436                 1.9685                19.2782

                     31                     32                     33
                      A                      A                      A
 Frequencies --   1284.2084              1321.5610              1354.5136
 Red. masses --      1.2582                 1.7273                 1.3325
 Frc consts  --      1.2225                 1.7774                 1.4404
 IR Inten    --      1.9675                 3.2996                 3.2668

                     34                     35                     36
                      A                      A                      A
 Frequencies --   1392.5000              1410.2085              1429.5491
 Red. masses --      1.3426                 1.2150                 1.1345
 Frc consts  --      1.5339                 1.4236                 1.3659
 IR Inten    --      4.7795                 5.3290                 9.1189

                     37                     38                     39
                      A                      A                      A
 Frequencies --   1488.4382              1492.3033              1502.9438
 Red. masses --      1.0509                 1.0513                 1.0803
 Frc consts  --      1.3718                 1.3794                 1.4377
 IR Inten    --      5.3006                 3.8606                 0.6722

                     40                     41                     42
                      A                      A                      A
 Frequencies --   1515.5254              1884.7533              2959.1627
 Red. masses --      1.1011                12.6607                 1.0706
 Frc consts  --      1.4901                26.4982                 5.5235
 IR Inten    --      2.3316               250.6758                48.3046

                     43                     44                     45
                      A                      A                      A
 Frequencies --   2969.5626              3031.1064              3053.2414
 Red. masses --      1.0713                 1.0351                 1.0591
 Frc consts  --      5.5662                 5.6033                 5.8173
 IR Inten    --     84.4695                24.2955                 7.8627

                     46                     47                     48
                      A                      A                      A
 Frequencies --   3089.9208              3094.6478              3100.7988
 Red. masses --      1.0921                 1.0933                 1.1010
 Frc consts  --      6.1432                 6.1688                 6.2373
 IR Inten    --     29.1871                13.5935                19.5852

                     49                     50                     51
                      A                      A                      A
 Frequencies --   3103.9146              3105.6337              3115.9551
 Red. masses --      1.0979                 1.1015                 1.0948
 Frc consts  --      6.2323                 6.2592                 6.2630
 IR Inten    --      5.5611                12.2401                22.6940

 - Thermochemistry -
 -------------------
 Temperature   298.150 Kelvin.  Pressure   1.00000 Atm.
 Atom     1 has atomic number  6 and mass  12.00000

 Molecular mass:   126.06808 amu.
 Principal axes and moments of inertia in atomic units:
                           1         2         3
     Eigenvalues --   746.682521119.641341300.01884
           X            0.99882   0.04799   0.00782
           Y           -0.04789   0.99878  -0.01167
           Z           -0.00837   0.01128   0.99990
 This molecule is an asymmetric top.
 Rotational symmetry number  1.
 Warning -- assumption of classical behavior for rotation
           may cause significant error
 Rotational temperatures (Kelvin)      0.11600     0.07736     0.06663
 Rotational constants (GHZ):           2.41701     1.61189     1.38824
 Zero-point vibrational energy     418066.3 (Joules/Mol)
                                   99.92023 (Kcal/Mol)
 Warning -- explicit consideration of  10 degrees of freedom as
           vibrations may cause significant error
 Vibrational temperatures:     76.55   246.83   255.85   315.11   387.75
          (Kelvin)            411.47   524.72   689.13   712.98   827.03
                              907.36  1024.22  1054.34  1137.07  1231.18
                             1291.92  1357.82  1371.06  1423.83  1464.26
                             1507.97  1523.55  1573.72  1638.53  1665.89
                             1680.01  1724.64  1751.26  1772.59  1823.41
                             1847.69  1901.43  1948.84  2003.49  2028.97
                             2056.80  2141.53  2147.09  2162.40  2180.50
                             2711.74  4257.57  4272.53  4361.08  4392.93
                             4445.70  4452.50  4461.35  4465.84  4468.31
                             4483.16

 Zero-point correction=                           0.159233 (Hartree/Particle)
 Thermal correction to Energy=                    0.167506
 Thermal correction to Enthalpy=                  0.168450
 Thermal correction to Gibbs Free Energy=         0.126173
 Sum of electronic and zero-point Energies=           -423.045004
 Sum of electronic and thermal Energies=              -423.036731
 Sum of electronic and thermal Enthalpies=            -423.035787
 Sum of electronic and thermal Free Energies=         -423.078064

                     E (Thermal)             CV                S
                      KCal/Mol        Cal/Mol-Kelvin    Cal/Mol-Kelvin
 Total                  105.112             31.442             88.980
 Electronic               0.000              0.000              0.000
 Translational            0.889              2.981             40.409
 Rotational               0.889              2.981             28.476
 Vibrational            103.334             25.481             20.096
 Vibration     1          0.596              1.976              4.694
 Vibration     2          0.626              1.877              2.418
 Vibration     3          0.628              1.870              2.351
 Vibration     4          0.647              1.812              1.967
 Vibration     5          0.674              1.729              1.599
 Vibration     6          0.684              1.700              1.498
 Vibration     7          0.738              1.545              1.102
 Vibration     8          0.835              1.297              0.713
 Vibration     9          0.851              1.260              0.669
 Vibration    10          0.931              1.086              0.495

 Optimization completed.
    -- Stationary point found.
 Normal termination of Gaussian 09 at Mon Jan 27 22:52:59 2020.
