 Gaussian 09, Revision D.01,
 Gaussian 09:  ES64L-G09RevD.01 24-Apr-2013

 -----------------------------
 # b3lyp 6-31G(2df,p) opt Freq
 -----------------------------

 -----
 titel
 -----
 Symbolic Z-matrix:
 Charge =  0 Multiplicity = 1

 SCF Done:  E(RB3LYP) =  -423.234134239     A.U. after   14 cycles
 Optimization completed.
    -- Stationary point found.
 Normal termination of Gaussian 09 at Tue Jan 28 00:47:06 2020.

 ----------------------------------------------------------------------
 #N Geom=AllCheck Guess=TCheck SCRF=Check GenChk RB3LYP/6-31G(2df,p) Fr
 eq
 ----------------------------------------------------------------------

 Structure from the checkpoint file:  "/scratch/puck/g09_ab5b13ff-9af3-47e3-b903-edc318bf34e1/Gau-37668.chk"
 -----
 titel
 -----
 Charge =  0 Multiplicity = 1

                         Standard orientation:
 ---------------------------------------------------------------------
 Center     Atomic      Atomic             Coordinates (Angstroms)
 Number     Number       Type             X           Y           Z
 ---------------------------------------------------------------------
      1          6           0       -2.450984   -0.460813    0.762519
      2          6           0       -1.613372   -0.158420   -0.473273
      3          6           0       -0.445414   -1.147912   -0.706995
      4          6           0        0.739710   -0.395921   -0.136112
      5          6           0        1.648745   -0.907100    0.969334
      6          6           0        2.189118   -0.706673   -0.412319
      7          6           0        0.331251    1.042324   -0.057284
      8          8           0        1.016225    1.993801    0.198730
      9          8           0       -0.997461    1.143745   -0.322871
     10          1           0       -3.164176    0.346369    0.948300
     11          1           0       -3.008704   -1.392277    0.621559
     12          1           0       -1.814974   -0.569711    1.647069
     13          1           0       -2.258901   -0.085299   -1.352601
     14          1           0       -0.631765   -2.108822   -0.220825
     15          1           0       -0.310990   -1.334053   -1.777417
     16          1           0        1.935101   -0.194254    1.734322
     17          1           0        1.475368   -1.919700    1.317699
     18          1           0        2.836632    0.146364   -0.582094
     19          1           0        2.397980   -1.581889   -1.018107
 ---------------------------------------------------------------------

 SCF Done:  E(RB3LYP) =  -423.234134239     A.U. after    1 cycles

 The electronic state is 1-A.
 Alpha  occ. eigenvalues --  -19.17457 -19.11447 -10.29555 -10.25358 -10.21254
 Alpha  occ. eigenvalues --  -10.20249 -10.20208 -10.19879 -10.18865  -1.09284
 Alpha  occ. eigenvalues --   -1.01330  -0.87815  -0.79107  -0.72980  -0.65857
 Alpha  occ. eigenvalues --   -0.61421  -0.60638  -0.54183  -0.50698  -0.48846
 Alpha  occ. eigenvalues --   -0.48346  -0.45209  -0.42812  -0.42465  -0.40374
 Alpha  occ. eigenvalues --   -0.39245  -0.38467  -0.37958  -0.37264  -0.33990
 Alpha  occ. eigenvalues --   -0.31027  -0.29006  -0.28783  -0.26185
 Alpha virt. eigenvalues --    0.01593   0.07950   0.09235   0.10143   0.11335
 Alpha virt. eigenvalues --    0.12593   0.14232   0.14582   0.15108   0.16102
 Alpha virt. eigenvalues --    0.17426   0.18403   0.20413   0.21862   0.22417

 Mulliken charges:
               1
     1  C   -0.393638
     2  C    0.119365
     3  C   -0.350983
     4  C    0.190171
     5  C   -0.296266
     6  C   -0.306662
     7  C    0.411224
     8  O   -0.365478
     9  O   -0.238038
    10  H    0.136053
    11  H    0.120178
    12  H    0.127774
    13  H    0.096894
    14  H    0.112790
    15  H    0.116212
    16  H    0.140361
    17  H    0.118503
    18  H    0.143180
    19  H    0.118362
 Sum of Mulliken charges =   0.00000

 Dipole moment (field-independent basis, Debye):
    X=             -1.2383    Y=             -4.1223    Z=             -0.4238  Tot=              4.3251
 Quadrupole moment (field-independent basis, Debye-Ang):
   XX=            -51.1280   YY=            -59.3494   ZZ=            -51.2385
   XY=             -1.5758   XZ=             -0.2590   YZ=             -0.1201

  Exact polarizability:  87.888   1.917  73.503   1.627   1.141  64.906
 Approx polarizability: 118.127   5.566 112.872   5.532   1.842  97.873

                      1                      2                      3
                      A                      A                      A
 Frequencies --     59.5588               114.6711               238.0435
 Red. masses --      2.8350                 5.4309                 2.2445
 Frc consts  --      0.0059                 0.0421                 0.0749
 IR Inten    --      0.2288                 0.3263                 1.3128

                      4                      5                      6
                      A                      A                      A
 Frequencies --    246.0136               259.4918               309.2468
 Red. masses --      1.6704                 1.5711                 3.4334
 Frc consts  --      0.0596                 0.0623                 0.1935
 IR Inten    --      2.3052                 2.1509                 1.2828

                      7                      8                      9
                      A                      A                      A
 Frequencies --    357.8302               423.5040               484.4130
 Red. masses --      1.9969                 3.1710                 3.4856
 Frc consts  --      0.1506                 0.3351                 0.4819
 IR Inten    --      0.3377                 1.9476                 7.3181

                     10                     11                     12
                      A                      A                      A
 Frequencies --    574.6212               693.6790               731.5308
 Red. masses --      5.9081                 4.4638                 4.5973
 Frc consts  --      1.1494                 1.2655                 1.4495
 IR Inten    --      4.5770                 2.1573                 1.1634

                     13                     14                     15
                      A                      A                      A
 Frequencies --    750.8823               790.7890               836.4323
 Red. masses --      5.0907                 1.0628                 2.5451
 Frc consts  --      1.6911                 0.3916                 1.0491
 IR Inten    --      9.8357                 0.6590                 0.9467

                     16                     17                     18
                      A                      A                      A
 Frequencies --    854.4033               913.7880               944.9113
 Red. masses --      2.7379                 2.2171                 1.8167
 Frc consts  --      1.1776                 1.0907                 0.9557
 IR Inten    --      3.0412                 2.1086                 0.1793

                     19                     20                     21
                      A                      A                      A
 Frequencies --    965.5053               983.6626              1005.4412
 Red. masses --      1.4519                 2.1474                 2.4899
 Frc consts  --      0.7974                 1.2242                 1.4830
 IR Inten    --      6.9401                32.3536                 5.7944

                     22                     23                     24
                      A                      A                      A
 Frequencies --   1059.7105              1066.4996              1091.2840
 Red. masses --      2.0260                 1.3824                 1.3736
 Frc consts  --      1.3405                 0.9264                 0.9638
 IR Inten    --     33.9538                 4.8953                 1.3324

                     25                     26                     27
                      A                      A                      A
 Frequencies --   1113.1522              1134.3807              1142.8178
 Red. masses --      2.6593                 1.9231                 2.0703
 Frc consts  --      1.9414                 1.4580                 1.5931
 IR Inten    --    112.3863                14.4745               109.7692

                     28                     29                     30
                      A                      A                      A
 Frequencies --   1201.8962              1221.1992              1286.4011
 Red. masses --      1.2888                 1.4944                 1.8171
 Frc consts  --      1.0969                 1.3130                 1.7717
 IR Inten    --      0.2845                29.6082                56.9354

                     31                     32                     33
                      A                      A                      A
 Frequencies --   1311.1109              1342.7142              1380.9974
 Red. masses --      2.2873                 1.8439                 1.5018
 Frc consts  --      2.3166                 1.9586                 1.6875
 IR Inten    --     33.8070                 8.5501                24.2231

                     34                     35                     36
                      A                      A                      A
 Frequencies --   1397.4453              1411.6570              1455.4653
 Red. masses --      1.6890                 1.3010                 1.0886
 Frc consts  --      1.9433                 1.5275                 1.3587
 IR Inten    --     43.1930                13.1772                 3.2946

                     37                     38                     39
                      A                      A                      A
 Frequencies --   1486.6050              1491.0343              1496.0355
 Red. masses --      1.0529                 1.4375                 1.0489
 Frc consts  --      1.3709                 1.8829                 1.3831
 IR Inten    --      2.2097                 2.5988                 3.1988

                     40                     41                     42
                      A                      A                      A
 Frequencies --   1500.7405              1864.7943              3038.8806
 Red. masses --      1.0933                12.5762                 1.0359
 Frc consts  --      1.4507                25.7668                 5.6361
 IR Inten    --      3.4463               317.1708                11.4731

                     43                     44                     45
                      A                      A                      A
 Frequencies --   3047.3483              3071.1243              3098.7152
 Red. masses --      1.0640                 1.0852                 1.1028
 Frc consts  --      5.8217                 6.0305                 6.2389
 IR Inten    --     14.2626                26.0150                15.9244

                     46                     47                     48
                      A                      A                      A
 Frequencies --   3112.6952              3125.1585              3133.8406
 Red. masses --      1.1013                 1.1018                 1.0498
 Frc consts  --      6.2866                 6.3403                 6.0746
 IR Inten    --     32.1420                18.4679                12.2566

                     49                     50                     51
                      A                      A                      A
 Frequencies --   3135.8978              3220.9820              3234.9206
 Red. masses --      1.0579                 1.1186                 1.1167
 Frc consts  --      6.1291                 6.8375                 6.8854
 IR Inten    --      8.7698                 0.1839                 4.8406

 - Thermochemistry -
 -------------------
 Temperature   298.150 Kelvin.  Pressure   1.00000 Atm.
 Atom     1 has atomic number  6 and mass  12.00000

 Molecular mass:   126.06808 amu.
 Principal axes and moments of inertia in atomic units:
                           1         2         3
     Eigenvalues --   696.749811181.823821544.57688
           X            0.99992  -0.00248  -0.01224
           Y            0.00249   1.00000   0.00049
           Z            0.01224  -0.00052   0.99992
 This molecule is an asymmetric top.
 Rotational symmetry number  1.
 Warning -- assumption of classical behavior for rotation
           may cause significant error
 Rotational temperatures (Kelvin)      0.12431     0.07329     0.05608
 Rotational constants (GHZ):           2.59023     1.52708     1.16844
 Zero-point vibrational energy     419972.5 (Joules/Mol)
                                  100.37584 (Kcal/Mol)
 Warning -- explicit consideration of  10 degrees of freedom as
           vibrations may cause significant error
 Vibrational temperatures:     85.69   164.99   342.49   353.96   373.35
          (Kelvin)            444.94   514.84   609.33   696.96   826.75
                              998.05  1052.51  1080.35  1137.77  1203.44
                             1229.29  1314.74  1359.51  1389.15  1415.27
                             1446.60  1524.69  1534.45  1570.11  1601.58
                             1632.12  1644.26  1729.26  1757.03  1850.84
                             1886.39  1931.86  1986.94  2010.61  2031.06
                             2094.09  2138.89  2145.26  2152.46  2159.23
                             2683.02  4372.27  4384.45  4418.66  4458.35
                             4478.47  4496.40  4508.89  4511.85  4634.27
                             4654.32

 Zero-point correction=                           0.159959 (Hartree/Particle)
 Thermal correction to Energy=                    0.168243
 Thermal correction to Enthalpy=                  0.169187
 Thermal correction to Gibbs Free Energy=         0.126847
 Sum of electronic and zero-point Energies=           -423.074175
 Sum of electronic and thermal Energies=              -423.065892
 Sum of electronic and thermal Enthalpies=            -423.064947
 Sum of electronic and thermal Free Energies=         -423.107287

                     E (Thermal)             CV                S
                      KCal/Mol        Cal/Mol-Kelvin    Cal/Mol-Kelvin
 Total                  105.574             31.690             89.112
 Electronic               0.000              0.000              0.000
 Translational            0.889              2.981             40.409
 Rotational               0.889              2.981             28.633
 Vibrational            103.796             25.728             20.070
 Vibration     1          0.597              1.974              4.472
 Vibration     2          0.608              1.937              3.188
 Vibration     3          0.656              1.782              1.817
 Vibration     4          0.660              1.769              1.759
 Vibration     5          0.668              1.747              1.665
 Vibration     6          0.699              1.656              1.366
 Vibration     7          0.733              1.559              1.132
 Vibration     8          0.786              1.419              0.880
 Vibration     9          0.841              1.285              0.698
 Vibration    10          0.931              1.086              0.495

 Optimization completed.
    -- Stationary point found.
 Normal termination of Gaussian 09 at Tue Jan 28 02:55:11 2020.
