 Gaussian 09, Revision D.01,
 Gaussian 09:  ES64L-G09RevD.01 24-Apr-2013

 -----------------------------
 # b3lyp 6-31G(2df,p) opt Freq
 -----------------------------

 -----
 titel
 -----
 Symbolic Z-matrix:
 Charge =  0 Multiplicity = 1

 SCF Done:  E(RB3LYP) =  -423.157405993     A.U. after   14 cycles
 Optimization completed.
    -- Stationary point found.
 Normal termination of Gaussian 09 at Tue Jan 28 08:07:51 2020.

 ----------------------------------------------------------------------
 #N Geom=AllCheck Guess=TCheck SCRF=Check GenChk RB3LYP/6-31G(2df,p) Fr
 eq
 ----------------------------------------------------------------------

 Structure from the checkpoint file:  "/scratch/puck/g09_3424679e-8500-42b1-8f0d-0d5fca854ed4/Gau-127923.chk"
 -----
 titel
 -----
 Charge =  0 Multiplicity = 1

                         Standard orientation:
 ---------------------------------------------------------------------
 Center     Atomic      Atomic             Coordinates (Angstroms)
 Number     Number       Type             X           Y           Z
 ---------------------------------------------------------------------
      1          8           0        4.407539   -0.681978    0.638630
      2          6           0        3.736586   -0.339013   -0.566570
      3          6           0        2.376684    0.157873   -0.358411
      4          6           0        1.275745    0.600907   -0.148746
      5          6           0       -0.076809    1.090557    0.089087
      6          6           0       -1.142821   -0.020733    0.004693
      7          6           0       -2.561614    0.515266    0.255620
      8          6           0       -3.585461   -0.597323    0.282080
      9          8           0       -4.564621   -0.652302   -0.415275
     10          1           0        4.346419    0.077708    1.227025
     11          1           0        4.310016    0.401684   -1.146956
     12          1           0        3.714835   -1.257018   -1.164451
     13          1           0       -0.126157    1.565595    1.078258
     14          1           0       -0.315412    1.880672   -0.635105
     15          1           0       -1.092442   -0.491403   -0.982971
     16          1           0       -0.901821   -0.801479    0.735363
     17          1           0       -2.590445    1.011450    1.237426
     18          1           0       -2.859843    1.245807   -0.502350
     19          1           0       -3.362350   -1.403984    1.020398
 ---------------------------------------------------------------------

 SCF Done:  E(RB3LYP) =  -423.157405993     A.U. after    1 cycles

 The electronic state is 1-A.
 Alpha  occ. eigenvalues --  -19.14289 -19.14211 -10.27532 -10.25336 -10.21972
 Alpha  occ. eigenvalues --  -10.20755 -10.20250 -10.18427 -10.17793  -1.04975
 Alpha  occ. eigenvalues --   -1.02374  -0.82644  -0.77463  -0.73838  -0.68027
 Alpha  occ. eigenvalues --   -0.62840  -0.58130  -0.53258  -0.49963  -0.48552
 Alpha  occ. eigenvalues --   -0.47123  -0.45296  -0.44674  -0.44260  -0.42159
 Alpha  occ. eigenvalues --   -0.39928  -0.38527  -0.36362  -0.35592  -0.35401
 Alpha  occ. eigenvalues --   -0.28864  -0.26424  -0.26048  -0.25121
 Alpha virt. eigenvalues --   -0.02587   0.02998   0.05019   0.08906   0.09985
 Alpha virt. eigenvalues --    0.10859   0.12687   0.12966   0.13046   0.15251
 Alpha virt. eigenvalues --    0.16404   0.17843   0.18458   0.20353   0.21427

 Mulliken charges:
               1
     1  O   -0.401640
     2  C   -0.193435
     3  C    0.125913
     4  C   -0.008877
     5  C   -0.356403
     6  C   -0.183347
     7  C   -0.274405
     8  C    0.156839
     9  O   -0.234374
    10  H    0.286642
    11  H    0.117413
    12  H    0.140194
    13  H    0.130165
    14  H    0.134741
    15  H    0.126288
    16  H    0.118585
    17  H    0.118949
    18  H    0.123888
    19  H    0.072863
 Sum of Mulliken charges =   0.00000

 Dipole moment (field-independent basis, Debye):
    X=              1.3108    Y=              1.9049    Z=              1.0550  Tot=              2.5416
 Quadrupole moment (field-independent basis, Debye-Ang):
   XX=            -72.4045   YY=            -53.0155   ZZ=            -50.8171
   XY=              1.7307   XZ=             -6.4770   YZ=              1.5745

  Exact polarizability: 119.233  -5.932  66.531  -0.790   0.437  63.998
 Approx polarizability: 153.786 -16.108  99.188   2.309   2.345  98.875

                      1                      2                      3
                      A                      A                      A
 Frequencies --     11.9442                44.1790                68.7299
 Red. masses --      3.5055                 4.5846                 2.5149
 Frc consts  --      0.0003                 0.0053                 0.0070
 IR Inten    --      1.4947                 3.7473                 1.3735

                      4                      5                      6
                      A                      A                      A
 Frequencies --     78.9455               102.7861               145.3278
 Red. masses --      3.6615                 2.3943                 3.4133
 Frc consts  --      0.0134                 0.0149                 0.0425
 IR Inten    --      3.4888                 3.8005                 0.5462

                      7                      8                      9
                      A                      A                      A
 Frequencies --    205.2728               259.3886               313.6904
 Red. masses --      2.6308                 2.4641                 1.9266
 Frc consts  --      0.0653                 0.0977                 0.1117
 IR Inten    --      3.7235                28.0831                75.4512

                     10                     11                     12
                      A                      A                      A
 Frequencies --    338.1330               359.4027               481.2197
 Red. masses --      3.0045                 2.7794                 4.0105
 Frc consts  --      0.2024                 0.2115                 0.5472
 IR Inten    --      9.6633                28.8708                 4.6679

                     13                     14                     15
                      A                      A                      A
 Frequencies --    521.0224               569.6456               739.8948
 Red. masses --      3.6344                 4.9236                 1.1621
 Frc consts  --      0.5813                 0.9413                 0.3748
 IR Inten    --     13.4971                 5.2488                 1.8367

                     16                     17                     18
                      A                      A                      A
 Frequencies --    774.7475               812.2589               904.1944
 Red. masses --      3.0026                 1.6257                 1.4635
 Frc consts  --      1.0619                 0.6319                 0.7050
 IR Inten    --     12.3157                 1.3665                 0.8510

                     19                     20                     21
                      A                      A                      A
 Frequencies --    980.2800               987.4963              1031.9664
 Red. masses --      3.7243                 1.6096                 2.9140
 Frc consts  --      2.1086                 0.9248                 1.8284
 IR Inten    --     25.6253                29.9924                 5.4377

                     22                     23                     24
                      A                      A                      A
 Frequencies --   1046.1941              1091.4952              1112.9758
 Red. masses --      5.3024                 2.8889                 1.8163
 Frc consts  --      3.4194                 2.0278                 1.3256
 IR Inten    --     86.0375                 6.0754                 8.8832

                     25                     26                     27
                      A                      A                      A
 Frequencies --   1157.6776              1183.9966              1214.4564
 Red. masses --      3.5161                 1.3523                 1.0920
 Frc consts  --      2.7765                 1.1169                 0.9489
 IR Inten    --     10.9042                13.6106                17.1614

                     28                     29                     30
                      A                      A                      A
 Frequencies --   1249.9513              1286.1855              1323.9819
 Red. masses --      1.3237                 1.2122                 1.0819
 Frc consts  --      1.2185                 1.1815                 1.1174
 IR Inten    --      1.9590                 4.1923                 4.8646

                     31                     32                     33
                      A                      A                      A
 Frequencies --   1335.2474              1358.8858              1383.6337
 Red. masses --      1.4518                 1.2164                 1.5093
 Frc consts  --      1.5250                 1.3234                 1.7024
 IR Inten    --     20.0378                 5.3311                 2.4613

                     34                     35                     36
                      A                      A                      A
 Frequencies --   1418.0546              1428.8806              1463.4821
 Red. masses --      1.2368                 1.1943                 1.0890
 Frc consts  --      1.4654                 1.4366                 1.3742
 IR Inten    --    100.1351                 5.9226                 1.8243

                     37                     38                     39
                      A                      A                      A
 Frequencies --   1471.3616              1492.6097              1500.3622
 Red. masses --      1.0789                 1.0789                 1.0931
 Frc consts  --      1.3762                 1.4162                 1.4497
 IR Inten    --      1.2060                 0.6270                 4.0040

                     40                     41                     42
                      A                      A                      A
 Frequencies --   1838.1430              2361.4364              2850.6591
 Red. masses --     10.1158                11.8646                 1.0816
 Frc consts  --     20.1377                38.9814                 5.1787
 IR Inten    --    200.9555                 6.9227               108.3386

                     43                     44                     45
                      A                      A                      A
 Frequencies --   2974.7176              3006.7520              3012.8652
 Red. masses --      1.0715                 1.0651                 1.0584
 Frc consts  --      5.5866                 5.6734                 5.6603
 IR Inten    --     53.3482                 8.2493                18.7565

                     46                     47                     48
                      A                      A                      A
 Frequencies --   3039.8424              3043.7631              3061.4531
 Red. masses --      1.0879                 1.0716                 1.0882
 Frc consts  --      5.9229                 5.8493                 6.0091
 IR Inten    --      7.8581                20.1433                17.4857

                     49                     50                     51
                      A                      A                      A
 Frequencies --   3080.9599              3100.4545              3816.7566
 Red. masses --      1.0991                 1.1003                 1.0663
 Frc consts  --      6.1467                 6.2318                 9.1517
 IR Inten    --      7.3292                31.5015                20.5067

 - Thermochemistry -
 -------------------
 Temperature   298.150 Kelvin.  Pressure   1.00000 Atm.
 Atom     1 has atomic number  8 and mass  15.99491

 Molecular mass:   126.06808 amu.
 Principal axes and moments of inertia in atomic units:
                           1         2         3
     Eigenvalues --   293.120604480.663764582.05988
           X            0.99997  -0.00284  -0.00720
           Y            0.00302   0.99968   0.02512
           Z            0.00713  -0.02514   0.99966
 This molecule is an asymmetric top.
 Rotational symmetry number  1.
 Rotational temperatures (Kelvin)      0.29549     0.01933     0.01890
 Rotational constants (GHZ):           6.15699     0.40278     0.39387
 Zero-point vibrational energy     409348.7 (Joules/Mol)
                                   97.83669 (Kcal/Mol)
 Warning -- explicit consideration of  14 degrees of freedom as
           vibrations may cause significant error
 Vibrational temperatures:     17.18    63.56    98.89   113.58   147.89
          (Kelvin)            209.09   295.34   373.20   451.33   486.50
                              517.10   692.37   749.63   819.59  1064.54
                             1114.69  1168.66  1300.93  1410.40  1420.79
                             1484.77  1505.24  1570.42  1601.32  1665.64
                             1703.50  1747.33  1798.40  1850.53  1904.91
                             1921.12  1955.13  1990.74  2040.26  2055.84
                             2105.62  2116.96  2147.53  2158.68  2644.67
                             3397.58  4101.46  4279.95  4326.04  4334.84
                             4373.65  4379.29  4404.74  4432.81  4460.86
                             5491.45

 Zero-point correction=                           0.155913 (Hartree/Particle)
 Thermal correction to Energy=                    0.166897
 Thermal correction to Enthalpy=                  0.167841
 Thermal correction to Gibbs Free Energy=         0.116297
 Sum of electronic and zero-point Energies=           -423.001493
 Sum of electronic and thermal Energies=              -422.990509
 Sum of electronic and thermal Enthalpies=            -422.989565
 Sum of electronic and thermal Free Energies=         -423.041109

                     E (Thermal)             CV                S
                      KCal/Mol        Cal/Mol-Kelvin    Cal/Mol-Kelvin
 Total                  104.729             36.300            108.484
 Electronic               0.000              0.000              0.000
 Translational            0.889              2.981             40.409
 Rotational               0.889              2.981             30.177
 Vibrational            102.952             30.339             37.898
 Vibration     1          0.593              1.987              7.658
 Vibration     2          0.595              1.980              5.062
 Vibration     3          0.598              1.969              4.189
 Vibration     4          0.600              1.963              3.917
 Vibration     5          0.605              1.947              3.401
 Vibration     6          0.617              1.908              2.733
 Vibration     7          0.640              1.832              2.085
 Vibration     8          0.668              1.747              1.666
 Vibration     9          0.702              1.648              1.343
 Vibration    10          0.718              1.599              1.221
 Vibration    11          0.734              1.556              1.125
 Vibration    12          0.838              1.292              0.707
 Vibration    13          0.876              1.203              0.608
 Vibration    14          0.926              1.097              0.505

 Optimization completed on the basis of negligible forces.
    -- Stationary point found.
 Normal termination of Gaussian 09 at Tue Jan 28 08:36:28 2020.
