 Gaussian 09, Revision D.01,
 Gaussian 09:  ES64L-G09RevD.01 24-Apr-2013

 -----------------------------
 # b3lyp 6-31G(2df,p) opt Freq
 -----------------------------

 -----
 titel
 -----
 Symbolic Z-matrix:
 Charge =  0 Multiplicity = 1

 SCF Done:  E(RB3LYP) =  -423.185112271     A.U. after   13 cycles
 Optimization completed.
    -- Stationary point found.
 Normal termination of Gaussian 09 at Mon Jan 27 11:16:59 2020.

 ----------------------------------------------------------------------
 #N Geom=AllCheck Guess=TCheck SCRF=Check GenChk RB3LYP/6-31G(2df,p) Fr
 eq
 ----------------------------------------------------------------------

 Structure from the checkpoint file:  "/scratch/puck/g09_9ffe3ec2-8f1f-4f63-90d8-f32fdfc2c52a/Gau-69974.chk"
 -----
 titel
 -----
 Charge =  0 Multiplicity = 1

                         Standard orientation:
 ---------------------------------------------------------------------
 Center     Atomic      Atomic             Coordinates (Angstroms)
 Number     Number       Type             X           Y           Z
 ---------------------------------------------------------------------
      1          6           0       -1.970319   -0.031138    0.079600
      2          6           0       -0.937118    0.079174   -1.077612
      3          6           0       -0.020330   -1.162125   -1.052283
      4          6           0        0.836298   -1.037252    0.222515
      5          6           0        1.854116    0.086152    0.038817
      6          8           0        1.174024    1.299809   -0.297206
      7          6           0       -0.220091    1.167060   -0.211688
      8          6           0       -0.824914    0.421727    1.016702
      9          8           0        0.012380   -0.691204    1.343813
     10          1           0       -2.766335    0.715110    0.006547
     11          1           0       -2.397536   -1.015013    0.285370
     12          1           0       -1.286064    0.339465   -2.078457
     13          1           0       -0.611680   -2.083549   -1.047131
     14          1           0        0.635470   -1.192679   -1.929020
     15          1           0        1.340751   -1.970557    0.484458
     16          1           0        2.413740    0.230618    0.972061
     17          1           0        2.566302   -0.149247   -0.763351
     18          1           0       -0.648220    2.161910   -0.344356
     19          1           0       -1.043509    0.953514    1.944714
 ---------------------------------------------------------------------

 SCF Done:  E(RB3LYP) =  -423.185112271     A.U. after    1 cycles

 The electronic state is 1-A.
 Alpha  occ. eigenvalues --  -19.13971 -19.13853 -10.23473 -10.23063 -10.22924
 Alpha  occ. eigenvalues --  -10.22463 -10.19047 -10.18666 -10.18027  -1.05495
 Alpha  occ. eigenvalues --   -1.01298  -0.84127  -0.78371  -0.69640  -0.64990
 Alpha  occ. eigenvalues --   -0.62522  -0.60579  -0.53732  -0.49874  -0.48795
 Alpha  occ. eigenvalues --   -0.48027  -0.45809  -0.41529  -0.40825  -0.39470
 Alpha  occ. eigenvalues --   -0.38609  -0.37901  -0.36483  -0.36002  -0.33912
 Alpha  occ. eigenvalues --   -0.31756  -0.28205  -0.23940  -0.23565
 Alpha virt. eigenvalues --    0.08023   0.10673   0.11211   0.12852   0.13265
 Alpha virt. eigenvalues --    0.13808   0.14880   0.15636   0.16227   0.17026
 Alpha virt. eigenvalues --    0.17874   0.18549   0.19307   0.21625   0.22163

 Mulliken charges:
               1
     1  C   -0.243900
     2  C   -0.081093
     3  C   -0.226227
     4  C    0.058617
     5  C   -0.058322
     6  O   -0.281946
     7  C    0.129927
     8  C    0.075982
     9  O   -0.286972
    10  H    0.098995
    11  H    0.102099
    12  H    0.065372
    13  H    0.102163
    14  H    0.103399
    15  H    0.081350
    16  H    0.101923
    17  H    0.095575
    18  H    0.087252
    19  H    0.075805
 Sum of Mulliken charges =   0.00000

 Dipole moment (field-independent basis, Debye):
    X=             -0.5578    Y=             -0.6177    Z=             -0.9591  Tot=              1.2699
 Quadrupole moment (field-independent basis, Debye-Ang):
   XX=            -51.0652   YY=            -53.5002   ZZ=            -54.8693
   XY=             -4.0967   XZ=              0.2302   YZ=              2.4124

  Exact polarizability:  81.218  -4.353  69.768  -0.261   2.521  68.086
 Approx polarizability: 111.450  -4.379 105.287  -1.452   0.517 103.771

                      1                      2                      3
                      A                      A                      A
 Frequencies --    203.3662               303.4776               364.1141
 Red. masses --      2.9406                 2.6298                 3.7518
 Frc consts  --      0.0717                 0.1427                 0.2931
 IR Inten    --      4.3707                 1.7300                 0.6420

                      4                      5                      6
                      A                      A                      A
 Frequencies --    410.3642               443.3485               517.9427
 Red. masses --      2.1055                 2.9491                 3.6881
 Frc consts  --      0.2089                 0.3415                 0.5829
 IR Inten    --      1.9856                 0.6586                 1.8759

                      7                      8                      9
                      A                      A                      A
 Frequencies --    568.7208               645.7405               738.3733
 Red. masses --      4.6853                 5.1274                 3.9218
 Frc consts  --      0.8929                 1.2597                 1.2598
 IR Inten    --      0.8738                 6.1848                 6.9255

                     10                     11                     12
                      A                      A                      A
 Frequencies --    791.4759               827.9684               838.9031
 Red. masses --      2.1645                 2.9832                 3.2883
 Frc consts  --      0.7989                 1.2049                 1.3635
 IR Inten    --      1.9195                 3.3990                13.2528

                     13                     14                     15
                      A                      A                      A
 Frequencies --    869.3626               876.6562               919.6676
 Red. masses --      2.8151                 2.6326                 1.8945
 Frc consts  --      1.2536                 1.1921                 0.9441
 IR Inten    --     16.4025                 8.6675                10.9596

                     16                     17                     18
                      A                      A                      A
 Frequencies --    936.2860               956.3867               998.0485
 Red. masses --      1.9823                 2.5025                 1.9235
 Frc consts  --      1.0239                 1.3486                 1.1289
 IR Inten    --      1.9739                13.1097                 3.4316

                     19                     20                     21
                      A                      A                      A
 Frequencies --   1007.2741              1057.0041              1068.5998
 Red. masses --      2.3889                 2.1025                 1.7487
 Frc consts  --      1.4281                 1.3840                 1.1765
 IR Inten    --     29.7138                 1.3248                27.8614

                     22                     23                     24
                      A                      A                      A
 Frequencies --   1076.5378              1108.9828              1125.5601
 Red. masses --      1.6702                 2.2537                 2.2585
 Frc consts  --      1.1405                 1.6331                 1.6858
 IR Inten    --      0.3865                 4.6277                25.3165

                     25                     26                     27
                      A                      A                      A
 Frequencies --   1153.9062              1173.8580              1209.3790
 Red. masses --      1.9041                 3.1235                 1.3171
 Frc consts  --      1.4937                 2.5359                 1.1350
 IR Inten    --      7.9322               117.4711                38.6983

                     28                     29                     30
                      A                      A                      A
 Frequencies --   1220.5180              1241.0793              1249.0406
 Red. masses --      1.6941                 1.2483                 1.3269
 Frc consts  --      1.4869                 1.1328                 1.2197
 IR Inten    --      3.1885                 3.2322                 4.6982

                     31                     32                     33
                      A                      A                      A
 Frequencies --   1283.8529              1293.9353              1328.1112
 Red. masses --      1.5457                 1.6038                 1.3201
 Frc consts  --      1.5011                 1.5821                 1.3719
 IR Inten    --      5.7409                 5.4626                 4.4448

                     34                     35                     36
                      A                      A                      A
 Frequencies --   1343.1537              1359.1046              1370.4445
 Red. masses --      1.3321                 1.6025                 1.3539
 Frc consts  --      1.4159                 1.7440                 1.4982
 IR Inten    --      2.7234                 1.7820                 6.3138

                     37                     38                     39
                      A                      A                      A
 Frequencies --   1390.0890              1417.7299              1475.1822
 Red. masses --      1.4026                 1.4354                 1.1059
 Frc consts  --      1.5969                 1.6998                 1.4180
 IR Inten    --      5.5759                 3.3021                 2.8866

                     40                     41                     42
                      A                      A                      A
 Frequencies --   1492.3400              1514.9583              3005.2123
 Red. masses --      1.1133                 1.0904                 1.0565
 Frc consts  --      1.4608                 1.4745                 5.6215
 IR Inten    --      6.9489                 0.5944                67.4948

                     43                     44                     45
                      A                      A                      A
 Frequencies --   3038.7417              3044.9644              3058.1474
 Red. masses --      1.0654                 1.1025                 1.0584
 Frc consts  --      5.7964                 6.0226                 5.8321
 IR Inten    --     11.5383                52.3350                21.5329

                     46                     47                     48
                      A                      A                      A
 Frequencies --   3081.0902              3086.0827              3089.7455
 Red. masses --      1.0982                 1.0908                 1.0914
 Frc consts  --      6.1425                 6.1211                 6.1389
 IR Inten    --     39.6311                43.3640                24.3914

                     49                     50                     51
                      A                      A                      A
 Frequencies --   3090.7829              3106.7224              3120.6065
 Red. masses --      1.0893                 1.0898                 1.1081
 Frc consts  --      6.1313                 6.1974                 6.3578
 IR Inten    --     61.3341                31.8459                27.4663

 - Thermochemistry -
 -------------------
 Temperature   298.150 Kelvin.  Pressure   1.00000 Atm.
 Atom     1 has atomic number  6 and mass  12.00000

 Molecular mass:   126.06808 amu.
 Principal axes and moments of inertia in atomic units:
                           1         2         3
     Eigenvalues --   661.83517 909.24240 963.98544
           X            0.99807  -0.06186  -0.00611
           Y            0.06124   0.96182   0.26675
           Z           -0.01062  -0.26661   0.96375
 This molecule is an asymmetric top.
 Rotational symmetry number  1.
 Warning -- assumption of classical behavior for rotation
           may cause significant error
 Rotational temperatures (Kelvin)      0.13087     0.09526     0.08985
 Rotational constants (GHZ):           2.72687     1.98488     1.87217
 Zero-point vibrational energy     430015.3 (Joules/Mol)
                                  102.77612 (Kcal/Mol)
 Warning -- explicit consideration of   7 degrees of freedom as
           vibrations may cause significant error
 Vibrational temperatures:    292.60   436.64   523.88   590.42   637.88
          (Kelvin)            745.20   818.26   929.08  1062.35  1138.76
                             1191.26  1206.99  1250.82  1261.31  1323.19
                             1347.11  1376.03  1435.97  1449.24  1520.79
                             1537.47  1548.90  1595.58  1619.43  1660.21
                             1688.92  1740.02  1756.05  1785.63  1797.09
                             1847.18  1861.68  1910.85  1932.50  1955.45
                             1971.76  2000.03  2039.79  2122.46  2147.14
                             2179.68  4323.82  4372.07  4381.02  4399.99
                             4433.00  4440.18  4445.45  4446.94  4469.88
                             4489.85

 Zero-point correction=                           0.163784 (Hartree/Particle)
 Thermal correction to Energy=                    0.169999
 Thermal correction to Enthalpy=                  0.170943
 Thermal correction to Gibbs Free Energy=         0.133600
 Sum of electronic and zero-point Energies=           -423.021328
 Sum of electronic and thermal Energies=              -423.015113
 Sum of electronic and thermal Enthalpies=            -423.014169
 Sum of electronic and thermal Free Energies=         -423.051512

                     E (Thermal)             CV                S
                      KCal/Mol        Cal/Mol-Kelvin    Cal/Mol-Kelvin
 Total                  106.676             26.787             78.595
 Electronic               0.000              0.000              0.000
 Translational            0.889              2.981             40.409
 Rotational               0.889              2.981             27.853
 Vibrational            104.899             20.825             10.334
 Vibration     1          0.639              1.835              2.102
 Vibration     2          0.695              1.667              1.398
 Vibration     3          0.738              1.546              1.104
 Vibration     4          0.775              1.448              0.925
 Vibration     5          0.803              1.376              0.816
 Vibration     6          0.873              1.210              0.615
 Vibration     7          0.925              1.099              0.507

 Optimization completed.
    -- Stationary point found.
 Normal termination of Gaussian 09 at Mon Jan 27 12:12:25 2020.
