 Gaussian 09, Revision D.01,
 Gaussian 09:  ES64L-G09RevD.01 24-Apr-2013

 -----------------------------
 # b3lyp 6-31G(2df,p) opt Freq
 -----------------------------

 -----
 titel
 -----
 Symbolic Z-matrix:
 Charge =  0 Multiplicity = 1

 SCF Done:  E(RB3LYP) =  -423.214423108     A.U. after   14 cycles
 Optimization completed.
    -- Stationary point found.
 Normal termination of Gaussian 09 at Tue Jan 28 14:13:12 2020.

 ----------------------------------------------------------------------
 #N Geom=AllCheck Guess=TCheck SCRF=Check GenChk RB3LYP/6-31G(2df,p) Fr
 eq
 ----------------------------------------------------------------------

 Structure from the checkpoint file:  "/scratch/puck/g09_575f9675-f55d-4af9-b85d-f29be387418c/Gau-34237.chk"
 -----
 titel
 -----
 Charge =  0 Multiplicity = 1

                         Standard orientation:
 ---------------------------------------------------------------------
 Center     Atomic      Atomic             Coordinates (Angstroms)
 Number     Number       Type             X           Y           Z
 ---------------------------------------------------------------------
      1          8           0        3.742747   -0.257042   -0.051450
      2          6           0        2.391420   -0.347255   -0.471398
      3          6           0        1.543482    0.400247    0.561608
      4          6           0        0.074666    0.374282    0.264211
      5          6           0       -0.690525    1.429993   -0.036516
      6          6           0       -2.133893    1.079749   -0.264541
      7          6           0       -2.166034   -0.440273   -0.034555
      8          8           0       -3.136898   -1.145986   -0.101661
      9          6           0       -0.737205   -0.901005    0.295450
     10          1           0        4.290280   -0.717531   -0.693901
     11          1           0        2.244407    0.107887   -1.463596
     12          1           0        2.065393   -1.397138   -0.540064
     13          1           0        1.740500   -0.055485    1.541459
     14          1           0        1.898792    1.434718    0.613385
     15          1           0       -0.319699    2.447388   -0.102481
     16          1           0       -2.828749    1.578247    0.424115
     17          1           0       -2.494637    1.310036   -1.275926
     18          1           0       -0.718703   -1.403893    1.271777
     19          1           0       -0.415845   -1.654432   -0.435439
 ---------------------------------------------------------------------

 SCF Done:  E(RB3LYP) =  -423.214423108     A.U. after    1 cycles

 The electronic state is 1-A.
 Alpha  occ. eigenvalues --  -19.13897 -19.12983 -10.27015 -10.23447 -10.19685
 Alpha  occ. eigenvalues --  -10.19452 -10.19380 -10.18990 -10.18684  -1.04126
 Alpha  occ. eigenvalues --   -1.02042  -0.85236  -0.77046  -0.72027  -0.68245
 Alpha  occ. eigenvalues --   -0.61428  -0.54406  -0.54064  -0.50903  -0.47355
 Alpha  occ. eigenvalues --   -0.46790  -0.46020  -0.41889  -0.41253  -0.41219
 Alpha  occ. eigenvalues --   -0.39866  -0.39228  -0.36003  -0.35503  -0.35013
 Alpha  occ. eigenvalues --   -0.33533  -0.27292  -0.24678  -0.24035
 Alpha virt. eigenvalues --   -0.01627   0.01338   0.07375   0.08988   0.12098
 Alpha virt. eigenvalues --    0.12194   0.14383   0.14676   0.16320   0.17439
 Alpha virt. eigenvalues --    0.17740   0.18617   0.18750   0.21013   0.23396

 Mulliken charges:
               1
     1  O   -0.416291
     2  C   -0.067310
     3  C   -0.291163
     4  C    0.316779
     5  C   -0.181999
     6  C   -0.366203
     7  C    0.396603
     8  O   -0.301574
     9  C   -0.421958
    10  H    0.287782
    11  H    0.091284
    12  H    0.088381
    13  H    0.113816
    14  H    0.112553
    15  H    0.095436
    16  H    0.136556
    17  H    0.136179
    18  H    0.135992
    19  H    0.135136
 Sum of Mulliken charges =   0.00000

 Dipole moment (field-independent basis, Debye):
    X=              2.0828    Y=              0.7694    Z=             -0.9767  Tot=              2.4257
 Quadrupole moment (field-independent basis, Debye-Ang):
   XX=            -62.5225   YY=            -52.2667   ZZ=            -51.2831
   XY=             -9.4946   XZ=             -5.3499   YZ=              0.3220

  Exact polarizability:  98.878  -5.562  79.202   3.515  -2.666  57.902
 Approx polarizability: 128.858  -8.225 124.436   7.629  -5.868  90.381

                      1                      2                      3
                      A                      A                      A
 Frequencies --     58.6271                61.7461                82.8789
 Red. masses --      3.0387                 2.7131                 3.5523
 Frc consts  --      0.0062                 0.0061                 0.0144
 IR Inten    --      8.5205                 0.6423                 5.6652

                      4                      5                      6
                      A                      A                      A
 Frequencies --    134.3527               261.1178               275.2914
 Red. masses --      3.0966                 1.0787                 2.4432
 Frc consts  --      0.0329                 0.0433                 0.1091
 IR Inten    --      2.0188               103.0482                 2.4218

                      7                      8                      9
                      A                      A                      A
 Frequencies --    313.5821               343.4309               453.1888
 Red. masses --      3.0670                 5.1062                 1.8809
 Frc consts  --      0.1777                 0.3548                 0.2276
 IR Inten    --      4.4299                 5.6624                 1.6329

                     10                     11                     12
                      A                      A                      A
 Frequencies --    486.2667               495.0875               603.5625
 Red. masses --      3.4344                 2.8401                 6.4731
 Frc consts  --      0.4785                 0.4102                 1.3893
 IR Inten    --      6.2003                 9.6249                 7.0686

                     13                     14                     15
                      A                      A                      A
 Frequencies --    705.8508               784.9032               798.4303
 Red. masses --      4.2617                 2.8671                 1.2259
 Frc consts  --      1.2510                 1.0407                 0.4604
 IR Inten    --      2.5274                 4.3351                 3.3217

                     16                     17                     18
                      A                      A                      A
 Frequencies --    809.4865               853.8136               890.7839
 Red. masses --      1.3310                 1.7298                 3.2173
 Frc consts  --      0.5139                 0.7430                 1.5041
 IR Inten    --      3.7907                 5.9457                 3.1314

                     19                     20                     21
                      A                      A                      A
 Frequencies --    985.9846               998.5224              1014.7865
 Red. masses --      1.8111                 1.9587                 2.3954
 Frc consts  --      1.0374                 1.1506                 1.4533
 IR Inten    --      4.0147                 4.6771                32.0932

                     22                     23                     24
                      A                      A                      A
 Frequencies --   1068.2935              1079.5895              1125.9571
 Red. masses --      1.6649                 4.6449                 1.7021
 Frc consts  --      1.1195                 3.1897                 1.2714
 IR Inten    --      4.0638                86.5858                16.6999

                     25                     26                     27
                      A                      A                      A
 Frequencies --   1127.8101              1178.8432              1186.4786
 Red. masses --      2.1132                 1.4563                 1.6542
 Frc consts  --      1.5837                 1.1924                 1.3720
 IR Inten    --     40.5838                 1.8885                 2.2578

                     28                     29                     30
                      A                      A                      A
 Frequencies --   1224.2877              1238.8623              1274.2172
 Red. masses --      1.2350                 1.1818                 1.7973
 Frc consts  --      1.0906                 1.0686                 1.7193
 IR Inten    --      1.8509                42.9390                 2.1033

                     31                     32                     33
                      A                      A                      A
 Frequencies --   1286.4494              1308.7023              1341.9132
 Red. masses --      1.6197                 1.1579                 1.6111
 Frc consts  --      1.5794                 1.1684                 1.7093
 IR Inten    --     12.3218                 0.1812                19.4109

                     34                     35                     36
                      A                      A                      A
 Frequencies --   1359.0939              1440.2183              1446.4732
 Red. masses --      2.0615                 1.0864                 1.0950
 Frc consts  --      2.2435                 1.3277                 1.3499
 IR Inten    --      1.7199                 7.9109                 1.2401

                     37                     38                     39
                      A                      A                      A
 Frequencies --   1456.7326              1482.4207              1528.0641
 Red. masses --      1.4292                 1.0961                 1.0850
 Frc consts  --      1.7869                 1.4192                 1.4927
 IR Inten    --      7.9739                 2.9265                 2.5528

                     40                     41                     42
                      A                      A                      A
 Frequencies --   1709.6127              1854.3068              2969.3425
 Red. masses --      7.2274                12.8346                 1.0540
 Frc consts  --     12.4459                26.0014                 5.4755
 IR Inten    --      2.8164               228.1699                46.5476

                     43                     44                     45
                      A                      A                      A
 Frequencies --   2996.5307              3020.0020              3022.2870
 Red. masses --      1.1048                 1.0616                 1.0616
 Frc consts  --      5.8448                 5.7048                 5.7131
 IR Inten    --     39.7478                13.3482                42.9252

                     46                     47                     48
                      A                      A                      A
 Frequencies --   3024.9280              3048.5022              3050.3656
 Red. masses --      1.0610                 1.1007                 1.0989
 Frc consts  --      5.7201                 6.0270                 6.0242
 IR Inten    --     13.0225                14.3152                 2.8065

                     49                     50                     51
                      A                      A                      A
 Frequencies --   3080.5382              3187.2949              3831.8578
 Red. masses --      1.0990                 1.0932                 1.0664
 Frc consts  --      6.1447                 6.5430                 9.2253
 IR Inten    --     27.4919                12.8021                24.6849

 - Thermochemistry -
 -------------------
 Temperature   298.150 Kelvin.  Pressure   1.00000 Atm.
 Atom     1 has atomic number  8 and mass  15.99491

 Molecular mass:   126.06808 amu.
 Principal axes and moments of inertia in atomic units:
                           1         2         3
     Eigenvalues --   413.824572393.968322673.75938
           X            0.99984  -0.01761  -0.00349
           Y            0.01759   0.99983  -0.00509
           Z            0.00358   0.00502   0.99998
 This molecule is an asymmetric top.
 Rotational symmetry number  1.
 Rotational temperatures (Kelvin)      0.20930     0.03618     0.03239
 Rotational constants (GHZ):           4.36113     0.75387     0.67498
 Zero-point vibrational energy     414874.9 (Joules/Mol)
                                   99.15748 (Kcal/Mol)
 Warning -- explicit consideration of  12 degrees of freedom as
           vibrations may cause significant error
 Vibrational temperatures:     84.35    88.84   119.24   193.30   375.69
          (Kelvin)            396.08   451.17   494.12   652.04   699.63
                              712.32   868.39  1015.56  1129.30  1148.76
                             1164.67  1228.45  1281.64  1418.61  1436.65
                             1460.05  1537.03  1553.29  1620.00  1622.67
                             1696.09  1707.08  1761.47  1782.44  1833.31
                             1850.91  1882.93  1930.71  1955.43  2072.15
                             2081.15  2095.91  2132.87  2198.54  2459.75
                             2667.93  4272.22  4311.33  4345.10  4348.39
                             4352.19  4386.11  4388.79  4432.20  4585.80
                             5513.18

 Zero-point correction=                           0.158018 (Hartree/Particle)
 Thermal correction to Energy=                    0.167321
 Thermal correction to Enthalpy=                  0.168266
 Thermal correction to Gibbs Free Energy=         0.122717
 Sum of electronic and zero-point Energies=           -423.056406
 Sum of electronic and thermal Energies=              -423.047102
 Sum of electronic and thermal Enthalpies=            -423.046157
 Sum of electronic and thermal Free Energies=         -423.091706

                     E (Thermal)             CV                S
                      KCal/Mol        Cal/Mol-Kelvin    Cal/Mol-Kelvin
 Total                  104.996             33.511             95.866
 Electronic               0.000              0.000              0.000
 Translational            0.889              2.981             40.409
 Rotational               0.889              2.981             29.362
 Vibrational            103.218             27.550             26.096
 Vibration     1          0.596              1.974              4.503
 Vibration     2          0.597              1.973              4.401
 Vibration     3          0.600              1.961              3.822
 Vibration     4          0.613              1.919              2.883
 Vibration     5          0.669              1.744              1.654
 Vibration     6          0.677              1.719              1.563
 Vibration     7          0.701              1.648              1.343
 Vibration     8          0.722              1.589              1.196
 Vibration     9          0.812              1.354              0.786
 Vibration    10          0.842              1.281              0.693
 Vibration    11          0.851              1.261              0.671
 Vibration    12          0.962              1.024              0.444

 Optimization completed.
    -- Stationary point found.
 Normal termination of Gaussian 09 at Tue Jan 28 14:49:10 2020.
